Protein in water
79166
    1DC     O5'    1   4.073   3.039   5.298 -0.2358  0.7028  0.0404
    1DC     H5T    2   4.034   3.120   5.266 -0.0374  0.1962 -1.5523
    1DC     C5'    3   4.210   3.037   5.264 -0.2440  0.1312  0.0238
    1DC    H5'1    4   4.223   3.055   5.157 -1.1336  0.4593 -0.0402
    1DC    H5'2    5   4.253   2.939   5.282  1.2528  0.9326  1.0105
    1DC     C4'    6   4.307   3.130   5.337  0.1052 -0.1583 -0.0713
    1DC     H4'    7   4.411   3.098   5.331  0.8099  1.9135  0.1411
    1DC     O4'    8   4.293   3.258   5.279 -0.9529 -0.1585  0.1679
    1DC     C1'    9   4.323   3.349   5.382  0.1878 -0.0227 -0.2694
    1DC     H1'   10   4.423   3.322   5.415  0.3601 -0.8736 -1.4205
    1DC      N1   11   4.302   3.487   5.336  0.0728 -0.0104 -0.1808
    1DC      C6   12   4.194   3.561   5.375  0.2559  0.2268 -0.1196
    1DC      H6   13   4.133   3.524   5.457  1.2956 -0.4290  0.3839
    1DC      C5   14   4.177   3.687   5.332 -0.5451  0.1428 -0.0708
    1DC      H5   15   4.100   3.753   5.368 -0.8664 -0.2858  0.0303
    1DC      C4   16   4.267   3.731   5.229  0.0299 -0.0674  0.3415
    1DC      N4   17   4.272   3.856   5.184 -0.2547 -0.3156 -0.3875
    1DC     H41   18   4.206   3.923   5.221  0.3661  0.8234 -1.2532
    1DC     H42   19   4.337   3.882   5.111 -0.1936  1.2423  0.1711
    1DC      N3   20   4.370   3.657   5.185 -0.0829  0.0052 -0.0469
    1DC      C2   21   4.387   3.532   5.236  0.2248  0.0562 -0.0212
    1DC      O2   22   4.483   3.467   5.196  0.4477  0.2614  0.1772
    1DC     C3'   23   4.270   3.143   5.484 -0.3602  0.5020 -0.2442
    1DC     H3'   24   4.195   3.071   5.516  0.5278 -0.2615  0.1450
    1DC     C2'   25   4.233   3.291   5.491 -0.1154  0.5629 -0.2085
    1DC    H2'1   26   4.129   3.300   5.459  0.1532 -1.2607 -1.7628
    1DC    H2'2   27   4.250   3.333   5.590 -0.2124 -0.0717  0.0837
    1DC     O3'   28   4.372   3.141   5.581 -0.0945 -0.2407 -0.5370
    2DG       P   29   4.400   3.020   5.684  0.5585  0.0501 -0.3632
    2DG     O1P   30   4.405   2.889   5.614  0.2178  0.0582 -0.4041
    2DG     O2P   31   4.319   3.031   5.807  0.2477 -0.7221 -0.4899
    2DG     O5'   32   4.555   3.043   5.719  0.5468 -0.5134  0.0593
    2DG     C5'   33   4.657   3.030   5.623  0.1617 -0.6736 -0.3314
    2DG    H5'1   34   4.622   3.085   5.536  1.0799  0.4343 -0.0304
    2DG    H5'2   35   4.675   2.923   5.613 -0.0340 -0.5929 -1.7903
    2DG     C4'   36   4.784   3.104   5.667 -0.3256  0.0098 -0.0556
    2DG     H4'   37   4.865   3.045   5.623 -1.4449 -1.1158 -0.6769
    2DG     O4'   38   4.780   3.227   5.598  0.7615  0.0811  0.0022
    2DG     C1'   39   4.776   3.336   5.688 -0.1102  0.2003 -0.1781
    2DG     H1'   40   4.870   3.389   5.673 -0.4461  0.2958 -2.2344
    2DG      N9   41   4.671   3.431   5.646  0.0723  0.2281 -0.5790
    2DG      C8   42   4.536   3.411   5.639  0.0549  0.3151 -0.4899
    2DG      H8   43   4.484   3.324   5.678  0.7878  1.3100  3.0383
    2DG      N7   44   4.468   3.517   5.606 -0.4988 -0.1091 -0.7317
    2DG      C5   45   4.565   3.606   5.561 -0.2904  0.1587  0.2129
    2DG      C6   46   4.549   3.737   5.508 -0.1171  0.1422  0.1148
    2DG      O6   47   4.447   3.804   5.493  0.0272  0.1216 -1.0418
    2DG      N1   48   4.672   3.798   5.488 -0.0060 -0.1512 -0.0977
    2DG      H1   49   4.669   3.897   5.471 -1.3440 -0.4110 -1.7141
    2DG      C2   50   4.794   3.740   5.517  0.0268 -0.1929 -0.3147
    2DG      N2   51   4.906   3.813   5.504 -0.2305  0.2820  0.1101
    2DG     H21   52   4.903   3.912   5.483 -1.2200 -0.1641 -2.1479
    2DG     H22   53   4.995   3.776   5.534  0.9142  1.6607 -1.4328
    2DG      N3   54   4.807   3.613   5.558  0.2530  0.0931  0.5299
    2DG      C4   55   4.689   3.552   5.584 -0.0911  0.3136 -0.4603
    2DG     C3'   56   4.813   3.128   5.815 -0.1649 -0.0686 -0.0746
    2DG     H3'   57   4.750   3.058   5.870 -0.8342  0.0069 -0.7214
    2DG     C2'   58   4.769   3.273   5.827  0.8498  0.2435 -0.1064
    2DG    H2'1   59   4.662   3.274   5.848  1.0292  0.9357  0.8524
    2DG    H2'2   60   4.833   3.339   5.886  0.8983  0.9737 -0.9514
    2DG     O3'   61   4.952   3.119   5.836 -0.2010 -0.3477  0.0520
    3DA       P   62   5.022   3.143   5.979  0.0034 -0.1533 -0.0810
    3DA     O1P   63   5.152   3.073   5.980  0.0755 -0.0170  0.2294
    3DA     O2P   64   4.925   3.112   6.086 -0.1090  0.0765 -0.1157
    3DA     O5'   65   5.055   3.300   5.994  0.1205 -0.1769 -0.0941
    3DA     C5'   66   5.163   3.367   5.932 -0.1110  0.3799  0.1020
    3DA    H5'1   67   5.155   3.339   5.828 -0.8244  2.3823 -0.4325
    3DA    H5'2   68   5.255   3.321   5.968  0.1752  0.3182 -0.6996
    3DA     C4'   69   5.158   3.516   5.965 -0.4265  0.3717  0.0880
    3DA     H4'   70   5.246   3.566   5.926  0.0078  0.4789  1.1759
    3DA     O4'   71   5.036   3.564   5.912 -0.4126  0.1227 -0.1762
    3DA     C1'   72   4.976   3.654   6.004  0.1077 -0.0211  0.3134
    3DA     H1'   73   5.029   3.748   6.015  0.4544 -0.1387 -0.2706
    3DA      N9   74   4.832   3.670   5.974  0.0802  0.4496  0.6910
    3DA      C8   75   4.723   3.592   6.003  0.1496 -0.0576 -0.3520
    3DA      H8   76   4.733   3.497   6.054 -2.8141 -0.9809 -1.3290
    3DA      N7   77   4.609   3.635   5.957  0.0552 -0.4193 -0.4543
    3DA      C5   78   4.646   3.753   5.893 -0.4352 -0.2365 -0.4043
    3DA      C6   79   4.574   3.859   5.836  0.0464  0.2579 -0.0981
    3DA      N6   80   4.442   3.871   5.817  0.0627  0.1344 -0.2842
    3DA     H61   81   4.374   3.805   5.852 -0.9329  1.9131  1.3468
    3DA     H62   82   4.416   3.946   5.755  2.0821 -0.2758 -1.7605
    3DA      N1   83   4.641   3.966   5.792  0.6463 -0.0864 -0.0386
    3DA      C2   84   4.773   3.975   5.801  0.6997 -0.2159 -0.6742
    3DA      H2   85   4.821   4.057   5.750 -0.5900  0.1299 -1.3774
    3DA      N3   86   4.850   3.881   5.853 -0.1385 -0.2493  0.5477
    3DA      C4   87   4.781   3.774   5.899 -0.4407 -0.3018 -0.0158
    3DA     C3'   88   5.146   3.541   6.115 -0.0105 -0.0165  0.1856
    3DA     H3'   89   5.168   3.450   6.171  1.4671 -0.7363 -1.4523
    3DA     C2'   90   5.001   3.583   6.137 -0.1061 -0.3410  0.1857
    3DA    H2'1   91   4.938   3.494   6.138  1.8116 -1.7865 -0.9396
    3DA    H2'2   92   4.984   3.641   6.227  0.0282 -2.0594  1.3666
    3DA     O3'   93   5.235   3.646   6.146  0.3069 -0.2955  0.2272
    4DC       P   94   5.271   3.699   6.293  0.4271  0.3388 -0.0307
    4DC     O1P   95   5.419   3.710   6.295  0.5103 -0.7111 -0.1708
    4DC     O2P   96   5.196   3.608   6.382 -0.4567  0.4519 -0.6507
    4DC     O5'   97   5.197   3.841   6.280 -0.2716 -0.0297 -0.0795
    4DC     C5'   98   5.237   3.938   6.186 -0.3539 -0.2599 -0.3539
    4DC    H5'1   99   5.238   3.897   6.086 -0.4818 -1.0484 -0.0390
    4DC    H5'2  100   5.329   3.990   6.216 -0.1528 -1.6099  1.5831
    4DC     C4'  101   5.139   4.055   6.187  0.0976  0.1235  0.2445
    4DC     H4'  102   5.167   4.130   6.113  1.8854  0.2762  1.0284
    4DC     O4'  103   5.018   4.006   6.133  0.2777  0.3890 -0.4108
    4DC     C1'  104   4.919   4.093   6.181 -0.2857 -0.3160 -0.2872
    4DC     H1'  105   4.916   4.185   6.122 -0.4194 -0.3115 -0.2744
    4DC      N1  106   4.783   4.035   6.177 -0.3849 -0.1179  0.1260
    4DC      C6  107   4.762   3.904   6.208  0.0480 -0.2761 -0.2402
    4DC      H6  108   4.846   3.842   6.236 -0.3977  0.3776  3.0187
    4DC      C5  109   4.637   3.855   6.199  0.1177 -0.4384 -0.3365
    4DC      H5  110   4.615   3.750   6.214  0.7844 -0.6761 -1.0063
    4DC      C4  111   4.529   3.946   6.174  0.3608 -0.1437 -0.3214
    4DC      N4  112   4.406   3.895   6.157  0.6061 -0.6742 -0.5347
    4DC     H41  113   4.396   3.797   6.138 -0.1751 -0.6080 -0.5271
    4DC     H42  114   4.328   3.960   6.158  0.8342 -0.0655  4.8548
    4DC      N3  115   4.548   4.078   6.169 -0.6456  0.0425  0.3658
    4DC      C2  116   4.676   4.123   6.172 -0.5350 -0.2764  0.4716
    4DC      O2  117   4.689   4.245   6.170  0.2976 -0.3657  0.2529
    4DC     C3'  118   5.118   4.132   6.317 -0.2062  0.2896  0.0969
    4DC     H3'  119   5.163   4.082   6.402  2.7084  1.9446 -0.3540
    4DC     C2'  120   4.965   4.131   6.322 -0.2148 -0.4953 -0.2616
    4DC    H2'1  121   4.937   4.056   6.396 -2.0082  1.0946  0.7302
    4DC    H2'2  122   4.917   4.223   6.354 -1.1193 -1.6248  1.7880
    4DC     O3'  123   5.175   4.261   6.310 -0.2500  0.2943 -0.1912
    5DT       P  124   5.184   4.348   6.445  0.0502  0.2756 -0.1993
    5DT     O1P  125   5.276   4.460   6.416  0.2159  0.2197  0.0980
    5DT     O2P  126   5.217   4.260   6.560  0.2487  0.0345 -0.4391
    5DT     O5'  127   5.039   4.406   6.483 -0.3405 -0.4378 -0.5809
    5DT     C5'  128   4.987   4.521   6.419  0.2069  0.2548  0.1997
    5DT    H5'1  129   4.995   4.516   6.310  1.2097 -1.6550  0.3128
    5DT    H5'2  130   5.048   4.609   6.440  0.0508  0.2513  0.6735
    5DT     C4'  131   4.842   4.552   6.453  0.1357  0.1196  0.0245
    5DT     H4'  132   4.815   4.641   6.397 -1.1855 -0.8083 -0.8602
    5DT     O4'  133   4.760   4.448   6.405 -0.1420  0.3646 -0.0311
    5DT     C1'  134   4.660   4.425   6.502 -0.0666  0.6910  0.1286
    5DT     H1'  135   4.589   4.507   6.510 -1.5072 -0.3839 -0.9249
    5DT      N1  136   4.604   4.290   6.476  0.3988  0.3681  0.7899
    5DT      C6  137   4.667   4.175   6.513 -0.1149  0.0893  0.8005
    5DT      H6  138   4.772   4.178   6.537 -0.5530  1.2506  2.7601
    5DT      C5  139   4.598   4.061   6.532 -0.3268  0.0684 -0.0478
    5DT      C7  140   4.670   3.943   6.593 -0.1698 -0.0846 -0.5248
    5DT     H71  141   4.777   3.957   6.581 -0.0833 -1.1214 -1.0132
    5DT     H72  142   4.640   3.944   6.698  1.3019 -0.0460 -0.0826
    5DT     H73  143   4.639   3.851   6.543 -0.2577  0.1628 -0.9282
    5DT      C4  144   4.456   4.048   6.506 -0.3317 -0.0766  0.0598
    5DT      O4  145   4.384   3.951   6.531 -0.1243 -0.3215 -0.2807
    5DT      N3  146   4.403   4.164   6.453  0.3073  0.1422 -0.1047
    5DT      H3  147   4.304   4.155   6.435  0.0369 -0.8272  1.6989
    5DT      C2  148   4.474   4.281   6.431  0.7788 -0.1639 -0.2334
    5DT      O2  149   4.404   4.376   6.395  0.2564 -0.3053  0.3985
    5DT     C3'  150   4.810   4.564   6.602 -0.5931 -0.0744 -0.1138
    5DT     H3'  151   4.905   4.568   6.655 -0.2136  0.6279 -0.8328
    5DT     C2'  152   4.738   4.433   6.633  0.1380 -0.4358  0.0878
    5DT    H2'1  153   4.803   4.346   6.633  0.5051 -0.1712 -0.5160
    5DT    H2'2  154   4.668   4.446   6.715 -0.5384  3.0251 -0.8631
    5DT     O3'  155   4.718   4.665   6.638 -0.1591  0.4285 -0.4034
    6DC       P  156   4.751   4.822   6.641 -0.0495  0.3965  0.1653
    6DC     O1P  157   4.716   4.878   6.508 -0.3262 -0.1458  0.0067
    6DC     O2P  158   4.890   4.837   6.689 -0.0828  0.4243  0.2526
    6DC     O5'  159   4.646   4.880   6.748 -0.2008 -0.2267  0.3586
    6DC     C5'  160   4.560   4.986   6.713 -0.0204 -0.0559  0.4332
    6DC    H5'1  161   4.576   5.037   6.618 -0.1529 -2.2408 -0.8297
    6DC    H5'2  162   4.575   5.064   6.788  1.1115 -0.8222  1.0206
    6DC     C4'  163   4.410   4.959   6.722 -0.0660  0.1536  0.3147
    6DC     H4'  164   4.353   5.044   6.683 -1.5151  0.8654  3.6525
    6DC     O4'  165   4.382   4.839   6.654  0.2551 -0.2925  0.9566
    6DC     C1'  166   4.258   4.786   6.696 -0.0113 -0.3329  0.1529
    6DC     H1'  167   4.182   4.807   6.621 -0.9670 -0.0203  1.1799
    6DC      N1  168   4.255   4.639   6.705  0.1644 -0.3460  0.0054
    6DC      C6  169   4.374   4.579   6.732  0.5705  0.6473  0.4710
    6DC      H6  170   4.462   4.641   6.737  0.4546  0.8994 -0.5916
    6DC      C5  171   4.373   4.445   6.754 -0.2256  0.5475 -0.1395
    6DC      H5  172   4.464   4.395   6.783 -0.6612  0.0096  0.3076
    6DC      C4  173   4.248   4.378   6.737  0.0200  0.2093 -0.6288
    6DC      N4  174   4.235   4.245   6.749  0.1388  0.2212 -0.3704
    6DC     H41  175   4.315   4.191   6.778 -1.0273 -1.1146  0.4897
    6DC     H42  176   4.142   4.206   6.746  0.3313 -0.6480  2.3033
    6DC      N3  177   4.130   4.438   6.720 -0.1450  0.0085 -0.2027
    6DC      C2  178   4.133   4.574   6.712 -0.0424 -0.0085 -0.4401
    6DC      O2  179   4.024   4.632   6.715  0.0012  0.0655 -0.3167
    6DC     C3'  180   4.349   4.936   6.860  0.1648 -0.1704  0.3640
    6DC     H3'  181   4.421   4.871   6.908 -1.2237 -0.8822  1.5744
    6DC     C2'  182   4.224   4.853   6.829  0.1636 -0.0564  0.0586
    6DC    H2'1  183   4.219   4.785   6.914  1.3517 -1.2214 -0.7679
    6DC    H2'2  184   4.134   4.913   6.817  0.0330 -0.1641  0.4814
    6DC     O3'  185   4.315   5.047   6.939 -0.7560 -0.2370  0.0769
    7DT       P  186   4.277   5.029   7.095 -0.1124 -0.1189  0.2507
    7DT     O1P  187   4.258   5.164   7.152  0.2202  0.2319 -0.4510
    7DT     O2P  188   4.388   4.952   7.153  0.1722  0.2363  0.1791
    7DT     O5'  189   4.145   4.941   7.125 -0.0581 -0.2636  0.0641
    7DT     C5'  190   4.018   4.988   7.088  0.1526 -0.6333 -1.2004
    7DT    H5'1  191   4.017   5.014   6.982 -0.2545 -0.8311 -1.2506
    7DT    H5'2  192   4.009   5.075   7.152  4.1565 -0.6158 -0.4519
    7DT     C4'  193   3.902   4.890   7.107  0.0568 -0.2711  0.1822
    7DT     H4'  194   3.812   4.926   7.057 -0.2525 -2.5555 -1.0749
    7DT     O4'  195   3.951   4.776   7.040 -0.0528 -0.2525  0.0719
    7DT     C1'  196   3.883   4.666   7.096 -0.0390 -0.0287  0.5328
    7DT     H1'  197   3.782   4.668   7.053  0.5766  0.4345 -0.9584
    7DT      N1  198   3.954   4.538   7.079  0.1328  0.1079  0.2207
    7DT      C6  199   4.089   4.524   7.091  0.2012  0.3840 -0.2020
    7DT      H6  200   4.144   4.615   7.111 -1.7833  1.8964 -1.2937
    7DT      C5  201   4.146   4.402   7.075 -0.2113  0.1669 -0.0218
    7DT      C7  202   4.292   4.373   7.101 -0.2044 -0.3393 -0.6086
    7DT     H71  203   4.356   4.457   7.127  0.4457 -0.9580 -0.1644
    7DT     H72  204   4.291   4.300   7.182  0.2088 -1.4433 -1.5835
    7DT     H73  205   4.339   4.331   7.012  0.9611  1.7844 -1.0659
    7DT      C4  206   4.064   4.286   7.053  0.1867 -0.1101 -0.0500
    7DT      O4  207   4.098   4.169   7.068 -0.0980 -0.2339 -0.3546
    7DT      N3  208   3.929   4.312   7.035  0.1086 -0.0481  0.5714
    7DT      H3  209   3.866   4.235   7.016  0.7093 -0.2096 -0.8785
    7DT      C2  210   3.866   4.435   7.052  0.2560  0.2119 -0.6246
    7DT      O2  211   3.744   4.442   7.064  0.2865 -0.5102  0.2171
    7DT     C3'  212   3.877   4.849   7.252 -0.2036  0.2223  0.2767
    7DT     H3'  213   3.955   4.889   7.317  0.1645  1.0721 -0.6465
    7DT     C2'  214   3.867   4.697   7.244 -0.3425  0.2220  0.4500
    7DT    H2'1  215   3.954   4.657   7.296  0.1110  1.3522  0.5928
    7DT    H2'2  216   3.778   4.660   7.293 -0.2819  0.5117  0.7877
    7DT     O3'  217   3.755   4.905   7.297 -0.2161  0.3941  0.0311
    8DA       P  218   3.711   4.904   7.452 -0.1064  0.3001  0.0618
    8DA     O1P  219   3.626   5.024   7.464  0.1944  0.5278 -0.0808
    8DA     O2P  220   3.830   4.889   7.538  0.0716 -0.2294 -0.2731
    8DA     O5'  221   3.626   4.768   7.467  0.5645 -0.1625 -0.2705
    8DA     C5'  222   3.496   4.753   7.414  0.1952  0.0084  0.5834
    8DA    H5'1  223   3.501   4.748   7.305  0.3960 -0.8091  0.6292
    8DA    H5'2  224   3.435   4.841   7.438 -0.8030 -0.3580 -0.4909
    8DA     C4'  225   3.434   4.621   7.459 -0.2655 -0.0352 -0.1591
    8DA     H4'  226   3.330   4.612   7.427 -0.0102 -0.2408 -0.9406
    8DA     O4'  227   3.505   4.511   7.408  0.3722  0.2568  0.0884
    8DA     C1'  228   3.530   4.412   7.504  0.3690  0.0827 -0.0886
    8DA     H1'  229   3.449   4.339   7.501 -1.5479  2.1404 -1.0739
    8DA      N9  230   3.652   4.343   7.459  0.2945 -0.1792  0.1004
    8DA      C8  231   3.772   4.406   7.443  0.1433  0.0055 -0.3519
    8DA      H8  232   3.782   4.511   7.470 -0.6615 -0.3758  1.6318
    8DA      N7  233   3.868   4.328   7.401  0.4956 -0.0919  0.5995
    8DA      C5  234   3.804   4.208   7.375  0.3365 -0.0675  0.8714
    8DA      C6  235   3.839   4.080   7.327  0.0834  0.0294  0.4213
    8DA      N6  236   3.965   4.041   7.304  0.0482  0.1928 -0.0615
    8DA     H61  237   4.042   4.102   7.329 -0.6484  0.7998  0.6780
    8DA     H62  238   3.978   3.947   7.269  0.6742  0.5304 -0.7804
    8DA      N1  239   3.750   3.983   7.306  0.0122  0.2874 -0.5517
    8DA      C2  240   3.625   4.008   7.340 -0.0160 -0.2869 -0.2017
    8DA      H2  241   3.556   3.930   7.312 -1.9926  1.8455 -1.7160
    8DA      N3  242   3.575   4.125   7.379  0.1060 -0.3373  0.1035
    8DA      C4  243   3.670   4.218   7.406 -0.1122  0.2343 -1.0582
    8DA     C3'  244   3.427   4.604   7.611 -0.3141 -0.1029 -0.1686
    8DA     H3'  245   3.459   4.695   7.661 -0.8760 -1.1667  2.2723
    8DA     C2'  246   3.528   4.492   7.634 -0.2185  0.0084 -0.0470
    8DA    H2'1  247   3.629   4.533   7.642  0.5505 -2.0348  1.8231
    8DA    H2'2  248   3.505   4.426   7.718 -0.5143 -2.7326 -2.1663
    8DA     O3'  249   3.295   4.578   7.652 -0.3325  0.2110 -0.0276
    9DC       P  250   3.249   4.529   7.798  0.3722 -0.0624  0.1054
    9DC     O1P  251   3.102   4.550   7.802  0.3144 -0.4489  0.0426
    9DC     O2P  252   3.330   4.603   7.897  0.4253  0.2840 -0.1959
    9DC     O5'  253   3.280   4.372   7.816 -0.1326 -0.1353  0.3858
    9DC     C5'  254   3.207   4.267   7.757  0.1447  0.1487 -0.4812
    9DC    H5'1  255   3.202   4.274   7.648 -0.4095 -0.7581 -0.5175
    9DC    H5'2  256   3.104   4.267   7.793  0.0315  1.2054 -0.7713
    9DC     C4'  257   3.272   4.133   7.787 -0.1956  0.1207  0.1399
    9DC     H4'  258   3.216   4.042   7.761  0.7968 -0.6584  0.6534
    9DC     O4'  259   3.394   4.131   7.717 -0.2447 -0.9931  0.0662
    9DC     C1'  260   3.498   4.088   7.802 -0.0727  0.0322  0.3854
    9DC     H1'  261   3.479   3.981   7.807  1.3349 -0.3556 -1.6192
    9DC      N1  262   3.635   4.101   7.749 -0.3643  0.3473 -0.3009
    9DC      C6  263   3.717   4.208   7.768  0.0871 -0.0269 -0.1253
    9DC      H6  264   3.681   4.303   7.807 -0.1569 -0.8277  1.6866
    9DC      C5  265   3.844   4.210   7.722  0.1502 -0.1691  0.0432
    9DC      H5  266   3.906   4.299   7.727 -0.7782  0.4872  0.2000
    9DC      C4  267   3.894   4.091   7.661 -0.0472 -0.2788  0.0965
    9DC      N4  268   4.018   4.085   7.611 -0.2489  0.2413 -0.4692
    9DC     H41  269   4.089   4.155   7.629  0.0918 -0.0826 -0.5419
    9DC     H42  270   4.042   3.999   7.563  1.1384  1.6993 -2.5433
    9DC      N3  271   3.815   3.985   7.639 -0.1695 -0.2397  0.3401
    9DC      C2  272   3.688   3.991   7.685 -0.0918 -0.0091  0.5278
    9DC      O2  273   3.613   3.896   7.661 -0.8340  0.7036 -0.0301
    9DC     C3'  274   3.310   4.111   7.933  0.1656  0.0618  0.0388
    9DC     H3'  275   3.262   4.185   7.998 -2.1167 -1.8713  0.6942
    9DC     C2'  276   3.460   4.137   7.942  0.0993  0.3652  0.3172
    9DC    H2'1  277   3.483   4.243   7.948 -2.3387  1.1913 -2.4181
    9DC    H2'2  278   3.506   4.075   8.019 -1.0237 -1.4694 -0.4010
    9DC     O3'  279   3.290   3.977   7.971 -0.6864  0.0705 -0.3418
   10DG       P  280   3.171   3.928   8.068 -0.2744 -0.1539  0.0564
   10DG     O1P  281   3.042   3.942   7.998  0.0031  0.5247 -0.3215
   10DG     O2P  282   3.197   3.985   8.202 -0.5928 -0.2584  0.1643
   10DG     O5'  283   3.211   3.772   8.067  0.1402 -0.0507  0.1251
   10DG     C5'  284   3.161   3.684   7.968 -0.0105  0.4148 -0.2149
   10DG    H5'1  285   3.154   3.735   7.872  0.0636  0.4896 -0.1808
   10DG    H5'2  286   3.060   3.658   8.000  0.5800  0.0981  1.4553
   10DG     C4'  287   3.228   3.549   7.945 -0.1084  0.3038  0.1447
   10DG     H4'  288   3.164   3.481   7.888 -1.2726  1.7302 -0.3184
   10DG     O4'  289   3.343   3.574   7.867 -0.2562 -0.2981 -0.2758
   10DG     C1'  290   3.455   3.526   7.938  0.0818  0.2576 -0.4272
   10DG     H1'  291   3.471   3.421   7.913 -0.6144  0.3625 -1.3453
   10DG      N9  292   3.578   3.604   7.916  0.2635  0.1099  0.0500
   10DG      C8  293   3.593   3.739   7.937  0.0421  0.0900  0.3516
   10DG      H8  294   3.501   3.793   7.948 -1.2185 -1.7898 -0.5116
   10DG      N7  295   3.715   3.780   7.915  0.0159  0.0761  0.1794
   10DG      C5  296   3.786   3.663   7.890 -0.1500  0.0674 -0.2457
   10DG      C6  297   3.926   3.646   7.867 -0.2252 -0.5423 -0.2794
   10DG      O6  298   4.011   3.735   7.858 -0.4592 -0.2260  0.5475
   10DG      N1  299   3.967   3.515   7.852  0.3294 -0.4001  0.0029
   10DG      H1  300   4.068   3.506   7.845  0.7406  2.0677  1.4263
   10DG      C2  301   3.874   3.413   7.851  0.1862 -0.2662 -0.2256
   10DG      N2  302   3.923   3.289   7.857 -0.2578 -0.4317  0.0400
   10DG     H21  303   4.024   3.285   7.861 -0.2061  0.9759  0.5434
   10DG     H22  304   3.861   3.220   7.898 -3.1069 -0.0549 -3.1423
   10DG      N3  305   3.743   3.426   7.876  0.0655 -0.0937 -0.9291
   10DG      C4  306   3.703   3.554   7.889  0.1403 -0.1574 -0.0212
   10DG     C3'  307   3.266   3.470   8.070  0.1798  0.1794 -0.0211
   10DG     H3'  308   3.204   3.506   8.152  0.9109 -1.1784  1.1605
   10DG     C2'  309   3.409   3.522   8.084  0.2227  0.1621 -0.3849
   10DG    H2'1  310   3.400   3.627   8.111 -2.6621  0.2806 -1.4218
   10DG    H2'2  311   3.477   3.476   8.155  0.0022  1.7687  0.9221
   10DG     O3'  312   3.252   3.336   8.029 -0.1405  0.1165  0.2915
   11DG       P  313   3.279   3.215   8.131  0.1263 -0.0499  0.0220
   11DG     O1P  314   3.249   3.093   8.053 -0.2458  0.0423  0.0213
   11DG     O2P  315   3.210   3.234   8.260  0.2620  0.0822  0.0749
   11DG     O5'  316   3.439   3.219   8.156  0.0552 -0.2449  0.5193
   11DG     C5'  317   3.512   3.099   8.171  0.0627 -0.2792  0.2258
   11DG    H5'1  318   3.514   3.053   8.073 -0.5413  1.2239 -0.5344
   11DG    H5'2  319   3.458   3.034   8.240  0.9911  0.0046  1.2386
   11DG     C4'  320   3.654   3.123   8.222  0.0648  0.2104 -0.0030
   11DG     H4'  321   3.712   3.031   8.216  0.1786  0.2447  0.5758
   11DG     O4'  322   3.736   3.210   8.148  0.0916  0.1285 -0.0710
   11DG     C1'  323   3.800   3.290   8.245 -0.2258  0.1143  0.1513
   11DG     H1'  324   3.878   3.221   8.278 -1.0458 -1.1030 -0.3794
   11DG      N9  325   3.862   3.415   8.197  0.1327 -0.1659 -0.1158
   11DG      C8  326   3.803   3.539   8.197 -0.0349 -0.2454 -0.0633
   11DG      H8  327   3.696   3.552   8.206  0.1325  0.9930  0.3362
   11DG      N7  328   3.888   3.637   8.191 -0.4362  0.1091 -0.0005
   11DG      C5  329   4.010   3.570   8.179 -0.4163  0.1765 -0.1787
   11DG      C6  330   4.144   3.617   8.172 -0.2750 -0.2551 -0.3784
   11DG      O6  331   4.179   3.735   8.176  0.2210 -0.4150  0.0571
   11DG      N1  332   4.242   3.518   8.171 -0.2673 -0.2557  0.0794
   11DG      H1  333   4.339   3.542   8.156 -0.2849  0.3222  0.8427
   11DG      C2  334   4.214   3.383   8.178 -0.1767 -0.2854 -0.1233
   11DG      N2  335   4.316   3.297   8.181 -0.2872 -0.3920  1.2176
   11DG     H21  336   4.404   3.337   8.212 -0.4754  0.5903  0.5208
   11DG     H22  337   4.299   3.198   8.177 -2.1481 -0.0747  0.6606
   11DG      N3  338   4.089   3.336   8.170 -0.2471 -0.1581  0.1880
   11DG      C4  339   3.996   3.434   8.174  0.0291  0.1403 -0.4781
   11DG     C3'  340   3.645   3.176   8.365 -0.2304  0.0647  0.0343
   11DG     H3'  341   3.545   3.165   8.407 -0.2766 -0.0385 -0.1028
   11DG     C2'  342   3.693   3.320   8.351 -0.1996  0.0698  0.1894
   11DG    H2'1  343   3.616   3.390   8.319 -0.8549 -0.5161  0.4511
   11DG    H2'2  344   3.735   3.339   8.450 -0.3043 -1.6162  0.5884
   11DG     O3'  345   3.741   3.114   8.448 -0.3719 -0.0769  0.0917
   12DA       P  346   3.733   2.962   8.502 -0.3330 -0.1808 -0.1959
   12DA     O1P  347   3.654   2.884   8.404  0.4083 -0.2313 -0.7612
   12DA     O2P  348   3.693   2.954   8.644 -0.2806  0.1236 -0.1642
   12DA     O5'  349   3.889   2.924   8.499 -0.2809  0.0282 -0.1083
   12DA     C5'  350   3.954   2.825   8.423 -0.3955 -0.1801  0.0645
   12DA    H5'1  351   3.956   2.849   8.317  1.9653  0.3394  0.1594
   12DA    H5'2  352   3.894   2.736   8.440  1.5308 -1.9228 -1.7339
   12DA     C4'  353   4.097   2.802   8.472 -0.3075  0.1189 -0.0452
   12DA     H4'  354   4.129   2.710   8.422 -1.1919  0.9142 -2.2013
   12DA     O4'  355   4.182   2.905   8.429  0.2904 -0.4999 -0.3735
   12DA     C1'  356   4.226   2.977   8.543  0.3600 -0.4731 -0.4181
   12DA     H1'  357   4.331   2.954   8.561 -0.0565 -1.2961  1.1722
   12DA      N9  358   4.215   3.121   8.516 -0.2072 -0.4331  0.0307
   12DA      C8  359   4.103   3.199   8.501 -0.0768 -0.1712  0.3984
   12DA      H8  360   4.010   3.150   8.476  0.3642 -0.0062 -1.7829
   12DA      N7  361   4.121   3.328   8.510  0.1485 -0.2299  0.7973
   12DA      C5  362   4.260   3.333   8.521  0.2041 -0.0684  0.0926
   12DA      C6  363   4.355   3.434   8.504  0.1629 -0.0218  0.1424
   12DA      N6  364   4.332   3.565   8.486 -0.3887 -0.1251  0.0852
   12DA     H61  365   4.240   3.606   8.486 -0.5002 -0.2073  3.1304
   12DA     H62  366   4.418   3.614   8.466  0.2931 -1.6431 -0.9073
   12DA      N1  367   4.487   3.415   8.518  0.2468  0.2018 -0.3378
   12DA      C2  368   4.528   3.290   8.531 -0.3634  0.0485  0.1334
   12DA      H2  369   4.634   3.274   8.523 -0.8425 -2.8004 -2.2543
   12DA      N3  370   4.452   3.182   8.537 -0.2909  0.0183  0.5493
   12DA      C4  371   4.319   3.209   8.531 -0.3541 -0.3176  0.3850
   12DA     C3'  372   4.113   2.792   8.624  0.0514  0.0430 -0.0885
   12DA     H3'  373   4.018   2.765   8.669  0.0559  2.3423  1.4735
   12DA     C2'  374   4.151   2.933   8.668  0.5178 -0.0519 -0.1740
   12DA    H2'1  375   4.059   2.991   8.672 -1.2551 -2.7287  0.5554
   12DA    H2'2  376   4.198   2.945   8.765  1.1091  3.2914 -0.7526
   12DA     O3'  377   4.222   2.709   8.658  0.1124  0.3213  0.3980
   13DA       P  378   4.262   2.660   8.806 -0.0529  0.0211  0.3419
   13DA     O1P  379   4.337   2.534   8.790  0.5909  0.4316  0.1192
   13DA     O2P  380   4.135   2.651   8.883  0.0884  0.0098  0.5745
   13DA     O5'  381   4.358   2.769   8.875 -0.2317  0.5492 -0.2380
   13DA     C5'  382   4.488   2.792   8.825  0.1393 -0.1795  0.3696
   13DA    H5'1  383   4.488   2.769   8.718  3.1676  2.9945 -0.5107
   13DA    H5'2  384   4.546   2.711   8.869 -0.0879  0.3590  1.7080
   13DA     C4'  385   4.546   2.928   8.863  0.3111 -0.1430 -0.0155
   13DA     H4'  386   4.651   2.930   8.835 -0.0285  3.0528 -1.5010
   13DA     O4'  387   4.483   3.040   8.806  0.1180 -0.2583 -0.0306
   13DA     C1'  388   4.534   3.144   8.887 -0.7718  0.2187 -0.0657
   13DA     H1'  389   4.640   3.164   8.868 -0.3231 -2.0449 -0.2662
   13DA      N9  390   4.446   3.262   8.878 -0.4779  0.4453  0.0021
   13DA      C8  391   4.309   3.262   8.889 -0.4814 -0.0162 -0.0079
   13DA      H8  392   4.241   3.179   8.906 -0.7083 -0.5011 -2.8970
   13DA      N7  393   4.263   3.383   8.872  0.0391  0.1430 -0.3081
   13DA      C5  394   4.373   3.464   8.849  0.1172  0.1646  0.1371
   13DA      C6  395   4.403   3.601   8.842  0.2752  0.1254  0.0382
   13DA      N6  396   4.322   3.707   8.843 -0.1167 -0.1743  0.2166
   13DA     H61  397   4.221   3.699   8.843 -0.0447 -1.3813  1.6272
   13DA     H62  398   4.358   3.800   8.826  0.4575 -0.5243 -0.5265
   13DA      N1  399   4.528   3.649   8.838  0.3429 -0.0275  0.3379
   13DA      C2  400   4.627   3.560   8.840  0.3323 -0.0545 -0.2283
   13DA      H2  401   4.727   3.599   8.828  1.0689 -1.7527  0.1062
   13DA      N3  402   4.618   3.429   8.850  0.2259 -0.0141  0.2343
   13DA      C4  403   4.488   3.390   8.852  0.1532  0.2094 -0.1431
   13DA     C3'  404   4.541   2.950   9.014 -0.9159 -0.3187 -0.0158
   13DA     H3'  405   4.450   2.908   9.055 -1.6356  2.0737  1.0383
   13DA     C2'  406   4.529   3.101   9.033  0.0932 -0.2088 -0.1519
   13DA    H2'1  407   4.432   3.128   9.075  1.0337 -0.7084  2.6096
   13DA    H2'2  408   4.608   3.146   9.093  0.4348 -1.4631  0.3605
   13DA     O3'  409   4.656   2.888   9.067 -0.5032  0.5633  0.1459
   14DG       P  410   4.701   2.886   9.222  0.0195  0.0711 -0.0078
   14DG     O1P  411   4.796   2.773   9.231 -0.4288 -0.3079  0.0436
   14DG     O2P  412   4.576   2.871   9.300  0.1509  0.5480  0.2999
   14DG     O5'  413   4.773   3.022   9.268 -0.0940  0.0330  0.2870
   14DG     C5'  414   4.895   3.057   9.207 -0.1636  0.0297  0.1450
   14DG    H5'1  415   4.882   3.051   9.099  1.9641  1.4714 -0.2545
   14DG    H5'2  416   4.971   2.983   9.233 -1.5279 -1.1338  0.9487
   14DG     C4'  417   4.947   3.194   9.248 -0.3210  0.0233  0.3688
   14DG     H4'  418   5.053   3.197   9.224  0.1717 -0.8205  2.2797
   14DG     O4'  419   4.877   3.293   9.176 -0.0067  0.1718  0.2643
   14DG     C1'  420   4.843   3.392   9.271 -0.4817 -0.0974  0.3764
   14DG     H1'  421   4.922   3.466   9.279 -0.9377  0.4615 -0.1867
   14DG      N9  422   4.720   3.464   9.233 -0.3338 -0.2555 -0.4225
   14DG      C8  423   4.588   3.428   9.236 -0.2453 -0.5052  0.9406
   14DG      H8  424   4.552   3.330   9.265 -1.3107 -0.3799  0.0933
   14DG      N7  425   4.505   3.527   9.216  0.2787 -0.2247  0.1088
   14DG      C5  426   4.591   3.634   9.193  0.0218 -0.1076 -0.3036
   14DG      C6  427   4.568   3.773   9.177  0.3015 -0.0341 -0.0764
   14DG      O6  428   4.462   3.835   9.171  0.5267  0.3539 -0.0605
   14DG      N1  429   4.679   3.856   9.184 -0.2378  0.6708  0.3402
   14DG      H1  430   4.668   3.955   9.168 -1.1053  0.6020  0.4782
   14DG      C2  431   4.808   3.806   9.192 -0.3514  0.1705 -0.7597
   14DG      N2  432   4.908   3.895   9.180  0.1474 -0.1656  0.7793
   14DG     H21  433   4.880   3.992   9.174  2.3871  0.5513  1.1551
   14DG     H22  434   4.997   3.864   9.216  0.4883 -1.6378 -1.1955
   14DG      N3  435   4.834   3.676   9.208 -0.3352  0.2928  0.2558
   14DG      C4  436   4.723   3.600   9.210 -0.0811 -0.0736  0.6229
   14DG     C3'  437   4.937   3.213   9.399  0.6282  0.4532  0.3855
   14DG     H3'  438   4.912   3.123   9.455 -0.4353  1.0686  0.9126
   14DG     C2'  439   4.835   3.326   9.408 -0.1609 -0.2485  0.3225
   14DG    H2'1  440   4.737   3.282   9.425  0.1116 -0.6737  0.8403
   14DG    H2'2  441   4.859   3.397   9.487 -0.5871  0.0889  0.1527
   14DG     O3'  442   5.058   3.273   9.441  0.4758  0.9590  0.1118
   15DG       P  443   5.106   3.254   9.593 -0.0507 -0.1139  0.1558
   15DG     O1P  444   5.253   3.236   9.588 -0.0705 -0.0996 -0.4610
   15DG     O2P  445   5.023   3.154   9.664  0.2904 -0.7003 -0.2556
   15DG     O5'  446   5.097   3.392   9.675  0.1210 -0.0463  0.0629
   15DG     C5'  447   5.169   3.506   9.634  0.3868 -0.3989 -0.4539
   15DG    H5'1  448   5.195   3.495   9.529  1.5190  1.8621 -0.4759
   15DG    H5'2  449   5.268   3.511   9.680  0.9842  2.6234 -1.8047
   15DG     C4'  450   5.099   3.641   9.650 -0.2629 -0.7586 -0.2096
   15DG     H4'  451   5.176   3.714   9.625 -2.0325  1.9284  1.7271
   15DG     O4'  452   4.986   3.645   9.566 -0.6260 -0.1529  0.3031
   15DG     C1'  453   4.922   3.760   9.616  0.1945  0.6212 -0.4253
   15DG     H1'  454   4.980   3.850   9.593 -0.5664  1.1414 -0.3570
   15DG      N9  455   4.783   3.780   9.571  0.0242  0.0510 -0.1435
   15DG      C8  456   4.682   3.689   9.549  0.2512 -0.0018 -0.9707
   15DG      H8  457   4.708   3.585   9.563  1.3416  0.2671 -0.8766
   15DG      N7  458   4.564   3.736   9.521  0.1203  0.0670 -0.3097
   15DG      C5  459   4.588   3.873   9.525 -0.3620  0.1405  0.2023
   15DG      C6  460   4.496   3.978   9.503 -0.1739  0.3522  0.4123
   15DG      O6  461   4.376   3.980   9.476 -0.1723  0.0011  0.3702
   15DG      N1  462   4.559   4.101   9.500 -0.0629  0.2857  0.0157
   15DG      H1  463   4.504   4.178   9.464  0.0896  0.2562 -0.2859
   15DG      C2  464   4.689   4.125   9.539  0.0372 -0.1073 -0.0772
   15DG      N2  465   4.723   4.254   9.538 -0.3040 -0.0110  0.6396
   15DG     H21  466   4.661   4.331   9.518 -0.0943  0.2819  1.0850
   15DG     H22  467   4.814   4.265   9.581 -0.1346 -1.4204  0.6897
   15DG      N3  468   4.773   4.024   9.565 -0.2808 -0.2142  0.5471
   15DG      C4  469   4.721   3.900   9.547 -0.2111 -0.1186 -0.3844
   15DG     C3'  470   5.054   3.673   9.792  0.1761  0.0612 -0.2529
   15DG     H3'  471   5.043   3.581   9.849 -1.5923 -0.3968 -1.2575
   15DG     C2'  472   4.921   3.743   9.767  0.0320 -0.3054 -0.5260
   15DG    H2'1  473   4.851   3.666   9.799  2.0035 -2.2580 -0.6528
   15DG    H2'2  474   4.903   3.840   9.815  1.0141  0.5427 -1.8148
   15DG     O3'  475   5.156   3.753   9.848 -0.0460  0.4043 -0.3364
   16DG       P  476   5.145   3.813   9.997 -0.1214 -0.1187 -0.1287
   16DG     O1P  477   5.280   3.862  10.034 -0.2045  0.2094 -0.2593
   16DG     O2P  478   5.080   3.711  10.082 -0.2388 -0.1728 -0.2821
   16DG     O5'  479   5.047   3.941   9.989  0.2042  0.1487  0.0973
   16DG     C5'  480   5.085   4.047   9.904  0.1225  0.3875  0.3595
   16DG    H5'1  481   5.080   3.998   9.807  1.1103 -2.4612  1.6226
   16DG    H5'2  482   5.181   4.094   9.925 -0.2327  0.7466  1.2472
   16DG     C4'  483   4.976   4.152   9.886 -0.0791  0.0825 -0.2375
   16DG     H4'  484   5.013   4.221   9.810  1.5217  0.8027  1.1270
   16DG     O4'  485   4.866   4.075   9.845 -0.2705  0.0558  0.3134
   16DG     C1'  486   4.761   4.168   9.862 -0.1643  0.1712  0.3378
   16DG     H1'  487   4.770   4.262   9.808 -0.8310 -1.4580 -2.8472
   16DG      N9  488   4.624   4.116   9.843  0.0503 -0.2785  0.0048
   16DG      C8  489   4.588   3.984   9.845  0.1148 -0.2981 -0.0838
   16DG      H8  490   4.654   3.904   9.876  0.5154  1.0032  2.7294
   16DG      N7  491   4.461   3.970   9.818 -0.0285  0.1732  0.3422
   16DG      C5  492   4.410   4.098   9.795 -0.0527  0.1244  0.1200
   16DG      C6  493   4.283   4.145   9.754  0.0910 -0.1481 -0.6637
   16DG      O6  494   4.178   4.083   9.738 -0.2722  0.1359  0.5104
   16DG      N1  495   4.270   4.282   9.738  0.3476 -0.0474 -0.0513
   16DG      H1  496   4.185   4.321   9.699  1.3782  3.3128  0.7500
   16DG      C2  497   4.380   4.365   9.751  0.3147  0.1190 -0.7721
   16DG      N2  498   4.367   4.496   9.724 -0.3522  0.3250  0.4958
   16DG     H21  499   4.277   4.540   9.715  0.4003  1.9697  0.7638
   16DG     H22  500   4.455   4.546   9.720 -0.5319  0.5617 -0.9537
   16DG      N3  501   4.499   4.321   9.793 -0.2023 -0.0314  0.5928
   16DG      C4  502   4.512   4.188   9.813  0.1816 -0.0990 -0.0591
   16DG     C3'  503   4.932   4.224  10.014 -0.2683  0.1280 -0.3275
   16DG     H3'  504   4.977   4.170  10.098 -0.6885 -2.6183 -1.7443
   16DG     C2'  505   4.783   4.194  10.011 -0.3755  0.5981  0.2947
   16DG    H2'1  506   4.762   4.102  10.064 -0.6938  1.2420  1.3277
   16DG    H2'2  507   4.725   4.274  10.058 -0.0574 -0.1479  2.0458
   16DG     O3'  508   4.946   4.364  10.006 -0.3285  0.1667  0.2228
   17DC       P  509   4.960   4.451  10.141  0.0269  0.0005  0.2944
   17DC     O1P  510   5.074   4.545  10.137 -0.2599  0.3543  0.3787
   17DC     O2P  511   4.965   4.353  10.252  0.2548 -0.3256  0.0006
   17DC     O5'  512   4.826   4.539  10.155  0.0655  0.0889  0.1091
   17DC     C5'  513   4.820   4.655  10.076 -0.1292  0.2106  0.3016
   17DC    H5'1  514   4.847   4.631   9.973 -0.4476  1.7910 -0.1726
   17DC    H5'2  515   4.897   4.721  10.117  1.6308 -2.3751  1.4027
   17DC     C4'  516   4.690   4.734  10.070  0.1398  0.6049 -0.5397
   17DC     H4'  517   4.703   4.825  10.010 -0.8348  0.9421 -0.2620
   17DC     O4'  518   4.587   4.653  10.018  0.3075  0.1145 -0.1080
   17DC     C1'  519   4.479   4.651  10.108  0.3703 -0.3922 -0.0371
   17DC     H1'  520   4.421   4.743  10.099  0.9742  0.1899  1.5875
   17DC      N1  521   4.397   4.530  10.090  0.1023 -0.2530  0.2281
   17DC      C6  522   4.445   4.405  10.121 -0.1013 -0.5199 -0.5061
   17DC      H6  523   4.551   4.409  10.139 -0.2049  1.9422 -0.0196
   17DC      C5  524   4.368   4.296  10.104 -0.0616 -0.5968 -0.1973
   17DC      H5  525   4.413   4.198  10.110  2.1258  0.4201  1.6374
   17DC      C4  526   4.233   4.314  10.058  0.0965 -0.1915 -0.5028
   17DC      N4  527   4.150   4.214  10.027 -0.5577  0.3574 -0.5257
   17DC     H41  528   4.176   4.119  10.047 -0.8861  0.5060  0.7190
   17DC     H42  529   4.060   4.242   9.989 -0.1899  0.8267 -1.0742
   17DC      N3  530   4.185   4.436  10.030  0.4720 -0.0073 -0.3527
   17DC      C2  531   4.265   4.544  10.052  0.3248  0.1148 -0.4151
   17DC      O2  532   4.219   4.653  10.019  0.2596  0.4009  0.5977
   17DC     C3'  533   4.643   4.777  10.209  0.1562  0.3158 -0.4461
   17DC     H3'  534   4.730   4.777  10.276 -0.8991 -0.0103  0.9805
   17DC     C2'  535   4.545   4.665  10.245  0.4936  0.1134 -0.1472
   17DC    H2'1  536   4.590   4.571  10.276 -0.7984 -1.6959 -3.2874
   17DC    H2'2  537   4.474   4.703  10.318  0.1146  0.5176 -0.7192
   17DC     O3'  538   4.584   4.904  10.199 -0.0444  0.2666  0.0606
   18DA       P  539   4.568   5.005  10.323 -0.2325  0.1460  0.1342
   18DA     O1P  540   4.596   5.138  10.265 -0.2826  0.2243  0.2887
   18DA     O2P  541   4.657   4.955  10.430  0.2829  0.3547 -0.1955
   18DA     O5'  542   4.412   4.980  10.356 -0.2088 -0.1864  0.0008
   18DA     C5'  543   4.307   5.050  10.295  0.0048  0.3057  0.1871
   18DA    H5'1  544   4.311   5.035  10.187 -2.2021 -0.0935  0.1114
   18DA    H5'2  545   4.308   5.155  10.322 -3.2213  0.6301 -0.5050
   18DA     C4'  546   4.170   4.990  10.329  0.1563 -0.0173  0.2245
   18DA     H4'  547   4.100   5.061  10.285 -0.6430 -1.1893 -0.4593
   18DA     O4'  548   4.159   4.860  10.275  0.6066 -0.0105  0.1087
   18DA     C1'  549   4.048   4.801  10.339  0.4582  0.2880  0.1290
   18DA     H1'  550   3.960   4.843  10.291  0.8929 -0.4352 -1.3375
   18DA      N9  551   4.039   4.654  10.343  0.2974  0.3031  0.4004
   18DA      C8  552   4.136   4.560  10.366 -0.2272 -0.2870  0.2543
   18DA      H8  553   4.239   4.591  10.378  0.0116  0.4810 -2.7216
   18DA      N7  554   4.096   4.436  10.359 -0.3459 -0.2472  0.2290
   18DA      C5  555   3.965   4.447  10.313 -0.2231  0.0189 -0.0615
   18DA      C6  556   3.866   4.353  10.282 -0.1959 -0.0972  0.1924
   18DA      N6  557   3.879   4.220  10.286 -0.6895 -0.1529  0.0017
   18DA     H61  558   3.969   4.178  10.303  0.3616  1.2580 -1.7266
   18DA     H62  559   3.808   4.168  10.235  0.9469 -1.4364 -1.0496
   18DA      N1  560   3.744   4.395  10.244 -0.1420  0.0551  0.1897
   18DA      C2  561   3.720   4.526  10.247 -0.2460  0.0303  0.4376
   18DA      H2  562   3.619   4.550  10.218 -0.0442 -2.6662 -3.2239
   18DA      N3  563   3.808   4.623  10.268  0.3703 -0.3202 -0.4500
   18DA      C4  564   3.932   4.579  10.300  0.3385  0.2183  0.4446
   18DA     C3'  565   4.133   4.979  10.476  0.5895  0.0048  0.3371
   18DA     H3'  566   4.223   4.967  10.537  0.2165 -2.1048  0.5653
   18DA     C2'  567   4.048   4.853  10.483  0.2129  0.2493  0.1421
   18DA    H2'1  568   4.084   4.790  10.564 -0.0462  0.2513  0.2591
   18DA    H2'2  569   3.944   4.875  10.509 -0.2632  0.3916 -1.7123
   18DA     O3'  570   4.067   5.101  10.500  0.4741 -0.0280  0.1860
   19DT       P  571   3.995   5.127  10.642  0.0657 -0.0330 -0.0187
   19DT     O1P  572   3.981   5.274  10.652 -0.1842 -0.0282 -0.4132
   19DT     O2P  573   4.078   5.066  10.748 -0.1157 -0.1067  0.0822
   19DT     O5'  574   3.846   5.067  10.642 -0.1707  0.5334  0.6934
   19DT     C5'  575   3.744   5.123  10.561  0.3116  0.3420 -0.0577
   19DT    H5'1  576   3.779   5.128  10.458  1.9440 -2.2418  0.2775
   19DT    H5'2  577   3.715   5.221  10.599 -1.6341 -1.0678  2.3808
   19DT     C4'  578   3.627   5.024  10.559  0.7035 -0.1503  0.7809
   19DT     H4'  579   3.569   5.066  10.477  1.6930 -1.7290 -0.8144
   19DT     O4'  580   3.656   4.893  10.518  0.1508 -0.0181 -0.0595
   19DT     C1'  581   3.577   4.800  10.590  0.0531 -0.2984 -0.5280
   19DT     H1'  582   3.476   4.795  10.549  0.6698 -1.2999 -2.0128
   19DT      N1  583   3.651   4.673  10.590  0.3273 -0.1407 -0.1958
   19DT      C6  584   3.779   4.659  10.637  0.2572 -0.1366 -0.0085
   19DT      H6  585   3.836   4.747  10.661 -0.0899  0.3011 -0.7460
   19DT      C5  586   3.843   4.541  10.648 -0.1277 -0.3282  0.2207
   19DT      C7  587   3.985   4.540  10.699 -0.1985 -0.3411  0.4191
   19DT     H71  588   3.985   4.482  10.791  0.5168 -2.9182 -1.1026
   19DT     H72  589   4.043   4.485  10.625 -0.3378  0.3868 -0.2451
   19DT     H73  590   4.021   4.639  10.725  0.6496  0.1447 -2.2658
   19DT      C4  591   3.781   4.419  10.602 -0.3292 -0.1528  0.0271
   19DT      O4  592   3.836   4.309  10.596  0.4416  0.2346 -0.0362
   19DT      N3  593   3.651   4.440  10.559 -0.0708 -0.0201 -0.6923
   19DT      H3  594   3.602   4.354  10.539 -0.5909 -0.1152  0.8949
   19DT      C2  595   3.580   4.560  10.555  0.0489  0.0651 -0.2948
   19DT      O2  596   3.462   4.564  10.520  0.0010  0.7682 -0.0486
   19DT     C3'  597   3.556   5.013  10.694 -0.1378 -0.2701  0.3336
   19DT     H3'  598   3.595   5.071  10.778 -2.0108  1.1677  0.2773
   19DT     C2'  599   3.561   4.864  10.727 -0.3626 -0.4667 -0.4978
   19DT    H2'1  600   3.649   4.831  10.782  0.3252  3.2969  1.0373
   19DT    H2'2  601   3.464   4.833  10.767 -1.1826  0.4372 -1.6880
   19DT     O3'  602   3.422   5.045  10.666  0.0049  0.1195  0.0808
   20DC       P  603   3.309   5.070  10.779  0.0854  0.0118  0.1850
   20DC     O1P  604   3.232   5.190  10.740  0.2737 -0.1189 -0.6034
   20DC     O2P  605   3.379   5.077  10.909  0.4971 -0.4546 -0.0045
   20DC     O5'  606   3.223   4.934  10.785  0.0481  0.0389  0.2666
   20DC     C5'  607   3.133   4.907  10.680  0.0678  0.0009  0.2592
   20DC    H5'1  608   3.185   4.904  10.585  0.1738  1.1128  0.2769
   20DC    H5'2  609   3.063   4.990  10.674  0.7288  0.5964  0.6330
   20DC     C4'  610   3.047   4.782  10.698  0.0154 -0.0046 -0.0294
   20DC     H4'  611   2.962   4.794  10.630 -2.3800  0.4549  2.8305
   20DC     O4'  612   3.129   4.668  10.682  0.1460  0.1020 -0.1173
   20DC     C1'  613   3.114   4.586  10.796  0.2606  0.2980  0.0413
   20DC     H1'  614   3.032   4.518  10.771  0.7684  0.1429 -1.3298
   20DC      N1  615   3.242   4.513  10.807  0.0667 -0.1115 -0.3556
   20DC      C6  616   3.355   4.572  10.856  0.2439 -0.2929 -0.5448
   20DC      H6  617   3.348   4.676  10.883  0.9819 -0.6073  0.9807
   20DC      C5  618   3.469   4.502  10.871  0.1193 -0.3451  0.1987
   20DC      H5  619   3.564   4.544  10.902  0.1816  0.6386 -1.2238
   20DC      C4  620   3.465   4.369  10.816 -0.0605 -0.5716  0.7485
   20DC      N4  621   3.581   4.302  10.818  0.3934  0.1330 -0.3784
   20DC     H41  622   3.662   4.345  10.860 -0.0620  0.7147 -0.0782
   20DC     H42  623   3.573   4.201  10.811 -0.1442  0.2250 -1.1682
   20DC      N3  624   3.352   4.304  10.784  0.0499 -0.4188  0.0182
   20DC      C2  625   3.238   4.377  10.782  0.1085 -0.2994  0.5955
   20DC      O2  626   3.136   4.316  10.748 -0.0917  0.4192 -0.1406
   20DC     C3'  627   2.977   4.784  10.834  0.2700  0.3619  0.0971
   20DC     H3'  628   2.960   4.883  10.875 -1.9259  0.7656 -1.6301
   20DC     C2'  629   3.072   4.686  10.903  0.3477  0.3731  0.0056
   20DC    H2'1  630   3.154   4.731  10.958 -0.4251  0.1760  1.3607
   20DC    H2'2  631   3.018   4.641  10.986  0.3009 -0.2842 -0.3741
   20DC     O3'  632   2.856   4.718  10.807  0.0439  0.5642  0.6096
   21DT       P  633   2.759   4.660  10.922 -0.5546  0.4267  0.0425
   21DT     O1P  634   2.622   4.670  10.865 -0.9522  0.6467  1.0176
   21DT     O2P  635   2.793   4.718  11.054 -0.2242 -0.1394  0.2086
   21DT     O5'  636   2.798   4.505  10.932 -0.6834  0.3954  0.0606
   21DT     C5'  637   2.742   4.403  10.852 -0.6191  0.1515  0.3217
   21DT    H5'1  638   2.788   4.409  10.753 -0.7067 -0.4366  0.2433
   21DT    H5'2  639   2.633   4.407  10.850 -0.6453 -0.6031 -1.0776
   21DT     C4'  640   2.773   4.267  10.913  0.1249  0.1210 -0.1114
   21DT     H4'  641   2.724   4.189  10.855  1.0351  0.1029 -0.8893
   21DT     O4'  642   2.913   4.246  10.912  0.1886  0.5144  0.3574
   21DT     C1'  643   2.942   4.189  11.037 -0.0762  0.0001  0.1858
   21DT     H1'  644   2.918   4.084  11.019  0.7867 -0.1558 -0.0856
   21DT      N1  645   3.086   4.200  11.063 -0.0688 -0.0428  0.1626
   21DT      C6  646   3.143   4.321  11.093 -0.3122 -0.0465  0.6545
   21DT      H6  647   3.076   4.406  11.089 -0.4810 -0.1120  1.9218
   21DT      C5  648   3.271   4.329  11.134 -0.0660 -0.0623 -0.0843
   21DT      C7  649   3.316   4.463  11.187 -0.1648 -0.0529 -0.0241
   21DT     H71  650   3.321   4.455  11.296  2.2410  0.0738 -0.0694
   21DT     H72  651   3.412   4.494  11.147 -0.4188 -0.8873 -1.3139
   21DT     H73  652   3.245   4.543  11.163 -1.8760 -1.7879 -0.9894
   21DT      C4  653   3.356   4.213  11.146 -0.0020  0.0029  0.1000
   21DT      O4  654   3.470   4.210  11.191  0.0038  0.2188  0.1012
   21DT      N3  655   3.292   4.093  11.117 -0.1928  0.2178 -0.3749
   21DT      H3  656   3.342   4.007  11.100 -2.1686 -1.0757  0.0215
   21DT      C2  657   3.158   4.084  11.081 -0.5009 -0.2113  0.8493
   21DT      O2  658   3.108   3.973  11.067 -1.0908  0.1151  0.3704
   21DT     C3'  659   2.726   4.253  11.057 -0.0194 -0.2194 -0.1911
   21DT     H3'  660   2.659   4.334  11.086  0.5623  0.5315 -0.9001
   21DT     C2'  661   2.852   4.251  11.144 -0.2275 -0.0965  0.1153
   21DT    H2'1  662   2.880   4.352  11.173  1.7480 -0.6498  0.2637
   21DT    H2'2  663   2.839   4.189  11.232  1.8160  0.5246  0.9070
   21DT     O3'  664   2.646   4.137  11.069  0.2136 -0.3426  0.1954
   22DG       P  665   2.581   4.078  11.204  0.3001 -0.3101  0.2519
   22DG     O1P  666   2.475   3.985  11.161 -0.0710  0.2936 -0.1707
   22DG     O2P  667   2.538   4.196  11.283 -0.2251 -0.1872 -0.2054
   22DG     O5'  668   2.690   3.990  11.282  0.1089 -0.3523  0.4753
   22DG     C5'  669   2.711   3.856  11.241  0.4885 -0.1289 -0.0737
   22DG    H5'1  670   2.747   3.857  11.138  1.5255  0.1055  0.2707
   22DG    H5'2  671   2.618   3.801  11.236  0.8999 -0.9815  1.2264
   22DG     C4'  672   2.809   3.779  11.329  0.0504 -0.4271  0.1560
   22DG     H4'  673   2.822   3.679  11.286 -1.6502 -1.3430  1.6640
   22DG     O4'  674   2.936   3.839  11.318 -0.0434 -0.3087 -0.2923
   22DG     C1'  675   3.015   3.790  11.424  0.3362 -0.3591 -0.5955
   22DG     H1'  676   3.049   3.690  11.399  0.2512 -0.4576 -0.3183
   22DG      N9  677   3.137   3.868  11.453  0.0417 -0.0843 -0.0884
   22DG      C8  678   3.149   4.002  11.479 -0.0224 -0.1147  0.1025
   22DG      H8  679   3.065   4.066  11.462 -0.1817 -0.2072  0.5312
   22DG      N7  680   3.271   4.040  11.508 -0.1953 -0.1123  0.8478
   22DG      C5  681   3.342   3.921  11.515 -0.1528 -0.0999  0.6274
   22DG      C6  682   3.480   3.896  11.540 -0.0889 -0.0319  0.3444
   22DG      O6  683   3.570   3.977  11.563  0.2229 -0.2809  0.0107
   22DG      N1  684   3.510   3.761  11.535  0.4961  0.1083 -0.0280
   22DG      H1  685   3.607   3.733  11.531  0.2771 -0.5188 -2.0176
   22DG      C2  686   3.416   3.662  11.515  0.0914  0.4813  0.0021
   22DG      N2  687   3.471   3.544  11.481 -0.6955  0.0018  0.3506
   22DG     H21  688   3.565   3.527  11.514 -1.1728  1.6746  2.8418
   22DG     H22  689   3.415   3.465  11.454 -0.2108 -0.4190  0.5723
   22DG      N3  690   3.288   3.683  11.481  0.0622 -0.0314 -0.2149
   22DG      C4  691   3.260   3.815  11.485 -0.1549 -0.1031  0.6457
   22DG     C3'  692   2.790   3.751  11.477 -0.4688  0.0912  0.1915
   22DG     H3'  693   2.707   3.802  11.524 -1.0855 -2.0587  1.6228
   22DG     C2'  694   2.924   3.780  11.546  0.0857 -0.1594 -0.7652
   22DG    H2'1  695   2.915   3.881  11.587  2.7044 -0.0373 -0.3565
   22DG    H2'2  696   2.959   3.705  11.616 -1.2157 -0.8820 -0.8544
   22DG     O3'  697   2.751   3.616  11.487 -0.1232 -0.0224  0.0365
   23DC       P  698   2.717   3.542  11.626 -0.3199 -0.2136 -0.1103
   23DC     O1P  699   2.629   3.428  11.594  0.3972 -0.7541 -0.1789
   23DC     O2P  700   2.670   3.643  11.723 -0.1208 -0.1241 -0.1067
   23DC     O5'  701   2.845   3.473  11.696  0.1769  0.6657 -0.1429
   23DC     C5'  702   2.918   3.369  11.635 -0.0609 -0.0096  0.7113
   23DC    H5'1  703   2.935   3.387  11.529  4.6054  0.0191  1.2425
   23DC    H5'2  704   2.862   3.276  11.650 -0.3875  0.0153 -0.3264
   23DC     C4'  705   3.057   3.357  11.698  0.1133  0.0342  0.3372
   23DC     H4'  706   3.101   3.275  11.642  0.3592 -0.4041  1.1537
   23DC     O4'  707   3.131   3.477  11.691 -0.1481  0.2312  0.8928
   23DC     C1'  708   3.238   3.462  11.782  0.5539 -0.3069 -0.0084
   23DC     H1'  709   3.300   3.383  11.739 -1.1897 -1.9670  0.3686
   23DC      N1  710   3.320   3.580  11.814  0.1098  0.1156 -0.4012
   23DC      C6  711   3.259   3.701  11.801 -0.2650  0.0009  0.2159
   23DC      H6  712   3.154   3.703  11.779 -0.9223 -1.4358  2.8579
   23DC      C5  713   3.328   3.815  11.827  0.1247  0.0205 -0.8347
   23DC      H5  714   3.273   3.907  11.815  0.3663  0.3340  0.3555
   23DC      C4  715   3.466   3.800  11.860 -0.1387  0.5306  0.5468
   23DC      N4  716   3.543   3.904  11.895 -0.0821  0.5414  0.3903
   23DC     H41  717   3.508   3.998  11.894  1.5563  1.2331 -2.2801
   23DC     H42  718   3.641   3.883  11.909 -0.2750 -1.0026 -0.3327
   23DC      N3  719   3.524   3.680  11.871 -0.2120  0.4584  0.1412
   23DC      C2  720   3.450   3.567  11.862  0.1672  0.2538 -0.5181
   23DC      O2  721   3.497   3.458  11.895 -0.3759  0.3868  0.7392
   23DC     C3'  722   3.056   3.316  11.845  0.5315 -0.1282  0.2959
   23DC     H3'  723   2.959   3.343  11.888  0.1115  0.1278 -0.7834
   23DC     C2'  724   3.164   3.407  11.904 -0.0301  0.6862  0.0982
   23DC    H2'1  725   3.121   3.483  11.968  2.5124  1.0181  1.5200
   23DC    H2'2  726   3.236   3.347  11.961 -0.5261 -0.9704 -0.9391
   23DC     O3'  727   3.104   3.184  11.848  0.2496 -0.2495 -0.4322
   24DG       P  728   3.038   3.072  11.944  0.1755  0.0714 -0.1066
   24DG     O1P  729   3.023   2.946  11.868  0.3326  0.2381 -0.4189
   24DG     O2P  730   2.921   3.130  12.014  0.1068 -0.4693  0.2279
   24DG     O5'  731   3.147   3.054  12.061  0.2933 -0.2228 -0.2592
   24DG     C5'  732   3.267   2.994  12.020  0.2022 -0.4940 -0.1265
   24DG    H5'1  733   3.302   3.033  11.925  2.0985 -0.7199  0.4272
   24DG    H5'2  734   3.262   2.886  12.008 -0.2861 -0.7019  1.5672
   24DG     C4'  735   3.380   3.029  12.117  0.1100  0.5526 -0.3885
   24DG     H4'  736   3.454   2.952  12.095  0.6956  1.3363 -1.2014
   24DG     O4'  737   3.434   3.156  12.088 -0.1798  0.7085 -0.2553
   24DG     C1'  738   3.441   3.231  12.207 -0.2100 -0.0206  0.2157
   24DG     H1'  739   3.538   3.196  12.242 -0.2895  0.0064  0.4631
   24DG      N9  740   3.455   3.376  12.184  0.1765 -0.0423  0.3027
   24DG      C8  741   3.359   3.473  12.172 -0.1560 -0.3962  0.0875
   24DG      H8  742   3.255   3.444  12.158  0.1195 -0.5038 -2.0538
   24DG      N7  743   3.395   3.598  12.160  0.2656 -0.5151  0.1126
   24DG      C5  744   3.530   3.585  12.191  0.3735  0.2612 -0.0101
   24DG      C6  745   3.625   3.685  12.220  0.1057  0.4777  0.1258
   24DG      O6  746   3.612   3.806  12.238 -0.0263  0.5193 -0.2572
   24DG      N1  747   3.754   3.637  12.239 -0.0208  0.2136  0.3164
   24DG      H1  748   3.820   3.707  12.270  0.0365 -0.0081  0.6967
   24DG      C2  749   3.783   3.502  12.243 -0.0746  0.2054  0.4645
   24DG      N2  750   3.910   3.466  12.264 -0.1281  0.0203  0.4714
   24DG     H21  751   3.987   3.530  12.272  1.5766 -1.5020 -2.1756
   24DG     H22  752   3.921   3.367  12.249 -1.5273 -0.3317  1.5436
   24DG      N3  753   3.691   3.406  12.221  0.2083  0.0776 -0.2029
   24DG      C4  754   3.569   3.453  12.190  0.0290  0.1512  0.5960
   24DG     C3'  755   3.356   3.028  12.268  0.1831 -0.3127 -0.3800
   24DG     H3'  756   3.276   2.958  12.294  0.2180 -0.4524 -0.6402
   24DG     C2'  757   3.327   3.176  12.291 -0.4289 -0.4354 -0.3519
   24DG    H2'1  758   3.233   3.218  12.254 -1.1496 -1.2330  0.5100
   24DG    H2'2  759   3.351   3.198  12.395  2.6023  0.3573 -1.1348
   24DG     O3'  760   3.477   2.998  12.335  0.2016  0.2229 -0.1715
   25DC       P  761   3.509   2.858  12.406  0.0427  0.1532 -0.2366
   25DC     O1P  762   3.530   2.758  12.299  0.7106  0.2817 -0.2280
   25DC     O2P  763   3.405   2.831  12.508  0.4985 -0.6004  0.0397
   25DC     O5'  764   3.647   2.891  12.482 -0.0212 -0.8635  0.3528
   25DC     C5'  765   3.770   2.886  12.412 -0.2224 -0.2355 -0.0596
   25DC    H5'1  766   3.763   2.905  12.305  2.9095 -0.8235 -0.4505
   25DC    H5'2  767   3.811   2.785  12.420 -0.3549 -0.1910  1.5535
   25DC     C4'  768   3.874   2.985  12.464 -0.2537 -0.2070 -0.0513
   25DC     H4'  769   3.967   2.956  12.416  0.4489  0.8121  0.6443
   25DC     O4'  770   3.841   3.117  12.429 -0.1642 -0.2232 -0.1957
   25DC     C1'  771   3.865   3.201  12.540  0.5760 -0.2246 -0.3507
   25DC     H1'  772   3.972   3.221  12.553  0.5646  0.6813 -1.4211
   25DC      N1  773   3.784   3.325  12.546  0.3161 -0.4223  0.3157
   25DC      C6  774   3.648   3.321  12.541  0.2956  0.3494  0.1579
   25DC      H6  775   3.600   3.226  12.521  0.7737 -0.3902  2.2713
   25DC      C5  776   3.571   3.431  12.552  0.0506  0.1968 -0.0158
   25DC      H5  777   3.464   3.426  12.537 -0.1880 -0.4128  1.6407
   25DC      C4  778   3.640   3.551  12.587 -0.1574  0.4742 -0.5356
   25DC      N4  779   3.569   3.664  12.591 -0.1744  0.4475  0.1912
   25DC     H41  780   3.469   3.652  12.597 -0.0039 -0.4131  1.9299
   25DC     H42  781   3.618   3.753  12.593  2.5885 -0.9670 -0.2142
   25DC      N3  782   3.772   3.553  12.612 -0.2710  0.0807  0.1458
   25DC      C2  783   3.844   3.439  12.594 -0.2820  0.1316 -0.2390
   25DC      O2  784   3.962   3.442  12.629 -0.5723 -0.2377  0.7931
   25DC     C3'  785   3.884   2.976  12.616 -0.0956 -0.7346 -0.0897
   25DC     H3'  786   3.838   2.895  12.673 -1.0075  1.5400  2.6506
   25DC     C2'  787   3.832   3.113  12.660  0.3455 -0.4162 -0.5552
   25DC    H2'1  788   3.725   3.113  12.684  0.1226 -0.6606 -1.4995
   25DC    H2'2  789   3.892   3.147  12.744 -0.3359 -0.6321  0.0290
   25DC     O3'  790   4.019   2.969  12.656 -0.1853 -0.0597  0.3448
   25DC     H3T  791   4.021   2.946  12.749  1.3482  0.8041  0.5602
   26G      O5'  792   4.093   4.429   0.184 -0.0101  0.1468 -0.2581
   26G      H5T  793   4.106   4.392   0.097  2.9123  0.6176 -0.1294
   26G      C5'  794   4.219   4.478   0.224 -0.0817 -0.2086  0.4199
   26G     H5'1  795   4.204   4.562   0.290 -1.0772 -0.4307  0.4849
   26G     H5'2  796   4.283   4.511   0.142 -0.8425 -0.0341 -0.1135
   26G      C4'  797   4.292   4.365   0.296  0.2068 -0.2410  0.0837
   26G      H4'  798   4.378   4.413   0.343  0.7973 -1.7337  0.5880
   26G      O4'  799   4.226   4.303   0.405  0.2374 -0.7278 -0.1735
   26G      C1'  800   4.234   4.164   0.388  0.0274 -0.7787  0.1379
   26G      H1'  801   4.252   4.126   0.488 -0.1175  0.7347  0.7579
   26G       N9  802   4.104   4.118   0.336 -0.1804  0.7893 -0.7839
   26G       C8  803   3.988   4.189   0.354 -0.3638  0.2040  0.4278
   26G       H8  804   3.996   4.281   0.410  2.4223  0.9312 -0.9495
   26G       N7  805   3.879   4.129   0.315 -0.1258 -0.2246  0.4139
   26G       C5  806   3.927   4.006   0.272  0.0623 -0.0830  0.2126
   26G       C6  807   3.864   3.897   0.205  0.4783  0.1422 -0.5649
   26G       O6  808   3.748   3.882   0.168  0.2960  0.0687  0.0228
   26G       N1  809   3.944   3.785   0.189 -0.1032 -0.3746  0.1085
   26G       H1  810   3.901   3.702   0.150  0.3000 -3.3432  5.1209
   26G       C2  811   4.077   3.783   0.226 -0.0311 -0.0684 -0.1335
   26G       N2  812   4.144   3.669   0.207  0.9176  0.4743 -0.1044
   26G      H21  813   4.099   3.583   0.179 -0.6569  1.4752 -0.8008
   26G      H22  814   4.236   3.664   0.248  1.0480  1.1633 -0.2983
   26G       N3  815   4.142   3.886   0.282 -0.5215 -0.0980  0.5066
   26G       C4  816   4.061   3.993   0.298 -0.0356  0.2188  0.8677
   26G      C3'  817   4.334   4.256   0.198  0.1360 -0.2446  0.0582
   26G      H3'  818   4.264   4.222   0.122  1.8526 -2.5492 -0.5875
   26G      C2'  819   4.350   4.137   0.292  0.2114 -0.1433  0.1750
   26G     H2'1  820   4.355   4.041   0.238  4.1769  0.3446 -0.6120
   26G      O2'  821   4.467   4.144   0.370  0.1989 -0.1499  0.1939
   26G     HO'2  822   4.509   4.225   0.339  2.0333 -0.9502  0.4652
   26G      O3'  823   4.462   4.291   0.152  0.0027  0.0439 -0.0980
   27C        P  824   4.511   4.262   0.001  0.1713 -0.1801 -0.0010
   27C      O1P  825   4.655   4.297  -0.002  0.2452 -0.5103 -0.3849
   27C      O2P  826   4.422   4.332  -0.094  0.1265 -0.1273  0.0804
   27C      O5'  827   4.502   4.106  -0.038 -0.1038  0.0150 -0.7311
   27C      C5'  828   4.582   4.012   0.030 -0.5856  0.4028  0.4079
   27C     H5'1  829   4.577   4.020   0.138 -1.4471 -1.4180  0.5401
   27C     H5'2  830   4.685   4.033  -0.000 -0.9215 -0.7649 -1.7813
   27C      C4'  831   4.530   3.875  -0.013 -0.1290  0.2657  0.2826
   27C      H4'  832   4.600   3.800   0.023  0.1514 -0.3607 -1.4707
   27C      O4'  833   4.401   3.853   0.039 -0.1267  0.1325  0.2324
   27C      C1'  834   4.328   3.770  -0.049  0.1800  0.2920 -0.1693
   27C      H1'  835   4.303   3.675  -0.003 -0.2816  0.7938  0.6232
   27C       N1  836   4.207   3.839  -0.098 -0.0713 -0.2313 -0.2852
   27C       C6  837   4.195   3.975  -0.103 -0.2135 -0.2195  0.3620
   27C       H6  838   4.278   4.036  -0.072  0.7985 -1.3402 -0.0449
   27C       C5  839   4.083   4.030  -0.154  0.3128 -0.2730 -0.8975
   27C       H5  840   4.073   4.136  -0.172  1.0447 -0.0441 -0.0240
   27C       C4  841   3.978   3.940  -0.191  0.1694 -0.3564 -0.2999
   27C       N4  842   3.864   3.987  -0.243  0.1713 -0.3460 -0.2943
   27C      H41  843   3.843   4.086  -0.246  1.0244 -0.1691 -0.5369
   27C      H42  844   3.794   3.919  -0.271 -1.7651  1.4001  0.0733
   27C       N3  845   3.984   3.807  -0.189 -0.7610 -0.4032  0.8682
   27C       C2  846   4.101   3.759  -0.139 -0.3778 -0.1076  0.2683
   27C       O2  847   4.101   3.637  -0.122 -0.1725 -0.1496 -0.0317
   27C      C3'  848   4.514   3.865  -0.164  0.1509  0.0855  0.2635
   27C      H3'  849   4.471   3.954  -0.210  0.8964 -0.5555 -1.7685
   27C      C2'  850   4.421   3.744  -0.168 -0.1478  0.3311 -0.4370
   27C     H2'1  851   4.356   3.741  -0.255 -1.2657  0.8905  0.3492
   27C      O2'  852   4.478   3.616  -0.152 -0.5251  0.2325  0.1811
   27C     HO'2  853   4.460   3.570  -0.235  1.2205  1.1951 -0.8108
   27C      O3'  854   4.631   3.835  -0.236  0.0391  0.4647 -0.0789
   28G        P  855   4.641   3.878  -0.391 -0.1358  0.4059 -0.1061
   28G      O1P  856   4.782   3.866  -0.434 -0.1418  0.2257 -0.0767
   28G      O2P  857   4.569   4.007  -0.401 -0.0311  0.4685 -0.0622
   28G      O5'  858   4.557   3.759  -0.458 -0.0335  0.3936 -0.2125
   28G      C5'  859   4.607   3.627  -0.465 -0.4002  0.1960  0.7602
   28G     H5'1  860   4.663   3.606  -0.374  1.2538  2.2204  0.2901
   28G     H5'2  861   4.680   3.621  -0.545 -2.0717 -0.6147 -0.7936
   28G      C4'  862   4.503   3.517  -0.487 -0.0842  0.0482 -0.0387
   28G      H4'  863   4.557   3.422  -0.487  0.4289  0.3361  0.4231
   28G      O4'  864   4.400   3.524  -0.390 -0.0989 -0.4965 -0.0124
   28G      C1'  865   4.281   3.497  -0.460  0.0187  0.1400 -0.4679
   28G      H1'  866   4.222   3.433  -0.394  0.1470  1.6379  1.1936
   28G       N9  867   4.197   3.615  -0.487 -0.3033  0.0987  0.3330
   28G       C8  868   4.227   3.749  -0.481  0.1433  0.0009  0.3237
   28G       H8  869   4.330   3.777  -0.463 -0.0289 -1.3307  4.4406
   28G       N7  870   4.123   3.828  -0.487  0.2133  0.0300 -0.7896
   28G       C5  871   4.017   3.740  -0.505  0.0791 -0.0273  0.2185
   28G       C6  872   3.878   3.764  -0.520  0.1679  0.1781 -0.2836
   28G       O6  873   3.818   3.871  -0.527  0.3089  0.2662 -0.1566
   28G       N1  874   3.801   3.653  -0.551  0.2906 -0.0029  0.0599
   28G       H1  875   3.703   3.662  -0.570  0.1380 -1.3562  0.1080
   28G       C2  876   3.858   3.528  -0.570 -0.4894 -0.2396 -0.7820
   28G       N2  877   3.776   3.427  -0.604  0.0455 -0.9630  0.0357
   28G      H21  878   3.676   3.433  -0.598  0.0938 -0.6755  0.6344
   28G      H22  879   3.816   3.336  -0.587  0.4589 -0.2446  3.8224
   28G       N3  880   3.988   3.504  -0.549 -0.5439  0.0830 -0.0494
   28G       C4  881   4.065   3.613  -0.524 -0.2832 -0.1732  0.2784
   28G      C3'  882   4.443   3.529  -0.627  0.1503  0.4012 -0.1106
   28G      H3'  883   4.441   3.636  -0.643  1.2558  0.4321 -0.1628
   28G      C2'  884   4.317   3.448  -0.600  0.2730  0.1147 -0.3932
   28G     H2'1  885   4.234   3.466  -0.668 -0.1927  1.6340  0.5277
   28G      O2'  886   4.342   3.309  -0.592 -0.1885  0.0697  0.3737
   28G     HO'2  887   4.407   3.297  -0.661 -1.4435  0.7290 -0.9754
   28G      O3'  888   4.517   3.461  -0.726 -0.1446  0.1774 -0.1794
   29C        P  889   4.514   3.506  -0.880  0.2971 -0.0464 -0.2560
   29C      O1P  890   4.613   3.425  -0.954  0.2147 -0.2663 -0.1242
   29C      O2P  891   4.517   3.654  -0.887 -0.0629  0.0134  0.6994
   29C      O5'  892   4.367   3.455  -0.921  0.1899  0.1987 -0.1756
   29C      C5'  893   4.332   3.320  -0.936 -0.0840  0.2839 -0.3194
   29C     H5'1  894   4.380   3.261  -0.858 -0.7199 -3.1535 -2.2988
   29C     H5'2  895   4.380   3.296  -1.031  0.6444  0.5898 -0.0343
   29C      C4'  896   4.184   3.284  -0.948  0.0327 -0.3791  0.1989
   29C      H4'  897   4.174   3.176  -0.962  0.1394 -0.3093 -0.4074
   29C      O4'  898   4.107   3.323  -0.837  0.2474 -0.2760  0.3113
   29C      C1'  899   3.980   3.361  -0.884  0.4073 -0.2179 -0.0719
   29C      H1'  900   3.910   3.302  -0.825  1.0022 -0.2117  0.6533
   29C       N1  901   3.945   3.504  -0.882  0.3512 -0.2331  0.0144
   29C       C6  902   4.043   3.597  -0.858  0.4593 -0.0499 -1.0725
   29C       H6  903   4.141   3.558  -0.835 -0.7055 -2.1103  0.7804
   29C       C5  904   4.022   3.730  -0.856  0.2964 -0.0823 -0.4398
   29C       H5  905   4.095   3.807  -0.834 -0.3477  0.3536  0.2187
   29C       C4  906   3.886   3.761  -0.889  0.1345 -0.3624 -0.0486
   29C       N4  907   3.843   3.882  -0.852  0.2108 -0.3726  0.0744
   29C      H41  908   3.915   3.944  -0.818  1.6559 -2.4878  1.0781
   29C      H42  909   3.746   3.912  -0.857  0.3291  0.2496  1.1466
   29C       N3  910   3.788   3.674  -0.915 -0.0169 -0.3317  0.4162
   29C       C2  911   3.817   3.542  -0.918  0.0827 -0.3224  0.8581
   29C       O2  912   3.731   3.462  -0.957  0.3721 -0.3137  0.1790
   29C      C3'  913   4.111   3.336  -1.071  0.0435  0.2058  0.4402
   29C      H3'  914   4.126   3.441  -1.099 -0.8649 -0.2225 -1.8970
   29C      C2'  915   3.965   3.316  -1.029 -0.1511  0.3027 -0.1825
   29C     H2'1  916   3.897   3.376  -1.089 -0.5298 -0.0176 -0.0761
   29C      O2'  917   3.936   3.178  -1.035  0.2792  0.2135 -0.2998
   29C     HO'2  918   3.910   3.163  -1.127  1.3991 -0.3415 -0.5477
   29C      O3'  919   4.147   3.267  -1.188  0.6301  0.6244  0.3704
   30A        P  920   4.118   3.329  -1.334 -0.3951 -0.1190  0.2530
   30A      O1P  921   4.175   3.238  -1.436 -0.8242 -0.1102  0.0025
   30A      O2P  922   4.155   3.472  -1.334  0.0023 -0.2209  0.4924
   30A      O5'  923   3.957   3.318  -1.338 -0.3959  0.1552 -0.7620
   30A      C5'  924   3.889   3.198  -1.365 -0.3015 -0.1464  0.2947
   30A     H5'1  925   3.924   3.126  -1.291 -1.3341  1.4495  2.4807
   30A     H5'2  926   3.925   3.171  -1.464 -1.7991 -0.4201 -0.2112
   30A      C4'  927   3.736   3.204  -1.362 -0.3222 -0.5253  0.0576
   30A      H4'  928   3.699   3.105  -1.337  0.4798 -0.7660  0.3080
   30A      O4'  929   3.690   3.277  -1.250 -0.2648 -0.7043  0.1966
   30A      C1'  930   3.580   3.358  -1.283  0.3747  0.0042 -0.2308
   30A      H1'  931   3.501   3.341  -1.210 -0.1527 -1.8174 -1.1690
   30A       N9  932   3.612   3.502  -1.286  0.0668  0.0909  0.2835
   30A       C8  933   3.739   3.555  -1.288 -0.1142  0.5404  0.6988
   30A       H8  934   3.827   3.495  -1.273  1.3390  2.2881 -0.2660
   30A       N7  935   3.744   3.686  -1.288 -0.3154  0.5702 -0.8784
   30A       C5  936   3.609   3.717  -1.282 -0.2798  0.5586  0.1517
   30A       C6  937   3.543   3.841  -1.278 -0.1236  0.6358  0.3714
   30A       N6  938   3.596   3.964  -1.277  0.2971  0.4593  0.0863
   30A      H61  939   3.696   3.958  -1.269  0.1232 -1.9406  1.3030
   30A      H62  940   3.542   4.050  -1.278  0.7585  0.7615  0.4841
   30A       N1  941   3.411   3.850  -1.299 -0.1362 -0.2434  0.0216
   30A       C2  942   3.340   3.739  -1.306 -0.2724 -0.2048  0.6759
   30A       H2  943   3.232   3.742  -1.313 -0.3257 -1.3254  0.8447
   30A       N3  944   3.392   3.617  -1.313  0.2930  0.0729 -0.0833
   30A       C4  945   3.527   3.609  -1.300  0.3618  0.2092 -0.6956
   30A      C3'  946   3.662   3.261  -1.483  0.1553  0.1838  0.0890
   30A      H3'  947   3.705   3.351  -1.527  1.4652 -0.4150  0.0765
   30A      C2'  948   3.533   3.309  -1.419  0.0987  0.6742 -0.3836
   30A     H2'1  949   3.485   3.391  -1.472  0.7499  1.9487  0.9322
   30A      O2'  950   3.436   3.209  -1.394  0.3748  0.5289  0.1244
   30A     HO'2  951   3.350   3.251  -1.391  0.7086  1.3248 -0.8700
   30A      O3'  952   3.655   3.162  -1.583 -0.2736  0.3234 -0.0188
   31G        P  953   3.634   3.195  -1.740  0.3886 -0.1519 -0.2132
   31G      O1P  954   3.607   3.065  -1.807  0.2907 -0.3310  0.1692
   31G      O2P  955   3.742   3.275  -1.800  0.1261  0.3000 -0.0829
   31G      O5'  956   3.495   3.276  -1.743  0.3846 -0.1531 -0.0842
   31G      C5'  957   3.372   3.209  -1.727 -0.0299  0.6313  0.0471
   31G     H5'1  958   3.361   3.171  -1.626  0.4689  2.8849  1.0009
   31G     H5'2  959   3.358   3.130  -1.801  0.2519  1.1516 -0.5806
   31G      C4'  960   3.251   3.302  -1.729 -0.3318  0.2367  0.0050
   31G      H4'  961   3.161   3.240  -1.723 -1.2059  1.6154  3.3858
   31G      O4'  962   3.254   3.390  -1.619 -0.1500  0.2409 -0.0040
   31G      C1'  963   3.220   3.521  -1.659  0.2573  0.2562 -0.3080
   31G      H1'  964   3.138   3.557  -1.597 -0.9533  0.5828 -2.0405
   31G       N9  965   3.333   3.616  -1.656  0.6078 -0.1466 -0.5648
   31G       C8  966   3.467   3.596  -1.638  0.4660 -0.2008  0.4481
   31G       H8  967   3.509   3.497  -1.624 -2.2225 -1.7837 -1.7143
   31G       N7  968   3.541   3.703  -1.650 -0.0149  0.0619 -0.2145
   31G       C5  969   3.445   3.801  -1.672 -0.1095  0.0245  0.0352
   31G       C6  970   3.468   3.940  -1.686 -0.1884 -0.0086 -0.4152
   31G       O6  971   3.576   3.998  -1.681 -0.1698 -0.0835  0.0396
   31G       N1  972   3.352   4.011  -1.715 -0.0523  0.1656 -0.5346
   31G       H1  973   3.367   4.111  -1.718  0.1908  0.1151 -1.4682
   31G       C2  974   3.227   3.952  -1.707  0.0324  0.1132  0.4988
   31G       N2  975   3.118   4.030  -1.704  0.0706  0.1794  0.1604
   31G      H21  976   3.120   4.130  -1.704 -1.7312  0.2767  1.7496
   31G      H22  977   3.031   3.978  -1.712  0.3916 -0.1939 -1.4401
   31G       N3  978   3.204   3.821  -1.697  0.0953  0.0422 -0.2471
   31G       C4  979   3.319   3.749  -1.688 -0.0134 -0.1280 -0.2250
   31G      C3'  980   3.253   3.393  -1.851 -0.3051 -0.2210 -0.3383
   31G      H3'  981   3.356   3.427  -1.865  0.8507 -2.7605  1.3222
   31G      C2'  982   3.171   3.512  -1.803 -0.0374 -0.0970 -0.1865
   31G     H2'1  983   3.187   3.602  -1.862  0.3868  0.4864  0.7905
   31G      O2'  984   3.034   3.484  -1.784  0.0066 -0.1680  0.0379
   31G     HO'2  985   2.981   3.563  -1.800 -1.1944 -0.6237  1.5032
   31G      O3'  986   3.195   3.337  -1.967 -0.3003 -0.1207 -0.3887
   32A        P  987   3.230   3.396  -2.113  0.0329  0.2177 -0.1762
   32A      O1P  988   3.163   3.303  -2.207 -0.1962  0.3525 -0.1475
   32A      O2P  989   3.374   3.426  -2.114  0.1028 -0.1004  0.0530
   32A      O5'  990   3.159   3.540  -2.123 -0.0838  0.1519 -0.3220
   32A      C5'  991   3.020   3.559  -2.110 -0.0872 -0.0452 -0.0555
   32A     H5'1  992   2.984   3.504  -2.023 -2.5456  1.2683 -0.1618
   32A     H5'2  993   2.974   3.537  -2.207  1.5580  0.0864 -0.9123
   32A      C4'  994   2.988   3.707  -2.095 -0.5203 -0.1083 -0.3385
   32A      H4'  995   2.883   3.729  -2.075 -0.9871 -1.3711 -1.2532
   32A      O4'  996   3.063   3.762  -1.990 -0.1108 -0.2162 -0.5726
   32A      C1'  997   3.101   3.892  -2.029  0.1613 -0.2065 -0.2906
   32A      H1'  998   3.066   3.970  -1.961 -1.9822 -1.6821  0.4011
   32A       N9  999   3.247   3.901  -2.045  0.1330  0.1146 -0.3892
   32A       C8 1000   3.340   3.801  -2.026  0.2870  0.2682 -0.3329
   32A       H8 1001   3.307   3.699  -2.018 -0.8229  0.6281 -0.0216
   32A       N7 1002   3.463   3.843  -2.025  0.2893  0.2484  0.4383
   32A       C5 1003   3.450   3.982  -2.024  0.1275  0.2378 -0.2474
   32A       C6 1004   3.540   4.085  -1.995  0.2820 -0.0431  0.2752
   32A       N6 1005   3.674   4.075  -1.992  0.3133  0.3484  0.1790
   32A      H61 1006   3.715   3.983  -1.996  0.2066  0.2119  1.7067
   32A      H62 1007   3.729   4.157  -1.971  0.4901  0.4580 -0.6724
   32A       N1 1008   3.491   4.207  -1.974 -0.3351 -0.2505  0.0492
   32A       C2 1009   3.360   4.230  -1.979 -0.2199  0.4666  0.1245
   32A       H2 1010   3.324   4.331  -1.966 -1.6138  0.2007 -1.3804
   32A       N3 1011   3.267   4.140  -2.007  0.1681  0.1711 -0.2394
   32A       C4 1012   3.318   4.018  -2.035  0.0900  0.1232 -0.1754
   32A      C3' 1013   3.028   3.786  -2.220  0.3767  0.1706  0.1145
   32A      H3' 1014   3.127   3.756  -2.253 -0.5757 -0.9228 -1.9582
   32A      C2' 1015   3.032   3.927  -2.161 -0.3662  0.2067  0.0891
   32A     H2'1 1016   3.096   3.995  -2.216  0.7056  0.1102  1.1863
   32A      O2' 1017   2.904   3.977  -2.130 -0.4233 -0.0816  0.3272
   32A     HO'2 1018   2.895   4.070  -2.153  0.2815 -0.0040  0.3656
   32A      O3' 1019   2.932   3.769  -2.322  0.4301 -0.1081  0.1105
   33U        P 1020   2.980   3.761  -2.476  0.1123  0.0803  0.0012
   33U      O1P 1021   2.862   3.729  -2.560  0.2337 -0.0210 -0.1299
   33U      O2P 1022   3.099   3.675  -2.492 -0.1446 -0.2515 -0.1685
   33U      O5' 1023   3.024   3.908  -2.522 -0.0864  0.0696 -0.2283
   33U      C5' 1024   2.927   4.010  -2.535 -0.6039 -0.3695  0.1433
   33U     H5'1 1025   2.839   3.993  -2.473  0.3013 -1.1119  1.2685
   33U     H5'2 1026   2.877   4.001  -2.631  0.4365 -0.6091 -0.3935
   33U      C4' 1027   2.988   4.149  -2.521  0.3919 -0.7427 -0.3986
   33U      H4' 1028   2.899   4.211  -2.514  0.2421 -0.9890 -0.1319
   33U      O4' 1029   3.052   4.164  -2.396  0.0870 -0.1792 -0.3098
   33U      C1' 1030   3.157   4.257  -2.402 -0.1195  0.1147  0.5133
   33U      H1' 1031   3.141   4.336  -2.328 -3.1170  0.8456 -0.7799
   33U       N1 1032   3.288   4.195  -2.373  0.2462  0.2887 -0.7191
   33U       C6 1033   3.320   4.064  -2.391 -0.5208 -0.0542  0.3045
   33U       H6 1034   3.250   3.994  -2.434 -0.2091  0.2279 -0.6921
   33U       C5 1035   3.445   4.021  -2.366 -0.2586  0.3788 -0.2513
   33U       H5 1036   3.463   3.915  -2.380 -1.4678  0.2023 -0.5165
   33U       C4 1037   3.554   4.104  -2.319 -0.2812  0.2115  0.0974
   33U       O4 1038   3.668   4.063  -2.301 -0.1047  0.0425 -1.2743
   33U       N3 1039   3.515   4.237  -2.313 -0.1009  0.2554  0.2977
   33U       H3 1040   3.572   4.305  -2.265 -0.5421  1.3657 -0.7193
   33U       C2 1041   3.385   4.283  -2.327 -0.0145  0.3343 -0.2522
   33U       O2 1042   3.365   4.403  -2.309  0.2517  0.2985  0.3128
   33U      C3' 1043   3.087   4.199  -2.626  0.0847  0.1212 -0.2810
   33U      H3' 1044   3.149   4.113  -2.651 -2.4500 -2.1672  0.8114
   33U      C2' 1045   3.155   4.309  -2.545 -0.2220 -0.1880  0.4038
   33U     H2'1 1046   3.256   4.317  -2.587 -0.0671 -2.9968  0.0802
   33U      O2' 1047   3.094   4.436  -2.546 -0.3665 -0.2597  0.1072
   33U     HO'2 1048   3.162   4.502  -2.531  0.5490 -0.9123 -1.0039
   33U      O3' 1049   3.019   4.242  -2.742 -0.5186 -0.1537 -0.0325
   34G        P 1050   3.096   4.269  -2.881 -0.0662  0.1675  0.2801
   34G      O1P 1051   2.993   4.313  -2.978  0.6504 -0.3760 -0.7431
   34G      O2P 1052   3.185   4.156  -2.914  0.2422  0.6539 -0.5807
   34G      O5' 1053   3.198   4.392  -2.858 -0.1226  0.1891  0.4150
   34G      C5' 1054   3.153   4.525  -2.847 -0.6041  0.1123 -0.5316
   34G     H5'1 1055   3.065   4.524  -2.783 -0.0343  1.0218  0.2906
   34G     H5'2 1056   3.102   4.544  -2.942 -0.9182 -2.6246 -0.9698
   34G      C4' 1057   3.260   4.624  -2.801 -0.4878 -0.1717 -0.1916
   34G      H4' 1058   3.217   4.724  -2.799 -2.5247 -1.0043 -0.6148
   34G      O4' 1059   3.311   4.598  -2.672  0.2555 -0.2238 -0.4886
   34G      C1' 1060   3.445   4.640  -2.660  0.0138  0.3475  0.2344
   34G      H1' 1061   3.454   4.717  -2.582 -4.3374  1.1579  0.2294
   34G       N9 1062   3.524   4.518  -2.638  0.1143  0.3744  0.0224
   34G       C8 1063   3.492   4.387  -2.664 -0.2328  0.4457  0.0769
   34G       H8 1064   3.401   4.356  -2.711 -0.0234  0.1496 -0.1410
   34G       N7 1065   3.582   4.307  -2.613 -0.1056  0.6324  0.1434
   34G       C5 1066   3.691   4.390  -2.583 -0.0074  0.5219  0.0920
   34G       C6 1067   3.822   4.364  -2.536 -0.1092  0.0042  0.1005
   34G       O6 1068   3.873   4.254  -2.517 -0.1920  0.0301  0.4734
   34G       N1 1069   3.907   4.473  -2.523  0.0472 -0.1053  0.0035
   34G       H1 1070   3.998   4.465  -2.480 -0.2660  0.6752  0.8430
   34G       C2 1071   3.862   4.600  -2.553 -0.0879 -0.0840  0.3058
   34G       N2 1072   3.946   4.700  -2.526  0.2296 -0.1701 -0.3529
   34G      H21 1073   4.036   4.676  -2.486 -0.5038 -1.5415  0.5689
   34G      H22 1074   3.923   4.799  -2.526  0.9772  0.0265  0.5498
   34G       N3 1075   3.735   4.629  -2.584  0.1915  0.5095 -0.3080
   34G       C4 1076   3.658   4.520  -2.609  0.1634  0.5065 -0.2105
   34G      C3' 1077   3.388   4.637  -2.884 -0.0534 -0.1193  0.4747
   34G      H3' 1078   3.431   4.541  -2.911  0.8466 -0.2828  2.3325
   34G      C2' 1079   3.480   4.713  -2.789 -0.1802  0.3800  0.1997
   34G     H2'1 1080   3.584   4.693  -2.813  0.1234 -2.2532  3.0765
   34G      O2' 1081   3.447   4.849  -2.772  0.0733  0.4601  0.0446
   34G     HO'2 1082   3.517   4.887  -2.718 -2.5004 -0.2798  4.3102
   34G      O3' 1083   3.340   4.709  -2.996  0.2629 -0.0645  0.3746
   35C        P 1084   3.424   4.709  -3.133 -0.0748  0.1320  0.1662
   35C      O1P 1085   3.375   4.814  -3.224  0.1822 -0.0354 -0.1696
   35C      O2P 1086   3.427   4.570  -3.184 -0.5353  0.1046  0.2059
   35C      O5' 1087   3.570   4.758  -3.086 -0.0536  0.4015 -0.1773
   35C      C5' 1088   3.619   4.890  -3.075  0.5800  0.1574 -0.0379
   35C     H5'1 1089   3.557   4.949  -3.008  0.2096  0.6226 -0.7792
   35C     H5'2 1090   3.614   4.934  -3.174  1.3049 -0.0646 -0.1770
   35C      C4' 1091   3.765   4.889  -3.030  0.5142  0.2480  0.1793
   35C      H4' 1092   3.792   4.994  -3.018 -0.8805  0.5707  0.6918
   35C      O4' 1093   3.792   4.832  -2.904  0.0138 -0.3306  0.0269
   35C      C1' 1094   3.909   4.753  -2.908  0.4701  0.3481 -0.1975
   35C      H1' 1095   3.971   4.781  -2.823 -0.8635  0.7279  0.6905
   35C       N1 1096   3.901   4.606  -2.918  0.4602  0.3374 -0.0322
   35C       C6 1097   3.784   4.541  -2.945  0.1286  0.6357  0.6665
   35C       H6 1098   3.699   4.596  -2.984 -1.0069 -1.8097 -0.5537
   35C       C5 1099   3.774   4.409  -2.922 -0.1812  0.4776 -0.3407
   35C       H5 1100   3.679   4.360  -2.936 -0.7808  0.8246  2.0209
   35C       C4 1101   3.889   4.337  -2.875 -0.3876  0.1108 -0.3907
   35C       N4 1102   3.877   4.211  -2.831 -0.2254  0.3962  0.4825
   35C      H41 1103   3.790   4.161  -2.831 -1.1823  2.0003  1.4150
   35C      H42 1104   3.969   4.177  -2.805 -1.0480 -2.2902  0.1129
   35C       N3 1105   4.005   4.402  -2.857 -0.3649 -0.1998  0.5960
   35C       C2 1106   4.009   4.537  -2.866 -0.2660 -0.1882  0.8112
   35C       O2 1107   4.117   4.589  -2.836 -0.1588 -0.1912  0.4320
   35C      C3' 1108   3.862   4.823  -3.128 -0.3822 -0.3051 -0.3554
   35C      H3' 1109   3.824   4.726  -3.157  0.7864 -1.2343  1.0859
   35C      C2' 1110   3.980   4.804  -3.033 -0.0836 -0.0137 -0.6636
   35C     H2'1 1111   4.060   4.740  -3.072  0.8884  1.9067 -1.9901
   35C      O2' 1112   4.043   4.926  -3.005  0.0214 -0.1876 -0.1186
   35C     HO'2 1113   4.023   4.977  -3.084 -2.2243  1.4525  1.3892
   35C      O3' 1114   3.898   4.896  -3.243  0.4093  0.0366  0.0947
   36C        P 1115   3.987   4.829  -3.360  0.1969 -0.2570  0.0983
   36C      O1P 1116   3.976   4.915  -3.480  0.5093  0.0412  0.2808
   36C      O2P 1117   3.936   4.691  -3.368  0.2802 -0.2815 -0.0147
   36C      O5' 1118   4.142   4.823  -3.315  0.3392  0.0417 -0.3402
   36C      C5' 1119   4.217   4.934  -3.271  0.4816 -0.0960 -0.2341
   36C     H5'1 1120   4.154   5.016  -3.236  1.3631  1.5718 -2.2961
   36C     H5'2 1121   4.252   4.989  -3.359  0.5703  3.8804  2.0587
   36C      C4' 1122   4.334   4.893  -3.182  0.5309  0.8618  0.1547
   36C      H4' 1123   4.371   4.980  -3.128  1.7216  1.0148 -0.8689
   36C      O4' 1124   4.298   4.803  -3.080  0.4171  0.4203 -0.2704
   36C      C1' 1125   4.404   4.711  -3.067 -0.1095 -0.1893 -0.2417
   36C      H1' 1126   4.435   4.716  -2.962  1.5963  2.0771 -0.7963
   36C       N1 1127   4.365   4.575  -3.107  0.1407 -0.1600 -0.5849
   36C       C6 1128   4.243   4.549  -3.162 -0.1936 -0.2615  0.1951
   36C       H6 1129   4.181   4.626  -3.205  2.0326  0.3280 -2.2237
   36C       C5 1130   4.198   4.422  -3.179  0.2377 -0.3900  0.0095
   36C       H5 1131   4.099   4.405  -3.217  0.0477 -2.2414  1.2338
   36C       C4 1132   4.283   4.317  -3.133  0.3649 -0.1760  0.2643
   36C       N4 1133   4.238   4.193  -3.151 -0.3961  0.1670 -0.2164
   36C      H41 1134   4.142   4.177  -3.179  0.0531 -3.7319 -0.1585
   36C      H42 1135   4.296   4.117  -3.120 -0.5455  1.7153  4.6431
   36C       N3 1136   4.402   4.339  -3.075  0.3568 -0.0238  0.2239
   36C       C2 1137   4.439   4.469  -3.057  0.2237  0.0745 -0.2058
   36C       O2 1138   4.551   4.487  -3.010 -0.0225 -0.0590  0.4539
   36C      C3' 1139   4.437   4.828  -3.273 -0.1269 -0.2334  0.1705
   36C      H3' 1140   4.391   4.759  -3.344 -0.7963  0.8224 -0.4590
   36C      C2' 1141   4.514   4.765  -3.157  0.1106  0.1014  0.1966
   36C     H2'1 1142   4.583   4.688  -3.190  0.5864 -0.5587  2.5599
   36C      O2' 1143   4.582   4.864  -3.083  0.4663 -0.2723  0.3766
   36C     HO'2 1144   4.636   4.815  -3.022  0.1160 -1.8114 -0.4870
   36C      O3' 1145   4.515   4.924  -3.342 -0.1963 -0.0040  0.4117
   37C        P 1146   4.614   4.882  -3.462 -0.3177  0.0568  0.2899
   37C      O1P 1147   4.704   4.996  -3.489 -0.2737 -0.0928 -0.2053
   37C      O2P 1148   4.535   4.826  -3.574  0.2433 -0.0998 -0.0301
   37C      O5' 1149   4.697   4.765  -3.388  0.0632  0.0505 -0.1470
   37C      C5' 1150   4.814   4.789  -3.313 -0.0592 -0.3821  0.1837
   37C     H5'1 1151   4.801   4.854  -3.227 -0.3458 -0.5253  0.2532
   37C     H5'2 1152   4.884   4.842  -3.377 -0.1067 -0.1945  0.2887
   37C      C4' 1153   4.885   4.658  -3.280  0.3799 -0.1173  0.2900
   37C      H4' 1154   4.980   4.677  -3.230  1.7576 -0.9042 -1.8688
   37C      O4' 1155   4.799   4.568  -3.213 -0.1695  0.0088 -0.2350
   37C      C1' 1156   4.838   4.435  -3.237 -0.5367 -0.1529  0.0645
   37C      H1' 1157   4.887   4.389  -3.151 -0.4012  0.0465  0.0947
   37C       N1 1158   4.728   4.353  -3.290 -0.5388 -0.3471  0.3614
   37C       C6 1159   4.625   4.412  -3.358  0.1379  0.0755 -0.3162
   37C       H6 1160   4.630   4.520  -3.362 -0.0107  0.1299  0.6100
   37C       C5 1161   4.515   4.340  -3.390  0.2543 -0.1753 -0.1598
   37C       H5 1162   4.420   4.376  -3.427  0.0413 -1.6557 -1.1296
   37C       C4 1163   4.521   4.198  -3.372 -0.2554 -0.1240  0.4457
   37C       N4 1164   4.419   4.117  -3.403 -0.0840 -0.0423 -0.3718
   37C      H41 1165   4.330   4.151  -3.435 -0.1096 -0.4081 -0.6855
   37C      H42 1166   4.445   4.020  -3.397  0.4574 -0.0807 -2.5064
   37C       N3 1167   4.631   4.136  -3.329 -0.0035 -0.0275 -0.0447
   37C       C2 1168   4.735   4.215  -3.291  0.1299 -0.3170  0.1997
   37C       O2 1169   4.834   4.157  -3.248  0.3600  0.1269  0.2773
   37C      C3' 1170   4.912   4.585  -3.411  0.2329 -0.0392  0.2145
   37C      H3' 1171   4.820   4.579  -3.469  0.0016 -0.4672  0.6264
   37C      C2' 1172   4.939   4.448  -3.351 -0.0524  0.0342  0.5098
   37C     H2'1 1173   4.921   4.377  -3.432  2.6146  2.1655 -2.1438
   37C      O2' 1174   5.071   4.437  -3.301  0.0997  0.0779  0.1199
   37C     HO'2 1175   5.135   4.492  -3.346 -0.1807  2.1318  2.0133
   37C      O3' 1176   5.023   4.630  -3.487  0.3096  0.1410  0.4345
   38U        P 1177   5.032   4.605  -3.646 -0.3817  0.0587  0.4054
   38U      O1P 1178   5.153   4.670  -3.701 -0.3654 -0.4078 -0.1082
   38U      O2P 1179   4.903   4.640  -3.710 -0.1103  0.9185  0.3123
   38U      O5' 1180   5.038   4.445  -3.652  0.2278  0.1031 -0.1493
   38U      C5' 1181   5.155   4.372  -3.620  0.1330 -0.1343 -0.3401
   38U     H5'1 1182   5.188   4.396  -3.519 -0.1073  0.8415 -0.4881
   38U     H5'2 1183   5.231   4.387  -3.696 -0.0859 -0.8165 -0.7055
   38U      C4' 1184   5.125   4.222  -3.617 -0.1307 -0.0802 -0.2145
   38U      H4' 1185   5.211   4.171  -3.575 -1.3509 -2.8454 -0.8697
   38U      O4' 1186   5.008   4.182  -3.548 -0.0013  0.2040  0.1691
   38U      C1' 1187   4.967   4.062  -3.608  0.0032  0.2327  0.1081
   38U      H1' 1188   4.987   3.980  -3.540 -0.1997 -1.4120 -1.7062
   38U       N1 1189   4.824   4.060  -3.644  0.0400 -0.0894 -0.0243
   38U       C6 1190   4.762   4.168  -3.699 -0.3093 -0.0742  0.3973
   38U       H6 1191   4.809   4.265  -3.697 -0.3273 -0.0852  1.8438
   38U       C5 1192   4.630   4.159  -3.731 -0.2536  0.3578  0.0246
   38U       H5 1193   4.572   4.248  -3.748  0.1698  1.3952  3.2865
   38U       C4 1194   4.555   4.036  -3.721  0.0537  0.1776  0.1501
   38U       O4 1195   4.438   4.020  -3.754  0.2305 -0.0235 -0.4071
   38U       N3 1196   4.632   3.927  -3.683  0.0669  0.2720  0.3940
   38U       H3 1197   4.582   3.840  -3.672 -0.3871  0.0829 -2.4391
   38U       C2 1198   4.764   3.935  -3.641  0.2754 -0.2065 -0.1507
   38U       O2 1199   4.822   3.832  -3.607  0.4952 -0.0897 -0.1682
   38U      C3' 1200   5.110   4.171  -3.760 -0.1239  0.2032 -0.3164
   38U      H3' 1201   5.045   4.246  -3.806 -0.2486  0.4506  0.2570
   38U      C2' 1202   5.041   4.037  -3.740 -0.1411  0.2626  0.0211
   38U     H2'1 1203   4.979   4.014  -3.826  0.7801  1.2746 -0.9345
   38U      O2' 1204   5.134   3.932  -3.726 -0.4821 -0.0232  0.1611
   38U     HO'2 1205   5.168   3.901  -3.811  2.3686  0.5033  1.0022
   38U      O3' 1206   5.236   4.162  -3.823 -0.2308 -0.3158 -0.4564
   39U        P 1207   5.244   4.146  -3.983  0.1906 -0.5792 -0.4112
   39U      O1P 1208   5.375   4.188  -4.038  0.1874  0.2665  0.2012
   39U      O2P 1209   5.119   4.207  -4.034  0.1843 -0.1907  0.0519
   39U      O5' 1210   5.224   3.987  -3.999  0.3264 -0.6640  0.2403
   39U      C5' 1211   5.332   3.898  -3.982  0.3417 -0.6047  0.4682
   39U     H5'1 1212   5.377   3.910  -3.884 -0.4164  0.4076  0.7171
   39U     H5'2 1213   5.403   3.923  -4.061  0.6150 -0.2118  0.8363
   39U      C4' 1214   5.281   3.755  -3.996  0.1914 -0.4903 -0.2054
   39U      H4' 1215   5.368   3.689  -3.989 -0.6517 -1.4808  1.7646
   39U      O4' 1216   5.189   3.720  -3.896  0.6236 -0.3728  0.2365
   39U      C1' 1217   5.109   3.616  -3.948 -0.0725  0.2077  0.1274
   39U      H1' 1218   5.125   3.522  -3.894 -1.2124  0.2536  0.5743
   39U       N1 1219   4.966   3.651  -3.942 -0.0925  0.2366 -0.4803
   39U       C6 1220   4.924   3.776  -3.977  0.1890  0.5924  0.4198
   39U       H6 1221   4.998   3.855  -3.987  0.4189  0.3379  0.0922
   39U       C5 1222   4.795   3.806  -4.001 -0.0262 -0.3098  0.4381
   39U       H5 1223   4.768   3.906  -4.032  0.1308 -0.6471 -0.8699
   39U       C4 1224   4.689   3.708  -3.986 -0.0305 -0.3261  0.3022
   39U       O4 1225   4.569   3.729  -4.001  0.1124  0.4804  0.2458
   39U       N3 1226   4.745   3.585  -3.957 -0.0111 -0.3997 -0.0388
   39U       H3 1227   4.670   3.518  -3.955 -0.4398  0.0210 -1.4560
   39U       C2 1228   4.876   3.547  -3.929  0.1322  0.0943 -0.0321
   39U       O2 1229   4.902   3.428  -3.909 -0.1614  0.0679  0.1926
   39U      C3' 1230   5.212   3.719  -4.127 -0.3878  0.3967 -0.1452
   39U      H3' 1231   5.138   3.798  -4.143 -0.2344  0.8095  1.0586
   39U      C2' 1232   5.144   3.587  -4.093 -0.0299  0.2828  0.1240
   39U     H2'1 1233   5.056   3.581  -4.157  0.7901 -2.2887 -0.9168
   39U      O2' 1234   5.234   3.478  -4.093 -0.3376  0.0272  0.3114
   39U     HO'2 1235   5.195   3.398  -4.129  0.3760 -0.2854  0.2230
   39U      O3' 1236   5.308   3.715  -4.230 -0.0701  0.0637  0.1638
   40C        P 1237   5.264   3.750  -4.381 -0.1512 -0.0490  0.1605
   40C      O1P 1238   5.385   3.730  -4.465  0.3288  0.1719  0.7888
   40C      O2P 1239   5.204   3.885  -4.385 -0.0953 -0.0382 -0.4617
   40C      O5' 1240   5.154   3.636  -4.407  0.1299 -0.2668 -0.0836
   40C      C5' 1241   5.180   3.500  -4.432 -0.2860 -0.2391 -0.6814
   40C     H5'1 1242   5.235   3.461  -4.346 -0.7837 -0.6388 -0.5444
   40C     H5'2 1243   5.226   3.470  -4.527  0.7310 -0.8270 -0.0192
   40C      C4' 1244   5.053   3.417  -4.422 -0.3740 -0.0137  0.1450
   40C      H4' 1245   5.085   3.313  -4.431  1.0051  0.4977 -1.3390
   40C      O4' 1246   4.973   3.430  -4.307 -0.2351 -0.3791  0.2853
   40C      C1' 1247   4.835   3.409  -4.326 -0.2273 -0.3866  0.2352
   40C      H1' 1248   4.805   3.327  -4.261 -0.1874 -0.5534  0.0435
   40C       N1 1249   4.745   3.525  -4.307  0.1262 -0.0486 -0.1521
   40C       C6 1250   4.792   3.653  -4.308 -0.3254  0.1186 -0.1313
   40C       H6 1251   4.899   3.670  -4.305 -0.3508  0.2155  0.3110
   40C       C5 1252   4.709   3.760  -4.307  0.2351  0.5616  0.5319
   40C       H5 1253   4.747   3.860  -4.320  0.7470  0.2625 -0.4093
   40C       C4 1254   4.569   3.730  -4.303  0.3177  0.2152  0.8876
   40C       N4 1255   4.478   3.828  -4.291 -0.0509 -0.0206  0.0841
   40C      H41 1256   4.508   3.916  -4.252  0.5878 -0.8616  1.6068
   40C      H42 1257   4.379   3.807  -4.292 -0.7972  2.9848  0.9670
   40C       N3 1258   4.518   3.606  -4.307  0.2473  0.2644  0.1342
   40C       C2 1259   4.609   3.506  -4.304  0.0865  0.0768 -0.8483
   40C       O2 1260   4.567   3.390  -4.300  0.5367 -0.0580  0.4129
   40C      C3' 1261   4.953   3.437  -4.536 -0.2259 -0.0452  0.0100
   40C      H3' 1262   4.928   3.543  -4.530 -0.8445 -0.2597  2.4893
   40C      C2' 1263   4.830   3.371  -4.473 -0.3194  0.1996  0.0855
   40C     H2'1 1264   4.741   3.410  -4.523 -1.1515 -2.2735 -0.4937
   40C      O2' 1265   4.822   3.232  -4.495  0.2255  0.1687  0.0574
   40C     HO'2 1266   4.734   3.213  -4.528 -0.4633  3.2446 -0.2124
   40C      O3' 1267   4.995   3.378  -4.657 -0.0036 -0.4426  0.2781
   41C        P 1268   4.921   3.403  -4.798  0.1690 -0.1356  0.2407
   41C      O1P 1269   5.011   3.348  -4.901  0.4990 -0.1115  0.5158
   41C      O2P 1270   4.877   3.545  -4.800 -0.3741 -0.3075 -0.2730
   41C      O5' 1271   4.789   3.310  -4.805  0.1217 -0.0607  0.1406
   41C      C5' 1272   4.792   3.170  -4.816  0.3164 -0.0420 -0.0542
   41C     H5'1 1273   4.866   3.133  -4.745  0.6027  1.2017  0.3108
   41C     H5'2 1274   4.815   3.128  -4.914  2.1675 -0.4283  0.5181
   41C      C4' 1275   4.658   3.106  -4.781  0.3333 -0.0979 -0.0904
   41C      H4' 1276   4.664   2.997  -4.773 -0.5273 -0.1305  0.2107
   41C      O4' 1277   4.613   3.145  -4.653  0.0085  0.0406 -0.2448
   41C      C1' 1278   4.474   3.162  -4.661 -0.0021  0.0192 -0.0913
   41C      H1' 1279   4.429   3.099  -4.584  1.2886  0.2181  0.8594
   41C       N1 1280   4.425   3.301  -4.658  0.0966  0.0416  0.7309
   41C       C6 1281   4.512   3.406  -4.668 -0.1195  0.1631  0.1229
   41C       H6 1282   4.616   3.380  -4.682 -0.1192  0.2709 -0.0826
   41C       C5 1283   4.473   3.535  -4.665  0.1102  0.2609 -0.7891
   41C       H5 1284   4.549   3.612  -4.664  2.4504 -1.9119  0.8696
   41C       C4 1285   4.334   3.561  -4.641  0.2099  0.1326 -0.0433
   41C       N4 1286   4.292   3.687  -4.620 -0.1366  0.0689 -0.3345
   41C      H41 1287   4.366   3.756  -4.617 -0.3559  0.3605 -1.4641
   41C      H42 1288   4.195   3.710  -4.608  0.2148  1.3028  0.3730
   41C       N3 1289   4.249   3.459  -4.630  0.1693  0.2253  0.5373
   41C       C2 1290   4.292   3.330  -4.634  0.0131  0.1826  0.1130
   41C       O2 1291   4.214   3.235  -4.630  0.3727 -0.1566 -0.6551
   41C      C3' 1292   4.552   3.139  -4.886  0.4305  0.0562 -0.1393
   41C      H3' 1293   4.562   3.246  -4.904 -1.4971  0.3040  0.1189
   41C      C2' 1294   4.433   3.107  -4.797  0.4790 -0.1785 -0.1581
   41C     H2'1 1295   4.350   3.161  -4.842  0.5986 -1.8742 -2.6343
   41C      O2' 1296   4.399   2.970  -4.794 -0.9748  0.1704  0.2811
   41C     HO'2 1297   4.385   2.943  -4.885 -2.7538 -0.0963  0.5870
   41C      O3' 1298   4.549   3.061  -5.004 -0.2689 -0.2906  0.0984
   42G        P 1299   4.489   3.116  -5.142  0.0213 -0.1631  0.0204
   42G      O1P 1300   4.525   3.023  -5.252  0.5761 -0.1092  0.1569
   42G      O2P 1301   4.520   3.261  -5.152  0.3422 -0.2377 -0.0661
   42G      O5' 1302   4.329   3.122  -5.125 -0.0618  0.2679 -0.8430
   42G      C5' 1303   4.251   3.005  -5.116 -0.0702  0.3111 -0.3354
   42G     H5'1 1304   4.290   2.929  -5.049 -0.9172  0.1431 -0.0227
   42G     H5'2 1305   4.246   2.958  -5.215 -2.6479 -0.0127 -0.1272
   42G      C4' 1306   4.111   3.042  -5.068 -0.0298 -0.2238  0.2098
   42G      H4' 1307   4.064   2.958  -5.017  0.5717  0.6111  2.2116
   42G      O4' 1308   4.111   3.137  -4.964 -0.6633  0.0222 -0.0112
   42G      C1' 1309   4.004   3.228  -4.977 -0.3459  0.3857 -0.0885
   42G      H1' 1310   3.955   3.212  -4.881  0.4841  0.9078  0.4389
   42G       N9 1311   4.059   3.365  -4.985  0.5638  0.0295 -0.0054
   42G       C8 1312   4.191   3.403  -4.984  0.6456 -0.2471 -0.2939
   42G       H8 1313   4.271   3.331  -4.981 -0.1549 -1.1228  0.8086
   42G       N7 1314   4.205   3.532  -4.982 -0.1546 -0.1626  0.6590
   42G       C5 1315   4.076   3.585  -4.978 -0.0003  0.2720  0.1373
   42G       C6 1316   4.029   3.718  -4.967  0.2325  0.3834 -0.1891
   42G       O6 1317   4.089   3.825  -4.967  0.2238  0.3937  0.3470
   42G       N1 1318   3.894   3.723  -4.934  0.2480 -0.3433  0.0001
   42G       H1 1319   3.859   3.817  -4.925  3.7632  1.2413 -1.2575
   42G       C2 1320   3.806   3.617  -4.942  0.0423 -0.1620 -0.1546
   42G       N2 1321   3.681   3.642  -4.902  0.0346 -0.3171 -0.0790
   42G      H21 1322   3.661   3.738  -4.877  1.5113  0.2168 -0.8151
   42G      H22 1323   3.607   3.573  -4.899 -1.5505  1.2969 -0.2442
   42G       N3 1324   3.853   3.492  -4.955  0.3428 -0.0277 -0.3807
   42G       C4 1325   3.987   3.481  -4.970  0.3464 -0.0649 -0.3208
   42G      C3' 1326   4.015   3.099  -5.172 -0.4475  0.0277  0.7256
   42G      H3' 1327   4.072   3.160  -5.244 -0.8781 -1.7755 -1.2538
   42G      C2' 1328   3.915   3.180  -5.091 -0.5948  0.5595  0.0320
   42G     H2'1 1329   3.869   3.262  -5.146 -0.1653  1.2349  0.6548
   42G      O2' 1330   3.828   3.092  -5.022 -0.1117 -0.4218 -0.5975
   42G     HO'2 1331   3.763   3.151  -4.984  2.7771  0.9613  2.7729
   42G      O3' 1332   3.964   2.986  -5.239  0.6462  0.0624 -0.2075
   43U        P 1333   3.947   2.989  -5.399 -0.0811  0.1659 -0.1310
   43U      O1P 1334   3.902   2.855  -5.444  0.3933 -0.0358 -0.0112
   43U      O2P 1335   4.073   3.045  -5.453  0.0184  0.3310  0.2738
   43U      O5' 1336   3.821   3.088  -5.412  0.1756  0.4972 -0.0977
   43U      C5' 1337   3.699   3.045  -5.357  0.5390  0.0104  0.3330
   43U     H5'1 1338   3.717   2.998  -5.260  3.6795 -1.9839 -1.0643
   43U     H5'2 1339   3.655   2.962  -5.413  2.9633  0.2869 -2.1815
   43U      C4' 1340   3.602   3.162  -5.342  0.2085 -0.1746 -0.2792
   43U      H4' 1341   3.510   3.115  -5.307 -0.4724  1.3241  0.0176
   43U      O4' 1342   3.641   3.246  -5.235 -0.4900 -0.3193  0.0911
   43U      C1' 1343   3.600   3.378  -5.263  0.0406 -0.1672  0.0270
   43U      H1' 1344   3.534   3.414  -5.185 -2.0633 -1.2667 -1.1559
   43U       N1 1345   3.711   3.473  -5.279  0.1197 -0.2433  0.1262
   43U       C6 1346   3.833   3.449  -5.336  0.1694  0.0910  0.0852
   43U       H6 1347   3.858   3.352  -5.376  1.5912  0.3295  0.3576
   43U       C5 1348   3.935   3.537  -5.339  0.3526 -0.1218  0.0226
   43U       H5 1349   4.026   3.506  -5.389  0.4972 -1.4325  1.0660
   43U       C4 1350   3.916   3.673  -5.295 -0.1164 -0.1252 -0.1643
   43U       O4 1351   4.001   3.762  -5.293  0.2086 -0.4358 -0.1590
   43U       N3 1352   3.789   3.696  -5.244  0.1148 -0.5084  0.5820
   43U       H3 1353   3.768   3.791  -5.218  2.5577 -0.0421  1.0828
   43U       C2 1354   3.684   3.605  -5.246 -0.0572 -0.3005  0.2091
   43U       O2 1355   3.571   3.642  -5.215  0.0086 -0.0486  0.1481
   43U      C3' 1356   3.576   3.253  -5.461 -0.1371  0.0245 -0.0535
   43U      H3' 1357   3.666   3.282  -5.515 -1.8462  1.5766 -2.2387
   43U      C2' 1358   3.516   3.374  -5.391  0.3724  0.3700 -0.2119
   43U     H2'1 1359   3.532   3.468  -5.444  2.0936  0.4340  0.3601
   43U      O2' 1360   3.384   3.352  -5.346  0.4570  0.2624 -0.0151
   43U     HO'2 1361   3.346   3.305  -5.420  0.0468  3.0275 -1.6806
   43U      O3' 1362   3.481   3.204  -5.554 -0.2432 -0.2441  0.1937
   44A        P 1363   3.484   3.264  -5.703 -0.1427 -0.0950  0.2550
   44A      O1P 1364   3.391   3.186  -5.788  0.6476 -0.0779 -0.6382
   44A      O2P 1365   3.625   3.282  -5.745 -0.0970 -0.1959  0.3674
   44A      O5' 1366   3.423   3.412  -5.683 -0.0450 -0.0325  0.0933
   44A      C5' 1367   3.285   3.439  -5.668 -0.0141  0.2987 -0.2100
   44A     H5'1 1368   3.250   3.390  -5.577  1.4394 -0.7580 -0.1748
   44A     H5'2 1369   3.228   3.405  -5.754 -2.8540  1.7782  0.9601
   44A      C4' 1370   3.254   3.587  -5.647  0.0681  0.2598  0.2005
   44A      H4' 1371   3.146   3.598  -5.636  0.0785  0.3498  0.2154
   44A      O4' 1372   3.310   3.647  -5.533 -0.5853  0.1655  0.5795
   44A      C1' 1373   3.352   3.780  -5.555  0.0252 -0.1530 -0.2221
   44A      H1' 1374   3.321   3.848  -5.476 -0.8060 -0.6960 -0.0691
   44A       N9 1375   3.497   3.798  -5.572 -0.0157  0.2419 -0.1479
   44A       C8 1376   3.590   3.704  -5.608 -0.5377 -0.3991  0.1603
   44A       H8 1377   3.560   3.605  -5.638  0.2562 -0.9969  1.2645
   44A       N7 1378   3.713   3.747  -5.596 -0.5768 -0.2614  0.0688
   44A       C5 1379   3.696   3.878  -5.553 -0.3669  0.0011 -0.6378
   44A       C6 1380   3.783   3.985  -5.529 -0.3291 -0.1505 -0.1008
   44A       N6 1381   3.916   3.979  -5.509 -0.3576  0.1512  0.1862
   44A      H61 1382   3.954   3.897  -5.553  0.6108  0.5967  0.1822
   44A      H62 1383   3.969   4.059  -5.478 -0.9193  0.3534  0.6480
   44A       N1 1384   3.740   4.108  -5.498 -0.0573 -0.0014 -0.3060
   44A       C2 1385   3.608   4.121  -5.500 -0.1110 -0.4684 -0.0373
   44A       H2 1386   3.580   4.220  -5.466  2.2085  0.6221 -1.0705
   44A       N3 1387   3.509   4.035  -5.516 -0.6499  0.1990 -0.3219
   44A       C4 1388   3.564   3.914  -5.539 -0.2195  0.3611 -0.1527
   44A      C3' 1389   3.303   3.678  -5.760 -0.1956  0.0533 -0.0841
   44A      H3' 1390   3.410   3.657  -5.769 -0.3787 -0.9747 -0.0182
   44A      C2' 1391   3.285   3.812  -5.689 -0.2593  0.0204 -0.0387
   44A     H2'1 1392   3.359   3.875  -5.739  1.1827 -0.8480  0.9249
   44A      O2' 1393   3.150   3.851  -5.689 -0.1376  0.4741  0.7670
   44A     HO'2 1394   3.143   3.946  -5.678 -0.5606  0.5626 -0.1183
   44A      O3' 1395   3.243   3.655  -5.885 -0.2581  0.0721 -0.0572
   45G        P 1396   3.315   3.691  -6.025 -0.1931 -0.1204 -0.0746
   45G      O1P 1397   3.229   3.659  -6.141  0.1044 -0.2545 -0.2587
   45G      O2P 1398   3.453   3.639  -6.026 -0.2121 -0.1693 -0.1221
   45G      O5' 1399   3.316   3.852  -6.021  0.0462 -0.1307  0.2977
   45G      C5' 1400   3.198   3.926  -6.043  0.0052 -0.1611  0.4149
   45G     H5'1 1401   3.124   3.872  -5.983  1.4354 -1.8882  0.6990
   45G     H5'2 1402   3.176   3.913  -6.149  0.8600 -0.8430  0.3112
   45G      C4' 1403   3.211   4.073  -6.004  0.2378 -0.1550  0.3137
   45G      H4' 1404   3.110   4.114  -6.004 -0.4712 -1.7712  1.7943
   45G      O4' 1405   3.269   4.090  -5.876  0.7163 -0.4658  0.1426
   45G      C1' 1406   3.360   4.198  -5.878  0.4480 -0.2324  0.3650
   45G      H1' 1407   3.352   4.270  -5.796  0.9636  0.5243 -0.2388
   45G       N9 1408   3.501   4.155  -5.871  0.4878 -0.1634 -0.0301
   45G       C8 1409   3.549   4.027  -5.886  0.6147 -0.0818 -0.3467
   45G       H8 1410   3.479   3.946  -5.900  0.8654 -0.3355 -0.1491
   45G       N7 1411   3.675   4.016  -5.857  0.5210 -0.2778 -0.0054
   45G       C5 1412   3.720   4.144  -5.826  0.3913 -0.0627 -0.6893
   45G       C6 1413   3.850   4.196  -5.804  0.0179  0.5709  0.1004
   45G       O6 1414   3.958   4.137  -5.810 -0.3387 -0.0645 -0.1174
   45G       N1 1415   3.844   4.333  -5.782  0.1751  0.5960 -0.0109
   45G       H1 1416   3.931   4.379  -5.759  0.4908  0.0437 -0.0646
   45G       C2 1417   3.732   4.413  -5.781 -0.1282  0.1875 -0.8616
   45G       N2 1418   3.741   4.545  -5.764  0.4111  0.0603 -0.1382
   45G      H21 1419   3.834   4.581  -5.780 -0.1547  1.5666 -0.2658
   45G      H22 1420   3.659   4.596  -5.796 -0.8232 -2.1201 -0.6513
   45G       N3 1421   3.611   4.360  -5.804 -0.1763  0.1088 -0.4258
   45G       C4 1422   3.611   4.228  -5.833  0.2317 -0.1363  0.6601
   45G      C3' 1423   3.306   4.149  -6.096 -0.0838 -0.1334  0.0001
   45G      H3' 1424   3.390   4.082  -6.116 -1.0391 -1.6120  0.7089
   45G      C2' 1425   3.339   4.270  -6.010 -0.3857 -0.3543  0.4299
   45G     H2'1 1426   3.428   4.323  -6.042 -0.4340 -0.9758 -0.8099
   45G      O2' 1427   3.234   4.363  -5.992 -0.0188  0.2627 -0.5496
   45G     HO'2 1428   3.256   4.440  -5.939  1.0156  0.4223 -1.1883
   45G      O3' 1429   3.255   4.188  -6.222  0.3364  0.6657  0.0740
   46A        P 1430   3.356   4.230  -6.340  0.3398  0.1996 -0.0914
   46A      O1P 1431   3.276   4.239  -6.464 -0.0085 -0.2540  0.0970
   46A      O2P 1432   3.481   4.151  -6.331  0.1697 -0.0628 -0.0266
   46A      O5' 1433   3.402   4.380  -6.301 -0.3456  0.2460  0.5699
   46A      C5' 1434   3.330   4.497  -6.333  0.2908  0.4762 -0.0587
   46A     H5'1 1435   3.237   4.504  -6.277  1.0250  0.0715  1.2452
   46A     H5'2 1436   3.309   4.502  -6.440  0.2361 -0.3375 -0.0911
   46A      C4' 1437   3.420   4.614  -6.294  0.5807  0.2729 -0.1074
   46A      H4' 1438   3.365   4.707  -6.310 -0.7969 -0.2961  1.0774
   46A      O4' 1439   3.475   4.604  -6.165 -0.4177 -0.1239  0.3042
   46A      C1' 1440   3.607   4.654  -6.161 -0.5399  0.2397 -0.0735
   46A      H1' 1441   3.620   4.739  -6.094 -1.8354  1.3198 -1.1236
   46A       N9 1442   3.706   4.551  -6.124 -0.3312  0.2491 -0.5957
   46A       C8 1443   3.700   4.414  -6.128 -0.2749  0.2086  0.4273
   46A       H8 1444   3.607   4.362  -6.142 -0.4554  0.4056  0.8581
   46A       N7 1445   3.817   4.357  -6.121 -0.1053  0.4354 -0.4636
   46A       C5 1446   3.905   4.464  -6.103  0.0490  0.2983 -0.3926
   46A       C6 1447   4.044   4.473  -6.096  0.0428  0.1677 -0.0446
   46A       N6 1448   4.127   4.368  -6.092  0.7004  0.6422 -0.8270
   46A      H61 1449   4.093   4.273  -6.094  1.8167  0.2149 -0.5304
   46A      H62 1450   4.227   4.379  -6.081  0.3711  1.0407  3.0385
   46A       N1 1451   4.106   4.592  -6.084  0.4156 -0.0766  0.5153
   46A       C2 1452   4.027   4.698  -6.092  0.1763 -0.2277  0.8228
   46A       H2 1453   4.084   4.790  -6.086 -1.2359  0.5894  2.2947
   46A       N3 1454   3.895   4.706  -6.100  0.1686 -0.2918  0.8853
   46A       C4 1455   3.838   4.583  -6.100 -0.4624  0.0016  0.5478
   46A      C3' 1456   3.545   4.627  -6.381  0.1487 -0.3005 -0.8336
   46A      H3' 1457   3.590   4.528  -6.384  0.6556 -0.0551 -1.4828
   46A      C2' 1458   3.634   4.718  -6.297 -0.3049 -0.3390 -0.3031
   46A     H2'1 1459   3.738   4.706  -6.329 -0.3872 -0.3650 -0.5598
   46A      O2' 1460   3.595   4.853  -6.281  0.1338 -0.2962  0.4864
   46A     HO'2 1461   3.674   4.901  -6.257 -0.2582  0.0792  1.0501
   46A      O3' 1462   3.518   4.673  -6.511  0.0499  1.0716 -0.3538
   47G        P 1463   3.591   4.614  -6.642  0.2621  0.1941  0.1499
   47G      O1P 1464   3.544   4.680  -6.766  0.7428 -0.5264 -0.4305
   47G      O2P 1465   3.583   4.466  -6.638 -0.3010  0.2266  0.2968
   47G      O5' 1466   3.740   4.665  -6.606  0.1492  0.3521  0.3928
   47G      C5' 1467   3.768   4.803  -6.601  0.0418  0.3875  0.0671
   47G     H5'1 1468   3.704   4.840  -6.521  0.4090  0.8308  0.1608
   47G     H5'2 1469   3.737   4.857  -6.690  1.5373  2.7132  0.8742
   47G      C4' 1470   3.911   4.828  -6.553 -0.0896  0.3243  0.4927
   47G      H4' 1471   3.928   4.936  -6.547 -2.6599  0.8980 -0.8691
   47G      O4' 1472   3.944   4.768  -6.430  0.1599 -0.2305  0.1560
   47G      C1' 1473   4.077   4.720  -6.432  0.2459 -0.0024  0.3179
   47G      H1' 1474   4.132   4.744  -6.341 -0.2614  1.9961  0.1401
   47G       N9 1475   4.079   4.573  -6.442 -0.6918 -0.0037  0.0574
   47G       C8 1476   3.971   4.488  -6.451 -0.4682 -0.2385 -0.4506
   47G       H8 1477   3.866   4.513  -6.461 -0.5817 -0.2762  0.5708
   47G       N7 1478   4.010   4.365  -6.438 -0.1593 -0.1041 -0.0973
   47G       C5 1479   4.149   4.370  -6.423 -0.1660  0.2964 -0.1609
   47G       C6 1480   4.241   4.263  -6.405  0.0544  0.4285 -0.4988
   47G       O6 1481   4.222   4.142  -6.398 -0.1864  0.4752 -0.3418
   47G       N1 1482   4.370   4.309  -6.383  0.0776  0.1817 -0.1188
   47G       H1 1483   4.446   4.244  -6.374  0.8193  0.9740 -0.4582
   47G       C2 1484   4.402   4.443  -6.373  0.3895  0.1151 -0.2382
   47G       N2 1485   4.532   4.475  -6.358  0.2760  0.4027  0.1275
   47G      H21 1486   4.599   4.400  -6.346  1.3931  0.8932 -2.4905
   47G      H22 1487   4.535   4.574  -6.338 -2.6164  1.2204 -2.5870
   47G       N3 1488   4.318   4.544  -6.399  0.0348 -0.1820 -0.2426
   47G       C4 1489   4.191   4.500  -6.411 -0.0804  0.3744 -1.1793
   47G      C3' 1490   4.014   4.778  -6.653 -0.2426  0.7938  0.0956
   47G      H3' 1491   3.999   4.672  -6.673 -0.4956  0.8225  0.1335
   47G      C2' 1492   4.133   4.786  -6.557 -0.3045  0.2808  0.2150
   47G     H2'1 1493   4.206   4.727  -6.613 -0.8029  0.5630 -0.7602
   47G      O2' 1494   4.171   4.916  -6.518 -0.3253  0.3058  0.1488
   47G     HO'2 1495   4.257   4.914  -6.477 -1.7219  1.4298  3.4610
   47G      O3' 1496   4.042   4.853  -6.769 -0.0177  0.2736 -0.1883
   48U        P 1497   4.133   4.796  -6.889  0.1920 -0.1804  0.1861
   48U      O1P 1498   4.153   4.897  -6.995  0.3855 -0.3959  0.0153
   48U      O2P 1499   4.071   4.667  -6.927  0.4162 -0.3571  0.4098
   48U      O5' 1500   4.279   4.757  -6.833  0.0951 -0.3616  0.3125
   48U      C5' 1501   4.377   4.852  -6.798 -0.3247  0.2532 -0.1655
   48U     H5'1 1502   4.337   4.933  -6.738  1.6304  2.8185 -2.1039
   48U     H5'2 1503   4.400   4.905  -6.890 -0.3787  1.5866  0.5682
   48U      C4' 1504   4.503   4.794  -6.734 -0.2533  0.2664 -0.2930
   48U      H4' 1505   4.572   4.859  -6.679  0.0656 -0.7798  0.5703
   48U      O4' 1506   4.474   4.688  -6.646 -0.0234  0.6582  0.2641
   48U      C1' 1507   4.565   4.581  -6.666 -0.3558  0.3337  0.4695
   48U      H1' 1508   4.634   4.562  -6.584  0.1071  1.4332  0.3482
   48U       N1 1509   4.490   4.459  -6.700  0.0902  0.2565 -0.2557
   48U       C6 1510   4.360   4.456  -6.742  0.3448 -0.2099 -1.0458
   48U       H6 1511   4.299   4.544  -6.758  1.0922  0.3830 -0.6698
   48U       C5 1512   4.308   4.336  -6.773 -0.1294 -0.2340 -0.1963
   48U       H5 1513   4.210   4.338  -6.818 -0.1449  0.2112 -0.1476
   48U       C4 1514   4.375   4.209  -6.757  0.4439  0.0269 -0.5017
   48U       O4 1515   4.323   4.098  -6.768  0.0248  0.0921  0.7152
   48U       N3 1516   4.500   4.220  -6.699 -0.0035  0.3746  0.4015
   48U       H3 1517   4.546   4.136  -6.668 -0.6292 -0.2207 -0.2359
   48U       C2 1518   4.559   4.343  -6.671  0.2105  0.3761 -0.0618
   48U       O2 1519   4.674   4.339  -6.627  0.1797 -0.2735 -0.0218
   48U      C3' 1520   4.581   4.731  -6.848 -0.1772 -0.1029 -0.0405
   48U      H3' 1521   4.507   4.693  -6.919 -2.0969  0.2526  1.7019
   48U      C2' 1522   4.661   4.622  -6.778 -0.3633  0.0095  0.3448
   48U     H2'1 1523   4.681   4.537  -6.843 -0.2914 -1.1839  1.8712
   48U      O2' 1524   4.776   4.673  -6.714  0.1621 -0.3541 -0.2969
   48U     HO'2 1525   4.823   4.737  -6.767  1.4803 -0.9108  0.1547
   48U      O3' 1526   4.666   4.829  -6.904 -0.2759 -0.0066 -0.0201
   49C        P 1527   4.681   4.838  -7.064 -0.1723 -0.1421 -0.0178
   49C      O1P 1528   4.732   4.972  -7.104  0.1485 -0.2168  0.1368
   49C      O2P 1529   4.556   4.786  -7.124 -0.4350 -0.1004  0.4866
   49C      O5' 1530   4.788   4.720  -7.089  0.6461  0.5842 -0.0028
   49C      C5' 1531   4.924   4.734  -7.055  0.6534 -0.0599  0.2445
   49C     H5'1 1532   4.945   4.796  -6.968 -1.3699 -1.9100  2.2068
   49C     H5'2 1533   4.978   4.789  -7.132  2.6927  1.4674  2.6190
   49C      C4' 1534   4.984   4.594  -7.044  0.2043 -0.2353  0.4902
   49C      H4' 1535   5.086   4.603  -7.006 -0.4077  0.1064  2.1426
   49C      O4' 1536   4.907   4.513  -6.958  0.0169 -0.6615 -0.0700
   49C      C1' 1537   4.925   4.379  -6.997  0.2081 -0.6166 -0.1358
   49C      H1' 1538   4.992   4.331  -6.925  2.1542  0.1097 -1.3621
   49C       N1 1539   4.801   4.302  -7.017 -0.1226 -0.1542  0.1390
   49C       C6 1540   4.685   4.366  -7.052 -0.1421  0.1175  0.6754
   49C       H6 1541   4.688   4.472  -7.069  0.8437 -0.2044 -1.6268
   49C       C5 1542   4.572   4.294  -7.069 -0.0424  0.1011  0.0388
   49C       H5 1543   4.486   4.345  -7.110  0.7676  0.5916 -1.1087
   49C       C4 1544   4.580   4.151  -7.059 -0.3912  0.0696 -0.1318
   49C       N4 1545   4.466   4.085  -7.084  0.1097 -0.8905  0.1073
   49C      H41 1546   4.384   4.133  -7.117 -0.2005 -0.1147  1.9142
   49C      H42 1547   4.461   3.987  -7.058  3.6024 -0.6850  2.2760
   49C       N3 1548   4.693   4.089  -7.023 -0.3449  0.3681  0.2406
   49C       C2 1549   4.804   4.165  -7.002  0.0330 -0.1513  0.1356
   49C       O2 1550   4.904   4.102  -6.971  0.0940 -0.0609  0.1209
   49C      C3' 1551   4.981   4.518  -7.176 -0.0560  0.1340  0.2831
   49C      H3' 1552   4.884   4.535  -7.222  1.3653  0.1099 -3.0464
   49C      C2' 1553   5.006   4.376  -7.126  0.2598  0.0461 -0.1198
   49C     H2'1 1554   4.967   4.304  -7.199  0.0323  1.4461 -1.4428
   49C      O2' 1555   5.140   4.363  -7.084  0.1160 -0.4278  0.1976
   49C     HO'2 1556   5.195   4.424  -7.133 -0.1436 -0.4164 -0.0808
   49C      O3' 1557   5.089   4.563  -7.255  0.0666 -0.3068  0.1940
   50G        P 1558   5.096   4.532  -7.413 -0.3235  0.2021  0.0707
   50G      O1P 1559   5.211   4.610  -7.463 -0.4492  0.5339  0.3003
   50G      O2P 1560   4.959   4.548  -7.468 -0.3107 -0.3061 -0.1183
   50G      O5' 1561   5.125   4.373  -7.413 -0.4016  0.1874 -0.0270
   50G      C5' 1562   5.245   4.319  -7.363 -0.4452 -0.0334 -0.1645
   50G     H5'1 1563   5.286   4.364  -7.273  0.0230  0.3737 -0.5781
   50G     H5'2 1564   5.319   4.336  -7.442 -2.4562 -0.1513 -2.1814
   50G      C4' 1565   5.236   4.167  -7.354 -0.0499 -0.0401  0.1269
   50G      H4' 1566   5.330   4.117  -7.331 -0.4825 -1.1784 -0.4438
   50G      O4' 1567   5.134   4.130  -7.264 -0.2909  0.1329 -0.0751
   50G      C1' 1568   5.062   4.016  -7.306  0.4108 -0.1774 -0.4439
   50G      H1' 1569   5.057   3.939  -7.228 -0.6246  1.0275  0.7304
   50G       N9 1570   4.924   4.051  -7.341  0.2547 -0.3770 -0.0323
   50G       C8 1571   4.867   4.170  -7.379  0.4667 -0.4973 -0.7330
   50G       H8 1572   4.927   4.258  -7.394  0.8000 -0.7959 -1.1727
   50G       N7 1573   4.740   4.165  -7.408  0.2384  0.1428  0.1116
   50G       C5 1574   4.709   4.032  -7.379 -0.1984  0.3525  0.6145
   50G       C6 1575   4.586   3.962  -7.387  0.4593 -0.7059 -0.5389
   50G       O6 1576   4.477   4.011  -7.418  0.4663 -0.2820  0.0940
   50G       N1 1577   4.589   3.829  -7.351 -0.6898 -0.4761  0.4907
   50G       H1 1578   4.502   3.782  -7.332 -0.8296  0.4949  2.5313
   50G       C2 1579   4.708   3.764  -7.322 -0.2421  0.3798  0.5901
   50G       N2 1580   4.703   3.635  -7.284  0.3578  0.2223  0.1356
   50G      H21 1581   4.613   3.591  -7.292  1.3695 -1.7090 -1.8208
   50G      H22 1582   4.790   3.590  -7.259  1.5064  2.4951  0.5836
   50G       N3 1583   4.825   3.829  -7.315  0.0256  0.0173 -0.4286
   50G       C4 1584   4.819   3.962  -7.341 -0.1660  0.1080  0.0763
   50G      C3' 1585   5.187   4.099  -7.482  0.2803 -0.0863  0.0233
   50G      H3' 1586   5.107   4.156  -7.530 -0.1456 -1.6503 -1.1991
   50G      C2' 1587   5.125   3.967  -7.436  0.0529 -0.2027 -0.6087
   50G     H2'1 1588   5.064   3.922  -7.514  1.0573 -0.5751 -1.2101
   50G      O2' 1589   5.231   3.878  -7.408  0.0686 -0.1343 -0.4473
   50G     HO'2 1590   5.260   3.838  -7.491  0.2821  1.7019 -1.3022
   50G      O3' 1591   5.283   4.090  -7.584  0.1440  0.1171 -0.1255
   50G      H3T 1592   5.370   4.082  -7.544  0.2021  0.3964 -0.1989
   51SOL     OW 1593   0.132   5.660   0.623 -0.1550  0.1319 -0.3758
   51SOL    HW1 1594   0.093   5.746   0.638 -0.7102 -0.1905  0.0757
   51SOL    HW2 1595   0.070   5.615   0.566  0.0324 -0.0410 -0.4444
   52SOL     OW 1596   1.696   2.457   0.386  0.4835 -0.2766 -0.0473
   52SOL    HW1 1597   1.781   2.424   0.415 -0.5918 -2.0102  1.3518
   52SOL    HW2 1598   1.648   2.380   0.357 -0.7384  0.6152 -0.5154
   53SOL     OW 1599   2.812   4.347   1.893  0.2179 -0.1486 -0.6838
   53SOL    HW1 1600   2.829   4.397   1.813  0.3122  0.4101 -0.3192
   53SOL    HW2 1601   2.733   4.386   1.930  1.6074  1.4181  0.8867
   54SOL     OW 1602   7.691   6.519   9.781  0.1144  0.3787  0.0469
   54SOL    HW1 1603   7.718   6.534   9.690  0.2288  1.1302  0.2028
   54SOL    HW2 1604   7.700   6.424   9.793 -1.6317 -0.0214 -1.2836
   55SOL     OW 1605   7.225   0.326   3.165  0.0589  0.2645  0.6783
   55SOL    HW1 1606   7.283   0.400   3.149  0.0401 -0.2492 -2.3796
   55SOL    HW2 1607   7.146   0.346   3.114  0.3927 -2.2026 -0.9601
   56SOL     OW 1608   2.328   6.069  11.200 -0.0557  0.4237 -0.1446
   56SOL    HW1 1609   2.365   6.155  11.220  1.8228  0.1559 -2.0534
   56SOL    HW2 1610   2.379   6.008  11.252 -0.1524  0.3192 -0.1707
   57SOL     OW 1611   1.146   3.600   6.258  0.3652  0.0527 -0.6696
   57SOL    HW1 1612   1.150   3.624   6.165  0.7442  2.4754 -0.0774
   57SOL    HW2 1613   1.237   3.582   6.282  0.5559  1.3643 -0.3315
   58SOL     OW 1614   5.928   4.638   1.247  0.1276  0.2896 -0.4948
   58SOL    HW1 1615   5.860   4.700   1.272 -0.6351 -0.6586 -0.1402
   58SOL    HW2 1616   5.895   4.595   1.169  0.8806  0.6741 -1.0424
   59SOL     OW 1617   0.821   7.409   1.717 -0.0477 -0.2126 -0.8185
   59SOL    HW1 1618   0.726   7.414   1.725  0.0601 -0.5493  1.0804
   59SOL    HW2 1619   0.852   7.494   1.747  0.2695 -0.2058 -1.1579
   60SOL     OW 1620   4.346   1.698   8.209 -0.4711  0.3157  0.3610
   60SOL    HW1 1621   4.362   1.780   8.162 -1.3565  1.1746  1.5124
   60SOL    HW2 1622   4.302   1.642   8.145  1.6692  0.0453 -0.9995
   61SOL     OW 1623   2.903   2.772   5.858 -0.0698 -0.2491  0.1417
   61SOL    HW1 1624   2.855   2.794   5.937  0.1100 -1.3229  0.5719
   61SOL    HW2 1625   2.940   2.685   5.876 -0.0853 -0.5430 -1.1411
   62SOL     OW 1626   6.922   6.310   2.671  0.0568  0.4771 -0.4184
   62SOL    HW1 1627   6.947   6.402   2.674  0.0671  0.4571  0.2199
   62SOL    HW2 1628   6.971   6.274   2.597  1.5794  0.5428  0.5193
   63SOL     OW 1629   4.205   3.036   0.674  0.0227  0.2380  0.2933
   63SOL    HW1 1630   4.124   2.997   0.706 -0.0924  0.5019  0.3264
   63SOL    HW2 1631   4.274   2.982   0.712 -0.1522 -1.2727 -1.3842
   64SOL     OW 1632   0.465   2.856   9.515  0.4408 -0.2550 -0.2686
   64SOL    HW1 1633   0.454   2.802   9.437 -0.5234  0.7295 -0.8563
   64SOL    HW2 1634   0.544   2.823   9.557 -0.4279 -2.5278 -0.2433
   65SOL     OW 1635   4.123   3.946  11.010 -0.1804 -0.2012  0.5754
   65SOL    HW1 1636   4.170   3.948  10.927  0.3128  0.0741  0.8559
   65SOL    HW2 1637   4.188   3.972  11.075 -0.6538 -0.0716  1.0037
   66SOL     OW 1638   6.911   5.171   5.096 -0.1664 -0.0643  0.6546
   66SOL    HW1 1639   6.824   5.144   5.066 -1.2496  2.1738  1.5013
   66SOL    HW2 1640   6.917   5.263   5.073  2.2698 -0.2915  0.1096
   67SOL     OW 1641   0.531   1.555   6.943  0.0174  0.3928 -0.5013
   67SOL    HW1 1642   0.526   1.573   6.849 -3.2751 -1.6750 -0.8829
   67SOL    HW2 1643   0.580   1.473   6.949 -0.6828 -0.0350 -0.5439
   68SOL     OW 1644   5.608   7.948   7.124 -0.1501  0.3106 -0.2988
   68SOL    HW1 1645   5.652   8.028   7.151 -0.1539  0.2993 -0.2597
   68SOL    HW2 1646   5.579   7.907   7.206 -0.2656  0.3360 -0.3272
   69SOL     OW 1647   4.952   5.869   5.564 -0.0177  0.8293  0.2420
   69SOL    HW1 1648   4.991   5.790   5.525 -1.5579 -0.4793  1.1985
   69SOL    HW2 1649   4.926   5.841   5.652 -3.2327  1.5039 -0.3801
   70SOL     OW 1650   7.070   3.527   1.238  0.1710  0.5333  0.1707
   70SOL    HW1 1651   7.074   3.463   1.167  0.6749 -0.2550  0.9038
   70SOL    HW2 1652   7.067   3.612   1.193  1.5214  0.1049 -0.7971
   71SOL     OW 1653   0.429   3.496   9.152 -0.7685  0.1563  0.0557
   71SOL    HW1 1654   0.354   3.554   9.165 -0.2775  0.6328  0.9178
   71SOL    HW2 1655   0.439   3.490   9.057 -2.0576 -0.1396 -0.0772
   72SOL     OW 1656   7.703   4.562   3.041  0.5941 -0.6884  0.6341
   72SOL    HW1 1657   7.693   4.641   2.987  1.4922 -1.0798 -0.1389
   72SOL    HW2 1658   7.614   4.542   3.070  0.4979  1.3946  2.0478
   73SOL     OW 1659   0.949   7.321  11.755  0.3035  0.2866  0.3476
   73SOL    HW1 1660   1.038   7.312  11.722  0.4710  0.6119  0.7046
   73SOL    HW2 1661   0.956   7.383  11.828  0.0967 -1.1694  1.6619
   74SOL     OW 1662   1.252   0.455   3.850 -0.1024 -0.6684  0.1047
   74SOL    HW1 1663   1.185   0.436   3.785 -1.6855 -0.5167  1.6448
   74SOL    HW2 1664   1.212   0.518   3.910  1.9251  0.5851  0.2509
   75SOL     OW 1665   0.450   6.705   4.737  0.2025  0.6402 -0.6077
   75SOL    HW1 1666   0.380   6.758   4.698  1.9030  1.6208 -2.4846
   75SOL    HW2 1667   0.468   6.638   4.672  0.9692  0.3586 -0.1124
   76SOL     OW 1668   0.313   3.507   1.419  0.4154  0.3233 -0.1770
   76SOL    HW1 1669   0.352   3.578   1.368  1.5311 -1.7791 -2.4561
   76SOL    HW2 1670   0.387   3.450   1.440 -0.6444 -0.8877  0.3721
   77SOL     OW 1671   7.577   5.525   2.651  0.4405 -0.0437 -0.9502
   77SOL    HW1 1672   7.506   5.508   2.590 -0.2578  3.0618 -1.1725
   77SOL    HW2 1673   7.534   5.535   2.736  1.0680 -1.5533 -0.4339
   78SOL     OW 1674   6.550   6.775   8.459 -0.2192  0.2963  0.2533
   78SOL    HW1 1675   6.637   6.796   8.493 -0.3999 -0.8491  1.4917
   78SOL    HW2 1676   6.557   6.787   8.364  0.8753  1.5994  0.4791
   79SOL     OW 1677   7.635   7.196  11.149 -0.6128 -0.4335  0.1105
   79SOL    HW1 1678   7.569   7.170  11.213 -0.6606 -0.4030  0.0732
   79SOL    HW2 1679   7.719   7.172  11.190 -0.5145  1.3705  1.0207
   80SOL     OW 1680   6.881   3.278   8.351 -0.5893  0.2952  0.6952
   80SOL    HW1 1681   6.845   3.310   8.434  0.8923  0.5810  1.2542
   80SOL    HW2 1682   6.965   3.239   8.374 -0.7057 -0.7456 -0.5066
   81SOL     OW 1683   6.011   0.795   8.843 -0.1001  0.4560 -0.8078
   81SOL    HW1 1684   6.056   0.878   8.831  0.0157  0.6867  0.9458
   81SOL    HW2 1685   5.966   0.803   8.927 -1.5359 -0.6237 -1.4226
   82SOL     OW 1686   2.438   2.093   3.458 -0.0305  0.5980 -0.1151
   82SOL    HW1 1687   2.429   2.180   3.497  3.5720  0.6028  1.0597
   82SOL    HW2 1688   2.482   2.108   3.375 -0.1242 -0.0428 -0.2859
   83SOL     OW 1689   5.387   4.836   8.162 -0.6642 -0.1739  0.4054
   83SOL    HW1 1690   5.460   4.872   8.214 -1.7842  2.1676  0.4744
   83SOL    HW2 1691   5.321   4.812   8.227 -0.5792 -0.8338  0.2552
   84SOL     OW 1692   4.237   5.835  12.171 -0.0807 -0.5722 -0.9052
   84SOL    HW1 1693   4.207   5.878  12.092  0.3843  1.1971 -0.1731
   84SOL    HW2 1694   4.332   5.843  12.168 -0.0956  0.3530  0.2444
   85SOL     OW 1695   6.373   5.799  11.481 -0.2949  0.1761 -0.2606
   85SOL    HW1 1696   6.336   5.849  11.554  0.8505  1.2627 -0.3975
   85SOL    HW2 1697   6.425   5.863  11.432  1.5029 -1.2048 -0.2510
   86SOL     OW 1698   7.867   3.429   5.097 -1.0963 -0.2277  0.0658
   86SOL    HW1 1699   7.876   3.519   5.064 -1.1819 -0.0055  0.6355
   86SOL    HW2 1700   7.839   3.440   5.188 -1.6663 -0.8429 -0.0326
   87SOL     OW 1701   5.027   0.359   7.340 -0.0127 -0.1150  0.2221
   87SOL    HW1 1702   5.122   0.355   7.351  0.2141  1.3688 -0.9588
   87SOL    HW2 1703   5.011   0.329   7.251 -0.5039  0.8998 -0.0515
   88SOL     OW 1704   5.223   0.660   4.029 -0.0584  0.0233 -0.2695
   88SOL    HW1 1705   5.281   0.651   3.953  0.6941  1.4834  0.0858
   88SOL    HW2 1706   5.259   0.735   4.077 -1.6888  0.3603  0.4763
   89SOL     OW 1707   4.737   4.236   0.273  0.2679  0.2019 -0.2532
   89SOL    HW1 1708   4.755   4.142   0.281 -1.6006 -0.1807 -0.0529
   89SOL    HW2 1709   4.722   4.249   0.180  1.2263  0.4752 -0.3854
   90SOL     OW 1710   5.969   1.174  10.071 -0.0264 -0.3894 -0.4192
   90SOL    HW1 1711   5.874   1.164  10.074  0.2022 -2.8734  1.9456
   90SOL    HW2 1712   5.986   1.252  10.125 -0.6889 -0.1576 -0.5307
   91SOL     OW 1713   5.335   0.405   2.834 -0.1394  0.2757 -0.4448
   91SOL    HW1 1714   5.346   0.495   2.804 -0.7042  0.7129  0.5974
   91SOL    HW2 1715   5.290   0.414   2.918 -0.8366 -1.0127 -0.6662
   92SOL     OW 1716   5.059   7.958   4.629  0.1212 -0.0108  0.3495
   92SOL    HW1 1717   5.118   7.883   4.619 -0.7169 -0.6211 -0.1495
   92SOL    HW2 1718   4.972   7.919   4.639 -0.3760  0.8966 -0.2610
   93SOL     OW 1719   5.398   7.953   5.427  0.1245 -0.3742 -0.1635
   93SOL    HW1 1720   5.337   7.887   5.394 -0.7747  0.2467  0.2147
   93SOL    HW2 1721   5.410   7.931   5.520 -1.5259  0.9284  0.4246
   94SOL     OW 1722   1.413   2.839   2.223 -0.4850  0.0419 -0.8533
   94SOL    HW1 1723   1.364   2.759   2.207  1.8041 -1.4659 -0.6857
   94SOL    HW2 1724   1.478   2.842   2.153  0.5980  0.7947  0.1364
   95SOL     OW 1725   0.343   1.403   1.677 -0.1798 -0.0837  0.0955
   95SOL    HW1 1726   0.339   1.444   1.763 -0.5016 -0.3549  0.2145
   95SOL    HW2 1727   0.267   1.438   1.630  0.8328  1.2326 -0.6194
   96SOL     OW 1728   1.728   7.323   6.237  0.0146  0.8084 -0.0021
   96SOL    HW1 1729   1.797   7.263   6.209  1.2808  1.7739  0.9613
   96SOL    HW2 1730   1.649   7.289   6.194  0.9004 -0.8310 -0.4376
   97SOL     OW 1731   1.225   1.391   3.500  0.0421  0.1117 -0.1520
   97SOL    HW1 1732   1.253   1.319   3.442 -0.5169 -0.1508 -0.0994
   97SOL    HW2 1733   1.157   1.353   3.554  1.9568 -0.2674  2.1509
   98SOL     OW 1734   0.103   0.110   7.455 -0.0125  0.5505  0.3634
   98SOL    HW1 1735   0.010   0.110   7.475  0.2381  1.2052  1.5993
   98SOL    HW2 1736   0.111   0.051   7.380 -1.3435  0.0816  0.5638
   99SOL     OW 1737   7.595   0.069  12.233 -0.4792 -0.2640  0.1753
   99SOL    HW1 1738   7.689   0.053  12.224 -0.6703 -1.2985 -0.0754
   99SOL    HW2 1739   7.553  -0.010  12.200 -1.4297 -0.1076  0.9374
  100SOL     OW 1740   7.593   1.691   4.593 -0.7332 -0.1505 -0.0739
  100SOL    HW1 1741   7.659   1.665   4.658 -0.0426 -0.5126 -0.9080
  100SOL    HW2 1742   7.631   1.667   4.509 -1.2691  1.0946 -0.6848
  101SOL     OW 1743   4.192   5.050   1.430 -0.3565 -0.1284  0.3147
  101SOL    HW1 1744   4.185   5.127   1.373 -1.1921  0.0220  0.6093
  101SOL    HW2 1745   4.117   4.995   1.405 -1.1484  0.2684  1.7472
  102SOL     OW 1746   0.771   1.242   3.721 -0.5230 -0.0798  0.4643
  102SOL    HW1 1747   0.837   1.309   3.701  2.0376 -2.0865  1.5364
  102SOL    HW2 1748   0.765   1.244   3.817 -0.9811 -0.8633  0.4537
  103SOL     OW 1749   2.277   5.481   6.792 -0.3716  0.5130 -0.4229
  103SOL    HW1 1750   2.217   5.429   6.845 -0.6625  1.8870  0.6466
  103SOL    HW2 1751   2.345   5.419   6.765 -0.2731 -0.2591  1.4682
  104SOL     OW 1752   5.086   3.455   6.648  0.5529  0.1842 -0.5461
  104SOL    HW1 1753   5.016   3.508   6.686  0.3603  0.6420 -1.5077
  104SOL    HW2 1754   5.094   3.380   6.707 -1.4003 -0.3641 -0.9164
  105SOL     OW 1755   1.301   3.887  11.420  0.5994  0.8892  0.4978
  105SOL    HW1 1756   1.362   3.913  11.351 -0.4781 -0.2198 -0.9237
  105SOL    HW2 1757   1.216   3.919  11.391  0.0008 -0.2436  0.9408
  106SOL     OW 1758   3.148   7.472   1.750  0.4389  0.5222 -0.0269
  106SOL    HW1 1759   3.168   7.541   1.687 -0.8889  1.1646  0.2198
  106SOL    HW2 1760   3.201   7.493   1.827  0.5143  0.9221 -0.1870
  107SOL     OW 1761   7.785   1.561   4.797  1.0089  0.4489 -0.1266
  107SOL    HW1 1762   7.761   1.488   4.740  1.2818  0.7590 -0.6435
  107SOL    HW2 1763   7.853   1.526   4.854 -0.0135 -0.1801  0.7545
  108SOL     OW 1764   7.730   4.521   8.931 -0.3608  0.1836 -0.0445
  108SOL    HW1 1765   7.818   4.510   8.894 -0.1216  1.5460  0.0914
  108SOL    HW2 1766   7.675   4.541   8.855 -0.9327 -2.2874 -0.3920
  109SOL     OW 1767   3.728   3.543   2.493  0.0967  0.5189 -0.2633
  109SOL    HW1 1768   3.814   3.506   2.513 -0.7161 -0.7113  1.1568
  109SOL    HW2 1769   3.705   3.506   2.408  1.1826  1.3143 -0.9384
  110SOL     OW 1770   0.657   7.683   3.310 -0.3610 -0.8248 -0.1555
  110SOL    HW1 1771   0.586   7.679   3.374 -0.8027 -0.3616 -0.6070
  110SOL    HW2 1772   0.636   7.759   3.256  0.7356 -0.3984  0.0059
  111SOL     OW 1773   6.085   2.236   4.279 -0.1209 -0.5016 -0.1350
  111SOL    HW1 1774   6.138   2.212   4.203 -0.7863 -1.8512 -0.1924
  111SOL    HW2 1775   6.017   2.293   4.243 -0.1350 -0.7259 -0.4666
  112SOL     OW 1776   0.528   7.624  11.685  0.0802 -0.6858  0.2986
  112SOL    HW1 1777   0.570   7.644  11.601  1.5319 -0.2569  1.0952
  112SOL    HW2 1778   0.504   7.532  11.678 -1.6266 -0.1922 -1.3077
  113SOL     OW 1779   1.473   6.254   3.718  0.5807  0.0504 -0.6703
  113SOL    HW1 1780   1.472   6.165   3.680  1.5925 -0.7267  1.0061
  113SOL    HW2 1781   1.520   6.306   3.653 -0.9379 -0.3528 -2.1784
  114SOL     OW 1782   4.275   0.491   1.215  0.0833  0.2500 -0.1761
  114SOL    HW1 1783   4.358   0.502   1.262 -0.6147 -1.6057  1.5921
  114SOL    HW2 1784   4.222   0.566   1.244 -0.3388 -0.8507  2.1370
  115SOL     OW 1785   2.185   2.271   4.177 -0.1467 -0.0557  0.4602
  115SOL    HW1 1786   2.249   2.314   4.121 -0.7309 -0.5853 -0.6524
  115SOL    HW2 1787   2.131   2.343   4.210  0.5999  0.3252  0.8767
  116SOL     OW 1788   0.354   6.691   7.435 -1.0318 -0.1325  0.1163
  116SOL    HW1 1789   0.273   6.640   7.437 -1.1437 -0.0780 -1.6009
  116SOL    HW2 1790   0.423   6.626   7.449 -1.2940 -0.4069  0.1591
  117SOL     OW 1791   4.573   6.596   4.931 -0.8626 -0.0997 -0.0216
  117SOL    HW1 1792   4.551   6.623   5.021  0.4706  0.1659  0.2401
  117SOL    HW2 1793   4.599   6.504   4.940 -0.2427  0.0709 -0.0477
  118SOL     OW 1794   4.070   3.208  12.213  0.0564  0.5413  0.3024
  118SOL    HW1 1795   4.115   3.124  12.203 -0.7882  0.0886  0.2187
  118SOL    HW2 1796   4.112   3.249  12.289 -0.5650 -0.6441  1.3155
  119SOL     OW 1797   0.791   5.986   4.444  0.3060 -0.2263 -0.0035
  119SOL    HW1 1798   0.804   6.081   4.442  2.2529 -0.4123  1.5941
  119SOL    HW2 1799   0.862   5.951   4.391  0.8086 -0.8743  1.0794
  120SOL     OW 1800   5.307   3.166  11.211  0.4523 -0.1073  0.0707
  120SOL    HW1 1801   5.272   3.082  11.182  0.0006 -0.3415  1.2470
  120SOL    HW2 1802   5.230   3.221  11.226  0.7876  1.2201 -2.6055
  121SOL     OW 1803   2.727   6.542   5.162  0.2111 -0.1465 -0.2017
  121SOL    HW1 1804   2.672   6.615   5.192 -0.9402 -0.5987 -1.1538
  121SOL    HW2 1805   2.675   6.464   5.181  0.6161 -0.5990 -0.9261
  122SOL     OW 1806   6.475   1.390   3.752  0.6215  0.1256  0.2394
  122SOL    HW1 1807   6.550   1.421   3.803  0.7813  0.7419 -0.3456
  122SOL    HW2 1808   6.399   1.403   3.808  0.6298  1.9673 -0.1058
  123SOL     OW 1809   2.009   2.608   1.009  0.0993 -0.1659  0.0127
  123SOL    HW1 1810   1.979   2.588   0.920  0.0589  0.8572 -0.2213
  123SOL    HW2 1811   1.961   2.547   1.064 -1.7665  0.7899 -0.4514
  124SOL     OW 1812   4.347   0.690  11.401  0.4100 -0.4619 -0.3384
  124SOL    HW1 1813   4.386   0.691  11.314 -0.3582  1.2674 -0.6935
  124SOL    HW2 1814   4.277   0.626  11.396  2.0041 -2.3114 -0.1966
  125SOL     OW 1815   7.886   4.410   8.039  0.3529  0.2960  0.4775
  125SOL    HW1 1816   7.885   4.315   8.036  0.9623  0.2817  0.5708
  125SOL    HW2 1817   7.813   4.434   8.095  0.4978 -0.1349  0.8472
  126SOL     OW 1818   6.562   2.706  11.663  0.0409  0.3517  0.2859
  126SOL    HW1 1819   6.524   2.627  11.624  0.4623  0.9603 -1.4277
  126SOL    HW2 1820   6.656   2.689  11.662  0.2518  1.4417 -1.4757
  127SOL     OW 1821   6.196   3.264  11.199  0.2802 -0.2550  0.4286
  127SOL    HW1 1822   6.216   3.283  11.107  2.3909  0.1566  0.9061
  127SOL    HW2 1823   6.119   3.316  11.219  0.5856  0.6944 -0.7561
  128SOL     OW 1824   0.106   2.459  12.133 -0.3134  0.4183 -0.1527
  128SOL    HW1 1825   0.093   2.374  12.174 -1.5404  0.3381 -0.6618
  128SOL    HW2 1826   0.188   2.450  12.085  0.8961  0.3516  1.7913
  129SOL     OW 1827   7.976   3.678   6.591 -0.0870 -0.2232  0.2946
  129SOL    HW1 1828   7.991   3.584   6.601  0.4992 -0.3885 -1.8030
  129SOL    HW2 1829   7.922   3.701   6.667 -0.4046 -2.2746  0.7541
  130SOL     OW 1830   4.951   0.537   5.076 -0.1338  0.1530  0.1362
  130SOL    HW1 1831   5.015   0.476   5.040 -0.8768 -0.4964 -0.1137
  130SOL    HW2 1832   4.919   0.586   5.000  1.9349  2.3598  0.5556
  131SOL     OW 1833   4.148   1.557   8.092 -0.0748 -0.0814 -0.5966
  131SOL    HW1 1834   4.078   1.612   8.057  0.4655  0.9923 -0.0570
  131SOL    HW2 1835   4.185   1.513   8.016 -0.3155  0.5570 -1.0904
  132SOL     OW 1836   6.604   4.641   4.510 -0.5822 -0.2189 -0.1456
  132SOL    HW1 1837   6.577   4.711   4.451 -1.1215  0.2560  0.6365
  132SOL    HW2 1838   6.522   4.604   4.543 -0.3021 -1.0915 -0.3886
  133SOL     OW 1839   5.615   3.673   0.605 -0.3085  0.4739 -0.1566
  133SOL    HW1 1840   5.663   3.709   0.680  0.3566 -0.5385 -0.0721
  133SOL    HW2 1841   5.682   3.626   0.555 -0.9909  0.0830 -0.7105
  134SOL     OW 1842   5.368   3.097   7.394 -0.1064 -0.0216 -0.6145
  134SOL    HW1 1843   5.444   3.155   7.398 -1.0716  1.2254  1.4178
  134SOL    HW2 1844   5.341   3.098   7.303  2.3910 -0.6567 -1.4310
  135SOL     OW 1845   6.024   6.493   4.232 -0.1702 -0.3015  0.8069
  135SOL    HW1 1846   6.090   6.539   4.179  0.1668  0.0926  1.5567
  135SOL    HW2 1847   5.942   6.539   4.213 -0.0792 -0.2539  0.5186
  136SOL     OW 1848   7.655   7.219   9.336  0.2946 -0.1447  0.0449
  136SOL    HW1 1849   7.747   7.231   9.359  0.5774 -1.9176 -0.0608
  136SOL    HW2 1850   7.614   7.188   9.417  0.3760 -2.0172 -0.5839
  137SOL     OW 1851   7.068   5.118   0.119  0.9409  0.0229  0.2501
  137SOL    HW1 1852   7.037   5.032   0.091  2.9342 -1.3120  1.7976
  137SOL    HW2 1853   7.067   5.114   0.215  1.8912  1.3795  0.3517
  138SOL     OW 1854   5.899   0.186   6.228  0.5682 -0.3338  0.3238
  138SOL    HW1 1855   5.903   0.262   6.287  1.7107 -0.1589  0.0492
  138SOL    HW2 1856   5.885   0.111   6.285 -1.2983  0.1398  0.5424
  139SOL     OW 1857   0.637   2.472   8.510  0.5249 -0.4626  0.1484
  139SOL    HW1 1858   0.545   2.495   8.524  0.5155 -1.2328  1.5416
  139SOL    HW2 1859   0.648   2.389   8.557  1.3978 -1.5415 -1.8097
  140SOL     OW 1860   7.950   3.788   9.386 -0.3558 -0.0541  0.2082
  140SOL    HW1 1861   7.966   3.729   9.460 -1.8863  0.3394  0.9002
  140SOL    HW2 1862   8.030   3.840   9.379 -0.3059  0.1611  1.8471
  141SOL     OW 1863   6.492   4.201   4.092  0.2244  0.3883  0.5909
  141SOL    HW1 1864   6.550   4.222   4.165  0.5001 -0.3953  0.6073
  141SOL    HW2 1865   6.422   4.266   4.097  0.8487  1.0611  0.8515
  142SOL     OW 1866   6.094   0.972   0.005 -0.5126 -0.4117 -0.3753
  142SOL    HW1 1867   6.086   1.053   0.055 -0.2461 -0.8196  0.3583
  142SOL    HW2 1868   6.152   0.993  -0.067  1.3202 -0.4662  1.0099
  143SOL     OW 1869   1.092   5.131   0.838 -0.1561  0.0655  0.3349
  143SOL    HW1 1870   1.051   5.182   0.908  0.8853 -0.3151  1.2367
  143SOL    HW2 1871   1.148   5.194   0.793 -2.0390  0.7244 -1.2411
  144SOL     OW 1872   4.074   1.686   9.104  0.1509 -0.1376  0.5893
  144SOL    HW1 1873   3.990   1.640   9.098  0.2591 -0.3712  0.8343
  144SOL    HW2 1874   4.093   1.687   9.198  0.1157  0.4738  0.5938
  145SOL     OW 1875   5.933   6.121   9.088  0.2026  0.2105 -0.0768
  145SOL    HW1 1876   5.850   6.080   9.114  0.2945 -0.0420 -0.1816
  145SOL    HW2 1877   5.993   6.048   9.074  1.4829  0.3997  3.3257
  146SOL     OW 1878   1.202   2.898   1.540  0.4089 -0.3572  0.3374
  146SOL    HW1 1879   1.194   2.913   1.634  1.9641 -0.4255  0.5075
  146SOL    HW2 1880   1.267   2.962   1.511  0.2571 -0.6228 -0.6075
  147SOL     OW 1881   2.995   5.273  11.853 -0.4862  0.3656 -0.4724
  147SOL    HW1 1882   3.053   5.214  11.902 -0.0342  0.3396 -1.0281
  147SOL    HW2 1883   3.055   5.329  11.804 -0.8857  1.6309  0.4145
  148SOL     OW 1884   7.367   4.065   8.242 -0.2635  0.8134  0.0254
  148SOL    HW1 1885   7.369   4.104   8.330 -0.5638  1.2521 -0.1625
  148SOL    HW2 1886   7.327   4.132   8.187 -2.4618 -0.4189  0.0225
  149SOL     OW 1887   7.645   0.494   4.801 -0.1960 -0.7438 -0.0120
  149SOL    HW1 1888   7.729   0.529   4.829 -0.4855 -1.0360  1.2637
  149SOL    HW2 1889   7.606   0.565   4.748  1.5759 -1.2655 -2.1646
  150SOL     OW 1890   7.076   7.065   8.806  0.1523  0.2310 -0.7369
  150SOL    HW1 1891   7.036   6.988   8.847  0.3121  0.5544  0.0547
  150SOL    HW2 1892   7.168   7.042   8.797  0.9404  1.4380  2.5051
  151SOL     OW 1893   6.643   5.349   8.309 -0.8294  0.0380  0.4255
  151SOL    HW1 1894   6.674   5.393   8.229 -0.1538  0.3566  0.8487
  151SOL    HW2 1895   6.710   5.370   8.375 -2.6145  1.8974  1.7786
  152SOL     OW 1896   2.812   2.389   4.872  0.5967 -0.0637 -0.1228
  152SOL    HW1 1897   2.892   2.386   4.818  0.1250 -1.6032 -0.8155
  152SOL    HW2 1898   2.741   2.387   4.808 -0.0395  2.0365  0.4657
  153SOL     OW 1899   5.922   2.487   8.194 -0.1803 -0.1438 -0.7180
  153SOL    HW1 1900   5.951   2.411   8.144  0.0411 -0.7602  0.3189
  153SOL    HW2 1901   5.832   2.466   8.219 -0.0264 -0.2023 -0.1954
  154SOL     OW 1902   1.738   6.501   3.506 -0.1121 -0.1040 -0.0506
  154SOL    HW1 1903   1.765   6.431   3.565 -2.1053 -1.9882 -1.1984
  154SOL    HW2 1904   1.730   6.578   3.562  2.0692 -0.7467  1.2763
  155SOL     OW 1905   6.806   4.886   1.651 -0.7348 -0.1988 -0.5320
  155SOL    HW1 1906   6.839   4.975   1.638 -0.6572  0.1523  1.6185
  155SOL    HW2 1907   6.718   4.898   1.686  0.0889 -0.8204  1.9701
  156SOL     OW 1908   4.163   7.366   5.660 -0.5964  0.2907  0.6061
  156SOL    HW1 1909   4.219   7.443   5.662 -1.2036  0.7869 -0.4055
  156SOL    HW2 1910   4.083   7.393   5.706 -0.9903  0.4339 -0.1402
  157SOL     OW 1911   1.152   2.043   0.797  0.0520  0.2123 -0.0925
  157SOL    HW1 1912   1.176   2.132   0.770 -1.6402  0.9902  0.7592
  157SOL    HW2 1913   1.098   2.010   0.725 -2.1486  1.2370  0.9623
  158SOL     OW 1914   4.843   0.142   5.757  0.3924 -0.0903  0.7147
  158SOL    HW1 1915   4.865   0.229   5.791 -0.2618  0.1156  0.6375
  158SOL    HW2 1916   4.845   0.085   5.835  0.9586 -0.0392  0.7422
  159SOL     OW 1917   5.184   7.471  10.580 -0.0470  0.0201 -0.4056
  159SOL    HW1 1918   5.267   7.430  10.603  0.6863  0.1879 -2.4797
  159SOL    HW2 1919   5.118   7.404  10.598  0.5573 -0.2288  0.9735
  160SOL     OW 1920   3.991   1.989   7.186  0.2058 -0.4204  0.7404
  160SOL    HW1 1921   3.928   2.062   7.184 -0.6829 -1.1089 -2.3857
  160SOL    HW2 1922   3.992   1.960   7.277 -1.9791  1.3379  1.4104
  161SOL     OW 1923   6.004   5.066   4.740 -0.3027  0.0654 -0.1141
  161SOL    HW1 1924   5.963   4.986   4.772  1.2147 -0.3499  0.8954
  161SOL    HW2 1925   6.046   5.041   4.658 -0.0770 -0.1147  0.0533
  162SOL     OW 1926   1.054   1.367   1.357 -1.0802 -0.3503 -0.1845
  162SOL    HW1 1927   0.966   1.395   1.380 -0.7400  0.3214  0.3618
  162SOL    HW2 1928   1.089   1.331   1.438 -0.8411 -0.5747 -0.3864
  163SOL     OW 1929   1.457   7.587   2.099 -0.3839 -0.1447 -0.1207
  163SOL    HW1 1930   1.396   7.558   2.031 -0.7879  0.9763 -0.2643
  163SOL    HW2 1931   1.483   7.675   2.071  0.1789 -0.0490  0.6882
  164SOL     OW 1932   5.227   2.275   0.237  0.4258 -0.3407 -0.4295
  164SOL    HW1 1933   5.198   2.354   0.284 -0.1933 -0.6684 -0.2579
  164SOL    HW2 1934   5.269   2.309   0.158  1.6179  0.2257  0.4216
  165SOL     OW 1935   1.343   4.217   1.024 -0.2314 -0.1623  0.0882
  165SOL    HW1 1936   1.376   4.277   0.958 -0.0072 -0.6951 -0.2957
  165SOL    HW2 1937   1.312   4.141   0.974  0.1709 -0.6766  0.6028
  166SOL     OW 1938   7.387   6.131   3.689 -0.4019  0.0628  0.2869
  166SOL    HW1 1939   7.315   6.106   3.631 -1.9037  1.6966  1.3471
  166SOL    HW2 1940   7.368   6.084   3.771 -1.5714  2.1684  1.2974
  167SOL     OW 1941   2.714   5.226   0.505 -0.1306 -0.0511  0.3180
  167SOL    HW1 1942   2.718   5.130   0.506  0.5809 -0.0273  0.2672
  167SOL    HW2 1943   2.795   5.252   0.460 -0.0157  0.5914  0.8952
  168SOL     OW 1944   0.149   5.216   2.345 -0.0698  0.4667  0.4446
  168SOL    HW1 1945   0.132   5.310   2.348 -0.6912  0.3791 -0.3277
  168SOL    HW2 1946   0.244   5.209   2.331 -0.0146  0.9735  0.5669
  169SOL     OW 1947   6.117   7.420  12.102  0.8413 -0.1329  0.7703
  169SOL    HW1 1948   6.030   7.451  12.127  0.9071 -0.2135  1.0960
  169SOL    HW2 1949   6.101   7.350  12.040  0.6898  0.7233 -0.1906
  170SOL     OW 1950   1.523   6.310   9.805 -0.4678  0.1804 -0.5229
  170SOL    HW1 1951   1.536   6.400   9.835 -1.2654  0.0293  0.3264
  170SOL    HW2 1952   1.506   6.319   9.711  0.6575  0.7934 -0.6829
  171SOL     OW 1953   5.548   4.668   2.177  0.4097  0.0718  0.0533
  171SOL    HW1 1954   5.604   4.619   2.116  1.1677  1.8769 -0.7900
  171SOL    HW2 1955   5.463   4.674   2.132  0.4345 -0.1379 -0.0192
  172SOL     OW 1956   1.434   1.923   3.166 -0.1572 -0.7797  0.2708
  172SOL    HW1 1957   1.402   1.840   3.200 -1.7649 -0.3010  0.0105
  172SOL    HW2 1958   1.424   1.915   3.071  0.9975 -0.7875  0.1283
  173SOL     OW 1959   5.552   7.717   3.913 -0.1923 -0.7619  0.0972
  173SOL    HW1 1960   5.473   7.666   3.898 -0.9868  0.7620 -1.1916
  173SOL    HW2 1961   5.521   7.800   3.950  0.5259  0.6627 -2.2544
  174SOL     OW 1962   3.963   4.422   4.654  1.0945 -0.1674 -0.4655
  174SOL    HW1 1963   3.948   4.375   4.572  1.4019  0.5598 -0.9463
  174SOL    HW2 1964   3.993   4.355   4.715  0.7767 -0.7318 -0.9181
  175SOL     OW 1965   5.301   0.328   8.245 -0.0355  0.1045 -0.2514
  175SOL    HW1 1966   5.251   0.387   8.302  0.2989  0.6616 -0.5261
  175SOL    HW2 1967   5.391   0.361   8.249  0.0137  0.0683 -0.9956
  176SOL     OW 1968   0.813   7.916   2.463  0.3620  0.9140 -0.8033
  176SOL    HW1 1969   0.882   7.914   2.529  0.4529 -0.3600 -0.9095
  176SOL    HW2 1970   0.740   7.961   2.506  0.4942  0.3023  0.0899
  177SOL     OW 1971   4.156   1.639   4.735 -0.0434 -0.5946 -0.2357
  177SOL    HW1 1972   4.110   1.678   4.809  0.0706 -2.2485  0.7533
  177SOL    HW2 1973   4.116   1.680   4.658 -1.6230 -0.3538  0.6590
  178SOL     OW 1974   3.125   2.051   8.473 -0.0459  0.3004 -0.2599
  178SOL    HW1 1975   3.180   2.007   8.407  0.8485  1.3694 -0.2614
  178SOL    HW2 1976   3.167   2.136   8.486 -1.6698  1.1292 -0.1827
  179SOL     OW 1977   6.044   3.396   8.515 -0.0896 -0.5514  0.1442
  179SOL    HW1 1978   6.076   3.474   8.470  1.4081 -0.3465  1.4861
  179SOL    HW2 1979   6.031   3.332   8.445  1.5462 -0.0418 -0.6898
  180SOL     OW 1980   5.877   6.950   8.673  0.0627 -0.4221 -0.2762
  180SOL    HW1 1981   5.911   6.995   8.751 -1.5747  0.8808 -0.2748
  180SOL    HW2 1982   5.949   6.954   8.610 -0.2144  2.8659 -0.5237
  181SOL     OW 1983   0.993   7.094  11.309  0.3207 -0.4394  0.2574
  181SOL    HW1 1984   0.994   7.094  11.214 -1.3335  0.6766  0.1976
  181SOL    HW2 1985   1.052   7.165  11.334  0.8099 -0.7783  0.0800
  182SOL     OW 1986   0.672   1.815  11.181 -0.0799  0.3549  0.1957
  182SOL    HW1 1987   0.732   1.751  11.143 -1.7550 -0.0284 -2.0398
  182SOL    HW2 1988   0.697   1.898  11.141 -3.0605 -0.3344 -3.7308
  183SOL     OW 1989   3.173   3.399   3.512 -0.7042 -0.1049 -0.0339
  183SOL    HW1 1990   3.181   3.372   3.604 -1.5142  0.1181  0.1151
  183SOL    HW2 1991   3.250   3.453   3.496 -1.2146  0.9453  0.9168
  184SOL     OW 1992   0.690   4.764   6.493 -0.6456 -0.3915  1.0111
  184SOL    HW1 1993   0.749   4.692   6.470 -0.3998  0.0603  0.1821
  184SOL    HW2 1994   0.605   4.736   6.461 -0.3652  0.0933 -0.2211
  185SOL     OW 1995   4.341   6.305   0.869 -0.9009  0.1646  0.1799
  185SOL    HW1 1996   4.286   6.319   0.792 -3.1892 -0.3895  1.6201
  185SOL    HW2 1997   4.342   6.389   0.914  2.0190  1.0638 -1.2841
  186SOL     OW 1998   6.285   7.717   2.309 -0.5498  0.2458 -0.4055
  186SOL    HW1 1999   6.330   7.800   2.323 -1.3313  0.4052  1.4660
  186SOL    HW2 2000   6.241   7.726   2.225  0.6590  1.0977 -0.9769
  187SOL     OW 2001   3.143   5.316   0.131  0.0770  0.2342  0.7731
  187SOL    HW1 2002   3.150   5.262   0.052  0.2540  0.8573  0.3616
  187SOL    HW2 2003   3.139   5.252   0.203 -0.6703 -0.3484  0.2272
  188SOL     OW 2004   3.350   5.535   6.467  0.0066  0.5481  0.3610
  188SOL    HW1 2005   3.339   5.616   6.418 -0.9142  0.6567  0.7313
  188SOL    HW2 2006   3.319   5.467   6.408 -2.5518  0.8179  1.2694
  189SOL     OW 2007   7.861   5.780   5.719  0.5372  0.0947  0.1703
  189SOL    HW1 2008   7.956   5.780   5.726  0.4608  1.1378  1.5906
  189SOL    HW2 2009   7.830   5.806   5.805 -1.1203 -1.9792  0.2753
  190SOL     OW 2010   1.600   5.556  12.404  0.4859  0.0601 -0.1533
  190SOL    HW1 2011   1.632   5.633  12.358  1.0263  0.0029  0.1193
  190SOL    HW2 2012   1.507   5.574  12.420  0.1780 -0.1066 -1.6375
  191SOL     OW 2013   7.357   2.945  11.147  0.1936 -0.0343 -0.5404
  191SOL    HW1 2014   7.274   2.927  11.191 -0.2166 -2.0447 -1.9644
  191SOL    HW2 2015   7.402   2.860  11.145  2.3388  1.0260  0.2439
  192SOL     OW 2016   2.150   7.958   9.137  0.0464  0.0002  0.2620
  192SOL    HW1 2017   2.147   8.032   9.076  0.0403  0.5936  0.9657
  192SOL    HW2 2018   2.156   7.999   9.223 -0.5485 -0.8154  0.7014
  193SOL     OW 2019   2.768   0.676   0.974  0.3010 -0.4284  0.3949
  193SOL    HW1 2020   2.750   0.589   0.938  0.4045 -0.1969 -0.2210
  193SOL    HW2 2021   2.684   0.704   1.011 -0.8964  0.8844 -2.9508
  194SOL     OW 2022   4.531   2.144   2.937  0.2227 -0.2292 -0.3901
  194SOL    HW1 2023   4.578   2.193   2.869  0.8305 -0.8735 -0.4428
  194SOL    HW2 2024   4.593   2.077   2.965 -0.2568 -0.3628  0.3619
  195SOL     OW 2025   2.787   6.543  11.072 -0.1319  0.1106 -0.3786
  195SOL    HW1 2026   2.712   6.500  11.033  0.3264 -0.4548 -0.6540
  195SOL    HW2 2027   2.808   6.491  11.149  1.1943 -0.9417 -1.3978
  196SOL     OW 2028   6.652   6.521   9.413 -0.1484  0.0176  0.1074
  196SOL    HW1 2029   6.563   6.556   9.423  0.3504  1.0137  1.3830
  196SOL    HW2 2030   6.671   6.529   9.320 -0.8200  1.2865  0.0631
  197SOL     OW 2031   6.505   0.714  10.464  0.5036 -0.2078  0.1813
  197SOL    HW1 2032   6.436   0.753  10.410 -0.9984  2.3112  3.5039
  197SOL    HW2 2033   6.585   0.759  10.436 -0.4954  2.2672  0.9605
  198SOL     OW 2034   4.738   5.210   3.499 -0.3856  0.0835 -0.2194
  198SOL    HW1 2035   4.720   5.196   3.592 -1.9940 -0.8298 -0.6266
  198SOL    HW2 2036   4.697   5.294   3.479 -2.5698 -1.0328 -0.6857
  199SOL     OW 2037   3.370   3.370   8.439 -0.4596 -0.7220 -0.0029
  199SOL    HW1 2038   3.352   3.319   8.518 -1.5549 -0.7220 -0.2283
  199SOL    HW2 2039   3.318   3.326   8.371 -0.8127  0.2399 -0.3685
  200SOL     OW 2040   2.928   3.964   2.422 -0.5656  0.7507  1.0660
  200SOL    HW1 2041   2.878   3.890   2.456 -1.1078  0.4785 -0.2715
  200SOL    HW2 2042   3.019   3.945   2.447 -0.6869 -0.4164  0.6542
  201SOL     OW 2043   4.727   7.391  10.932  0.1810 -0.1478  0.1307
  201SOL    HW1 2044   4.692   7.469  10.890  0.3991  0.4227  0.9756
  201SOL    HW2 2045   4.651   7.353  10.977 -0.0707 -0.8041 -0.8188
  202SOL     OW 2046   7.693   6.049   8.554 -0.4582  0.2098  0.2857
  202SOL    HW1 2047   7.631   6.001   8.499 -0.3363  0.1979  0.1581
  202SOL    HW2 2048   7.654   6.046   8.642 -0.5992  0.1352  0.2221
  203SOL     OW 2049   6.408   5.453   2.029 -0.4275 -0.2333  0.5057
  203SOL    HW1 2050   6.378   5.526   1.974 -0.3100  0.5393  1.4413
  203SOL    HW2 2051   6.503   5.451   2.017 -0.5145 -0.7551 -0.1377
  204SOL     OW 2052   6.566   7.842   8.027 -0.0648 -0.1622  0.4123
  204SOL    HW1 2053   6.622   7.805   7.958 -2.2931 -0.0939 -1.5641
  204SOL    HW2 2054   6.555   7.770   8.089  1.3857 -0.4721  0.3652
  205SOL     OW 2055   7.683   0.226   3.345  0.4311  0.6549  0.0378
  205SOL    HW1 2056   7.710   0.265   3.428  1.2755 -0.4356  0.2886
  205SOL    HW2 2057   7.701   0.133   3.355 -0.4158  0.3615 -1.0043
  206SOL     OW 2058   1.194   6.818   1.508  0.0889  0.1141 -0.1542
  206SOL    HW1 2059   1.226   6.908   1.519 -0.3823  0.1151  1.3629
  206SOL    HW2 2060   1.184   6.785   1.597 -1.8654 -0.6773 -0.6281
  207SOL     OW 2061   6.339   0.602   4.949  0.3778  0.2151 -0.6440
  207SOL    HW1 2062   6.267   0.637   5.002  0.9840 -0.3492  0.6067
  207SOL    HW2 2063   6.349   0.664   4.877 -1.3195  0.3309 -0.8203
  208SOL     OW 2064   4.626   4.084   8.259 -0.3455 -0.5119  0.8178
  208SOL    HW1 2065   4.685   4.126   8.322 -0.7999  0.7147  0.4655
  208SOL    HW2 2066   4.542   4.128   8.272 -0.3921 -0.0475 -0.8012
  209SOL     OW 2067   5.867   7.450   7.365  0.1906 -0.6115  0.1509
  209SOL    HW1 2068   5.889   7.480   7.453  1.3873  1.4997 -0.7835
  209SOL    HW2 2069   5.823   7.525   7.324 -0.6882 -1.6736 -0.9582
  210SOL     OW 2070   3.664   1.899   1.629  0.6825 -0.1045 -0.0799
  210SOL    HW1 2071   3.737   1.843   1.604 -0.0785 -0.7989 -0.7970
  210SOL    HW2 2072   3.659   1.965   1.561 -1.0352 -1.6661 -1.5943
  211SOL     OW 2073   4.286   3.024  11.238 -0.2065 -0.3555  0.1262
  211SOL    HW1 2074   4.249   3.101  11.194 -0.5284  0.5732  1.8923
  211SOL    HW2 2075   4.333   2.977  11.170 -0.4582  1.1261 -1.1260
  212SOL     OW 2076   5.347   0.182   7.888 -0.3184 -0.2413 -0.8657
  212SOL    HW1 2077   5.267   0.203   7.935 -0.6129 -4.4501  0.9740
  212SOL    HW2 2078   5.320   0.170   7.797 -1.2431  0.8622 -0.7464
  213SOL     OW 2079   5.612   2.653  11.278 -0.1738  0.0420  0.2211
  213SOL    HW1 2080   5.596   2.566  11.241 -1.6582  0.0943  0.6925
  213SOL    HW2 2081   5.535   2.672  11.330  0.4675  1.3388  0.7467
  214SOL     OW 2082   0.253   4.463  11.231 -0.4475  0.3676 -0.1591
  214SOL    HW1 2083   0.190   4.532  11.212 -1.0715 -0.3356 -0.7034
  214SOL    HW2 2084   0.204   4.399  11.282 -0.1754 -0.1842 -0.5767
  215SOL     OW 2085   1.404   7.468   9.997  0.0802 -0.0793 -0.2422
  215SOL    HW1 2086   1.466   7.536   9.970  0.9902 -0.2537  1.2650
  215SOL    HW2 2087   1.435   7.389   9.954 -1.0336  0.4289 -2.0749
  216SOL     OW 2088   1.986   2.941   8.353 -0.4979 -0.3126  0.0431
  216SOL    HW1 2089   1.902   2.949   8.397 -0.1016  3.0179  0.4968
  216SOL    HW2 2090   2.038   2.885   8.411 -1.1059  1.0974  2.0675
  217SOL     OW 2091   4.056   1.013   2.256  0.4805 -0.5080  0.2926
  217SOL    HW1 2092   4.006   1.041   2.333  0.6945 -0.6047  0.4661
  217SOL    HW2 2093   4.134   1.068   2.257  0.1489 -0.0081 -0.2573
  218SOL     OW 2094   1.682   4.151  11.724 -0.6045 -0.3011 -0.5948
  218SOL    HW1 2095   1.706   4.234  11.684  0.3264 -0.2463  0.0242
  218SOL    HW2 2096   1.645   4.099  11.653 -1.4490  0.7273 -0.9294
  219SOL     OW 2097   6.319   7.719   6.441  0.9289 -0.1274 -0.0716
  219SOL    HW1 2098   6.279   7.733   6.355  0.5826 -1.1423 -0.0871
  219SOL    HW2 2099   6.377   7.643   6.429  0.6674 -0.4538  0.6573
  220SOL     OW 2100   1.736   5.847  10.185 -0.1220  0.0872  0.3847
  220SOL    HW1 2101   1.811   5.906  10.189  0.0960 -0.1287 -0.4391
  220SOL    HW2 2102   1.773   5.763  10.161 -0.6730  0.0722 -0.4394
  221SOL     OW 2103   2.954   2.873   2.392 -0.3816 -0.1094 -0.3207
  221SOL    HW1 2104   2.913   2.852   2.477 -1.9266  0.7395 -0.8157
  221SOL    HW2 2105   2.886   2.852   2.328  0.2883  0.5287 -1.2494
  222SOL     OW 2106   0.329   5.627   7.431  0.0397  0.1350 -0.1142
  222SOL    HW1 2107   0.261   5.627   7.364 -0.1825 -2.9749 -0.0313
  222SOL    HW2 2108   0.411   5.639   7.383 -0.3486  1.5462 -0.4704
  223SOL     OW 2109   7.855   4.641  11.225 -0.4532 -0.1879 -0.1680
  223SOL    HW1 2110   7.827   4.594  11.146  1.2320 -0.7066 -0.4969
  223SOL    HW2 2111   7.948   4.659  11.210  0.2848 -1.4916  2.2616
  224SOL     OW 2112   5.643   2.413   3.551 -0.4430  0.2755  0.0087
  224SOL    HW1 2113   5.651   2.452   3.464  1.1995  1.9720  0.8431
  224SOL    HW2 2114   5.581   2.469   3.597  0.0017  0.4318  0.4348
  225SOL     OW 2115   4.368   5.234   5.704  0.3868 -0.0841 -0.2648
  225SOL    HW1 2116   4.438   5.209   5.644  0.9950 -0.6570  0.6697
  225SOL    HW2 2117   4.380   5.178   5.781 -0.3295  0.6844  0.4313
  226SOL     OW 2118   0.267   5.232   2.960  0.0907  0.2263  0.4002
  226SOL    HW1 2119   0.306   5.179   3.030 -1.2534  0.6634  1.5363
  226SOL    HW2 2120   0.195   5.279   3.003  1.1625  2.9497 -0.5589
  227SOL     OW 2121   3.082   1.007  11.625  0.2010  0.3824 -0.5554
  227SOL    HW1 2122   3.120   0.970  11.545  1.7823  0.7222 -0.0081
  227SOL    HW2 2123   2.990   1.021  11.604  0.0857 -1.5779 -1.5824
  228SOL     OW 2124   1.496   5.258   9.753 -0.1894 -0.1241 -0.2892
  228SOL    HW1 2125   1.495   5.195   9.826 -0.9385 -1.0901 -1.0980
  228SOL    HW2 2126   1.408   5.295   9.752 -0.3545 -0.5049 -1.0037
  229SOL     OW 2127   0.612   2.492   6.085  0.0936  0.0203 -0.1102
  229SOL    HW1 2128   0.586   2.545   6.010 -0.3017 -0.0927 -0.0501
  229SOL    HW2 2129   0.656   2.416   6.047  1.3101  0.7318 -0.1783
  230SOL     OW 2130   0.233   6.337   6.710  0.1825  0.3092 -0.4385
  230SOL    HW1 2131   0.227   6.424   6.672 -0.0770  0.1174 -0.8468
  230SOL    HW2 2132   0.173   6.284   6.658  1.0235 -0.3235 -0.7955
  231SOL     OW 2133   4.156   1.055   4.647 -0.4768 -0.4762  0.6140
  231SOL    HW1 2134   4.215   1.105   4.591 -1.2127 -0.3972 -0.1084
  231SOL    HW2 2135   4.187   1.073   4.736  1.2254 -1.2647  0.2135
  232SOL     OW 2136   4.882   3.440   7.065 -0.0399  0.3802  0.3247
  232SOL    HW1 2137   4.975   3.462   7.076  0.3094 -1.2211  0.8688
  232SOL    HW2 2138   4.861   3.389   7.144 -1.1370 -0.0353 -0.2249
  233SOL     OW 2139   4.459   0.303   0.908 -1.0485 -0.4538  0.0321
  233SOL    HW1 2140   4.515   0.226   0.902 -0.4903  0.0255 -1.2839
  233SOL    HW2 2141   4.520   0.375   0.925 -1.4515 -0.1516  0.2154
  234SOL     OW 2142   2.553   5.294   0.304  0.0187  0.3752  0.0200
  234SOL    HW1 2143   2.466   5.267   0.334 -0.1665  1.0133  0.0782
  234SOL    HW2 2144   2.612   5.266   0.374 -0.1064 -0.2820 -0.1338
  235SOL     OW 2145   5.204   7.829   8.119  0.2114 -0.0631 -1.1059
  235SOL    HW1 2146   5.217   7.793   8.032  0.1591  1.8812 -1.9835
  235SOL    HW2 2147   5.284   7.878   8.137  0.0186 -0.0358 -0.2735
  236SOL     OW 2148   5.272   6.800   7.603 -1.1681  0.0051 -0.2555
  236SOL    HW1 2149   5.225   6.843   7.532  1.1197  0.9345 -1.2856
  236SOL    HW2 2150   5.325   6.733   7.560  0.5896  0.8708  0.4532
  237SOL     OW 2151   3.002   2.000   1.491  0.0786 -0.0743  0.3928
  237SOL    HW1 2152   2.995   2.087   1.450  0.9570 -0.8167 -1.4365
  237SOL    HW2 2153   2.913   1.979   1.517 -0.3845  0.8179 -0.3870
  238SOL     OW 2154   4.559   2.699   7.537 -0.4807 -0.1339 -0.0434
  238SOL    HW1 2155   4.584   2.747   7.458  1.3795 -0.3345  0.3831
  238SOL    HW2 2156   4.638   2.697   7.590 -1.5111 -0.5913  1.5452
  239SOL     OW 2157   2.195   6.794   3.066  0.6513  0.8460 -0.0447
  239SOL    HW1 2158   2.108   6.814   3.031 -0.1124 -0.6205  0.9162
  239SOL    HW2 2159   2.252   6.792   2.989 -0.4863  0.2045 -0.8958
  240SOL     OW 2160   2.591   2.886   3.380 -1.3074  0.5890  0.1029
  240SOL    HW1 2161   2.660   2.829   3.347 -1.6604 -0.5842  1.2911
  240SOL    HW2 2162   2.580   2.953   3.312 -0.8477 -0.7227 -1.3236
  241SOL     OW 2163   2.054   6.699  10.729 -0.2898  0.1260 -0.0940
  241SOL    HW1 2164   1.977   6.751  10.706 -0.4526  0.1202  0.4247
  241SOL    HW2 2165   2.076   6.726  10.818  0.9313  0.8658 -0.5995
  242SOL     OW 2166   1.757   5.090  12.355  0.1234 -0.5090  0.3199
  242SOL    HW1 2167   1.793   5.055  12.275 -1.9981 -0.1232 -0.8829
  242SOL    HW2 2168   1.761   5.185  12.344  0.2628 -0.4414  0.8926
  243SOL     OW 2169   3.509   0.097   2.695 -0.0275 -0.0013  0.1462
  243SOL    HW1 2170   3.440   0.048   2.739  0.7366 -1.7178 -0.4729
  243SOL    HW2 2171   3.463   0.168   2.649 -1.0776  0.3249  1.6503
  244SOL     OW 2172   4.465   5.205   1.953  0.0482  0.4829  0.0727
  244SOL    HW1 2173   4.431   5.273   1.895 -0.3409 -0.6052 -1.0407
  244SOL    HW2 2174   4.431   5.123   1.915  0.8335 -0.3533  1.1213
  245SOL     OW 2175   1.919   3.718   5.445  0.0641 -0.0795  0.1154
  245SOL    HW1 2176   1.871   3.672   5.376 -2.0318 -1.5087  2.3881
  245SOL    HW2 2177   1.970   3.784   5.398 -0.6117 -1.5056 -2.8484
  246SOL     OW 2178   6.798   5.888   3.335  0.1365 -0.0128  0.2139
  246SOL    HW1 2179   6.864   5.848   3.392 -0.3737 -2.6292 -0.8498
  246SOL    HW2 2180   6.722   5.829   3.342 -1.6352  2.1663  0.3715
  247SOL     OW 2181   2.936   2.929   1.735 -0.4481 -0.3233  0.1316
  247SOL    HW1 2182   2.963   3.017   1.759 -1.0590  0.0387 -0.4781
  247SOL    HW2 2183   2.877   2.941   1.660  0.5480 -1.3239 -0.8729
  248SOL     OW 2184   0.875   5.582   1.546  0.0329 -0.0944 -0.0943
  248SOL    HW1 2185   0.939   5.519   1.512 -0.2302 -0.9913  1.0189
  248SOL    HW2 2186   0.914   5.667   1.527  0.7797 -0.5918 -0.9101
  249SOL     OW 2187   4.347   0.777   6.604  0.1491 -0.3197 -0.0367
  249SOL    HW1 2188   4.281   0.727   6.652 -0.1271 -1.7205 -1.7644
  249SOL    HW2 2189   4.429   0.762   6.651 -0.4771  0.1995  1.2537
  250SOL     OW 2190   7.717   4.727   5.197  0.6442 -0.0300  0.7292
  250SOL    HW1 2191   7.807   4.755   5.210  0.4764  0.5955  0.5683
  250SOL    HW2 2192   7.702   4.738   5.103  0.5624 -0.6328  0.6655
  251SOL     OW 2193   1.984   1.765   4.401  0.6515  0.0559  0.2892
  251SOL    HW1 2194   1.959   1.719   4.481  1.7796 -0.7761  0.1841
  251SOL    HW2 2195   1.955   1.856   4.416  0.3395 -0.2074  1.3967
  252SOL     OW 2196   1.806   1.967   1.677 -0.7099  0.1503  0.6104
  252SOL    HW1 2197   1.742   1.990   1.610  1.2041  3.2692 -0.3953
  252SOL    HW2 2198   1.876   1.923   1.629 -0.6768 -0.4055  1.1525
  253SOL     OW 2199   7.242   0.377  12.349  0.5933 -0.4434  0.0630
  253SOL    HW1 2200   7.312   0.340  12.295  0.9445  0.0624  0.1558
  253SOL    HW2 2201   7.209   0.451  12.298  0.2293 -0.5905  0.0883
  254SOL     OW 2202   4.565   6.842   1.074 -0.1096  0.1791  0.4086
  254SOL    HW1 2203   4.625   6.830   1.147 -1.2692 -0.1920  1.3331
  254SOL    HW2 2204   4.611   6.805   0.998  0.7793 -0.1610  1.1027
  255SOL     OW 2205   2.251   1.839   3.417  0.1551 -0.3006  0.3921
  255SOL    HW1 2206   2.193   1.910   3.444  1.8383  0.7409  1.4188
  255SOL    HW2 2207   2.319   1.836   3.485  2.5993  0.0516 -1.8718
  256SOL     OW 2208   7.534   4.446   9.320  0.1533  0.0523  0.2940
  256SOL    HW1 2209   7.593   4.487   9.383  1.1390 -2.6769  1.2865
  256SOL    HW2 2210   7.530   4.509   9.248  1.3137  1.9800  1.7836
  257SOL     OW 2211   7.404   3.227   7.278  0.3555 -0.0570  0.1254
  257SOL    HW1 2212   7.464   3.188   7.342  0.7009 -1.3948 -0.9726
  257SOL    HW2 2213   7.366   3.302   7.324  0.0836 -1.3528  2.1428
  258SOL     OW 2214   1.333   4.499   1.557 -0.0138 -0.8260 -0.3169
  258SOL    HW1 2215   1.394   4.572   1.554 -1.5603  0.5454 -0.0775
  258SOL    HW2 2216   1.373   4.432   1.503  1.8783 -0.1502  0.1734
  259SOL     OW 2217   7.323   2.261   9.005  0.0816 -0.1066 -0.2991
  259SOL    HW1 2218   7.390   2.195   8.988  0.1362 -0.1190 -0.0406
  259SOL    HW2 2219   7.367   2.345   8.990  0.0682 -0.1220 -0.4289
  260SOL     OW 2220   3.672   1.095   2.931 -0.2935 -0.2797 -0.2966
  260SOL    HW1 2221   3.602   1.030   2.941 -0.1065 -0.3013  1.0514
  260SOL    HW2 2222   3.749   1.044   2.909 -0.7001 -0.2436 -1.9435
  261SOL     OW 2223   4.877   0.056   6.576  0.0844 -0.5694  0.6188
  261SOL    HW1 2224   4.793   0.090   6.544  0.5169  0.1318  0.1812
  261SOL    HW2 2225   4.905   0.118   6.643  1.5496  0.8224 -1.1483
  262SOL     OW 2226   5.646   0.017  10.449  0.1023 -0.6210  0.5819
  262SOL    HW1 2227   5.619   0.013  10.540 -1.3349 -0.6257  0.1835
  262SOL    HW2 2228   5.678   0.106  10.437 -1.3133 -0.0709  0.6965
  263SOL     OW 2229   6.344   4.265   0.376 -0.3137  0.8508  0.3356
  263SOL    HW1 2230   6.349   4.338   0.314 -1.7638  0.7070  0.0164
  263SOL    HW2 2231   6.307   4.303   0.455 -1.0563  0.4843  0.1752
  264SOL     OW 2232   3.218   2.878   2.781 -0.1724 -0.4374  0.3591
  264SOL    HW1 2233   3.311   2.896   2.791 -0.4674  2.4404 -1.0862
  264SOL    HW2 2234   3.206   2.867   2.686 -1.4071  0.1246  0.4258
  265SOL     OW 2235   5.297   7.889  10.638 -0.6169 -0.3693 -0.1498
  265SOL    HW1 2236   5.278   7.966  10.692 -2.4401 -1.7129  1.2405
  265SOL    HW2 2237   5.387   7.866  10.661 -0.6577  0.3205  0.7823
  266SOL     OW 2238   7.334   3.244   1.528 -0.5804 -0.1945  0.5314
  266SOL    HW1 2239   7.388   3.316   1.559 -0.6184  0.0027  0.1487
  266SOL    HW2 2240   7.244   3.272   1.543 -0.5937 -0.2008  0.4650
  267SOL     OW 2241   7.958   7.631   0.464 -0.2034  0.0168 -0.2547
  267SOL    HW1 2242   7.871   7.603   0.436 -0.2501 -1.4994  1.2649
  267SOL    HW2 2243   7.961   7.610   0.557  1.6589  0.4307 -0.1902
  268SOL     OW 2244   1.463   1.386   0.304 -0.0606 -0.3166 -0.5427
  268SOL    HW1 2245   1.529   1.417   0.242  0.0079 -1.5114 -1.0942
  268SOL    HW2 2246   1.501   1.401   0.390  0.0513  0.9076 -0.7873
  269SOL     OW 2247   1.496   5.901   5.389 -0.4285  0.4895  0.0427
  269SOL    HW1 2248   1.520   5.940   5.473  0.1437 -1.1111  0.6668
  269SOL    HW2 2249   1.410   5.938   5.369  0.2970  2.4126  0.3133
  270SOL     OW 2250   1.009   4.007   9.491  0.4695  0.4360 -0.5052
  270SOL    HW1 2251   1.051   4.068   9.553  3.6640 -1.0086 -1.0075
  270SOL    HW2 2252   1.022   3.921   9.531 -1.2744 -0.2001 -1.2253
  271SOL     OW 2253   1.097   0.908  11.843 -0.0534  0.2446  0.3141
  271SOL    HW1 2254   1.112   0.962  11.921 -0.2422 -0.3102  0.7371
  271SOL    HW2 2255   1.146   0.828  11.859 -1.1952 -0.4501  0.4853
  272SOL     OW 2256   5.399   3.984   9.814  0.2241 -0.1150 -0.4157
  272SOL    HW1 2257   5.371   3.964   9.725  0.8118 -2.9061 -0.0714
  272SOL    HW2 2258   5.349   3.924   9.869  2.0381 -0.5729  0.8240
  273SOL     OW 2259   4.150   3.994  11.398  0.6867 -0.4901 -0.1596
  273SOL    HW1 2260   4.175   4.029  11.483 -0.0531 -0.4937  0.0739
  273SOL    HW2 2261   4.204   4.041  11.335 -0.2092  1.0450  0.1425
  274SOL     OW 2262   0.636   1.568   6.427  0.4238 -0.1472  0.1927
  274SOL    HW1 2263   0.617   1.554   6.335 -1.3475  1.7809  0.1947
  274SOL    HW2 2264   0.710   1.629   6.427 -0.8244  1.4274 -0.0398
  275SOL     OW 2265   3.006   6.058   8.684  0.1674  0.6042 -0.3022
  275SOL    HW1 2266   3.002   5.986   8.621  1.9593  0.4048 -0.2500
  275SOL    HW2 2267   2.931   6.045   8.741  0.9449 -1.7799  0.2666
  276SOL     OW 2268   5.135   2.179   3.794 -0.2566  0.1007  0.3908
  276SOL    HW1 2269   5.153   2.143   3.881  0.1848  1.1552  0.7477
  276SOL    HW2 2270   5.196   2.133   3.736 -0.4772 -0.5285  0.6514
  277SOL     OW 2271   7.637   3.106   8.067  0.4032  0.2635 -0.4386
  277SOL    HW1 2272   7.640   3.189   8.020  0.2286 -0.1803 -1.2589
  277SOL    HW2 2273   7.543   3.089   8.079  0.4161 -0.1606 -0.9126
  278SOL     OW 2274   5.599   6.238  10.397 -0.3919 -0.0449  0.1074
  278SOL    HW1 2275   5.552   6.258  10.478 -0.5812  0.8352 -0.2106
  278SOL    HW2 2276   5.606   6.142  10.396 -1.9805 -0.1871  0.2723
  279SOL     OW 2277   7.056   5.026   1.067  0.7273  0.1690 -0.0495
  279SOL    HW1 2278   7.095   4.959   1.123  0.9963  1.7821  1.7813
  279SOL    HW2 2279   6.962   5.017   1.081  0.8158  0.8818  1.0708
  280SOL     OW 2280   7.399   5.229   9.132  0.0676  0.2270 -0.1177
  280SOL    HW1 2281   7.406   5.251   9.039 -0.0174  0.6447 -0.0251
  280SOL    HW2 2282   7.317   5.181   9.139 -0.0236  0.3680 -0.2254
  281SOL     OW 2283   6.753   0.922   9.163  0.1953  0.3995  0.0888
  281SOL    HW1 2284   6.774   0.875   9.082  0.0893  0.6066 -0.0584
  281SOL    HW2 2285   6.812   0.884   9.228 -1.1167 -1.2321  0.4073
  282SOL     OW 2286   6.985   0.638  10.174 -0.4204 -0.0677  0.2664
  282SOL    HW1 2287   6.997   0.676  10.261 -1.0820  2.2304 -0.5961
  282SOL    HW2 2288   6.891   0.623  10.166 -0.4702  0.4754 -0.3137
  283SOL     OW 2289   6.377   0.618   1.304  0.2300  0.0746 -0.2829
  283SOL    HW1 2290   6.426   0.682   1.355 -0.9767  1.3121 -0.6219
  283SOL    HW2 2291   6.358   0.663   1.221 -1.6666 -0.2502 -0.0775
  284SOL     OW 2292   1.943   6.985  10.346 -0.5605 -0.2283  0.2727
  284SOL    HW1 2293   1.995   6.996  10.425 -0.2501 -1.0832  0.2021
  284SOL    HW2 2294   1.949   6.891  10.326 -1.9997 -0.3324  0.1743
  285SOL     OW 2295   3.590   1.184   5.915 -0.0625 -0.1232  0.1981
  285SOL    HW1 2296   3.680   1.216   5.921  0.3720 -1.4090  0.8104
  285SOL    HW2 2297   3.596   1.106   5.860 -1.0292  0.5047 -0.8561
  286SOL     OW 2298   7.472   5.024   8.314  0.0843 -0.6383  0.4614
  286SOL    HW1 2299   7.550   5.066   8.278  0.6938 -2.0253  0.1325
  286SOL    HW2 2300   7.476   5.042   8.408 -0.6338  1.5637  0.1493
  287SOL     OW 2301   5.181   1.460   7.505  0.0489 -0.0387  0.0789
  287SOL    HW1 2302   5.100   1.512   7.502  1.0866  1.6137 -0.7086
  287SOL    HW2 2303   5.249   1.523   7.530  1.3184 -1.0622 -0.6710
  288SOL     OW 2304   5.159   5.259   9.886  0.1181  0.0573  0.8208
  288SOL    HW1 2305   5.220   5.196   9.848 -0.2941 -0.9360  1.7519
  288SOL    HW2 2306   5.076   5.212   9.890 -0.2141  0.6811  1.4720
  289SOL     OW 2307   0.026   2.757   9.378 -0.4563  0.4540  0.0265
  289SOL    HW1 2308  -0.014   2.831   9.423 -2.3728 -1.3532  1.5398
  289SOL    HW2 2309  -0.044   2.721   9.323  0.4476 -0.1714 -0.7530
  290SOL     OW 2310   7.523   1.897  11.673 -0.1192 -0.2913 -0.7209
  290SOL    HW1 2311   7.581   1.850  11.733 -0.0575 -0.4523 -0.9052
  290SOL    HW2 2312   7.458   1.832  11.647  0.2304 -0.4008 -1.3284
  291SOL     OW 2313   4.191   7.583   3.550 -0.4157 -0.1305 -0.1533
  291SOL    HW1 2314   4.143   7.646   3.496 -0.3983 -0.1597 -0.2042
  291SOL    HW2 2315   4.195   7.622   3.637  0.8483  0.6080 -0.5178
  292SOL     OW 2316   3.699   0.383   6.937  0.1202 -0.0023  0.3398
  292SOL    HW1 2317   3.728   0.387   7.028  1.6903  1.3660 -0.1533
  292SOL    HW2 2318   3.747   0.309   6.900 -0.7936 -0.7840  0.6935
  293SOL     OW 2319   1.752   7.921   1.855 -0.2465  0.1427  0.3546
  293SOL    HW1 2320   1.687   7.984   1.888  0.8091  1.8474 -0.6493
  293SOL    HW2 2321   1.785   7.961   1.775  1.3933 -1.1171  0.3469
  294SOL     OW 2322   5.627   1.086   4.825  0.0624  0.1375 -0.1451
  294SOL    HW1 2323   5.534   1.081   4.804 -0.3511  1.4985  1.2442
  294SOL    HW2 2324   5.665   1.011   4.779 -1.4649  0.3652 -1.9276
  295SOL     OW 2325   5.207   2.505   7.730  0.3345  0.4581  0.7953
  295SOL    HW1 2326   5.154   2.552   7.665 -0.8635  0.7761  1.9642
  295SOL    HW2 2327   5.197   2.413   7.705  1.7191  0.7006 -0.7848
  296SOL     OW 2328   0.772   5.946   6.545  0.0538  0.8832 -0.2166
  296SOL    HW1 2329   0.860   5.907   6.553 -0.6441 -1.3083 -2.0333
  296SOL    HW2 2330   0.779   6.030   6.589  2.2577 -0.4360  2.2524
  297SOL     OW 2331   3.215   0.894   8.922  0.5427 -0.2702 -0.1228
  297SOL    HW1 2332   3.257   0.978   8.941  0.3451 -0.4006  0.9708
  297SOL    HW2 2333   3.141   0.916   8.865  0.0932  0.3922  0.7011
  298SOL     OW 2334   7.465   2.023  11.399  0.1259  0.2779  0.5815
  298SOL    HW1 2335   7.452   1.984  11.485 -0.0046 -2.4607 -0.5684
  298SOL    HW2 2336   7.418   1.964  11.339  1.6308  1.1163 -1.5414
  299SOL     OW 2337   3.942   2.011   7.694  0.1043 -0.0781 -0.0049
  299SOL    HW1 2338   4.017   2.068   7.709  1.2091 -1.4754  0.0104
  299SOL    HW2 2339   3.866   2.063   7.720  1.1643  0.9236  1.1798
  300SOL     OW 2340   3.755   0.753   0.316  0.6441  0.3912 -0.3249
  300SOL    HW1 2341   3.772   0.731   0.224  0.8216 -1.0843  0.0416
  300SOL    HW2 2342   3.674   0.708   0.337  0.3018  1.1857  0.0975
  301SOL     OW 2343   4.787   7.153   2.156 -0.0681  0.3352 -0.1404
  301SOL    HW1 2344   4.801   7.073   2.206 -1.1144 -0.1720 -0.6352
  301SOL    HW2 2345   4.708   7.137   2.105 -0.9316  2.0853  0.5506
  302SOL     OW 2346   4.038   7.344  11.426  0.3230 -0.7798  0.0322
  302SOL    HW1 2347   4.088   7.420  11.457 -1.2098 -1.3958  4.8076
  302SOL    HW2 2348   3.951   7.378  11.407  0.8279 -0.7066 -2.5824
  303SOL     OW 2349   5.553   4.001   3.558  0.0037 -0.5190  0.3905
  303SOL    HW1 2350   5.488   4.062   3.523 -0.1297 -1.2570 -0.6902
  303SOL    HW2 2351   5.635   4.050   3.557 -0.5964  0.6575  2.4023
  304SOL     OW 2352   6.915   5.537   0.555 -0.0682  0.1963 -0.0213
  304SOL    HW1 2353   6.983   5.543   0.487 -2.5415 -1.6365 -2.9074
  304SOL    HW2 2354   6.847   5.598   0.527  0.0924  1.7778  2.6577
  305SOL     OW 2355   4.243   7.072   8.488 -0.6518 -0.5780  0.2019
  305SOL    HW1 2356   4.201   7.147   8.445 -1.3988 -1.8947 -1.4778
  305SOL    HW2 2357   4.331   7.068   8.449 -0.4105 -0.2506  0.7069
  306SOL     OW 2358   7.762   7.642   9.977  0.3990  0.2457  0.3319
  306SOL    HW1 2359   7.704   7.700  10.027  1.9228  0.1049  2.3602
  306SOL    HW2 2360   7.775   7.566  10.034  1.6758 -0.2330 -0.5651
  307SOL     OW 2361   5.750   5.878  12.065 -0.0372 -0.3346 -0.3103
  307SOL    HW1 2362   5.662   5.907  12.086 -0.8801  0.2613 -4.0111
  307SOL    HW2 2363   5.749   5.784  12.079 -1.7649 -0.5461 -1.5773
  308SOL     OW 2364   3.017   2.881   7.917 -0.2168  0.1238  0.6887
  308SOL    HW1 2365   3.055   2.954   7.966 -1.2089  0.9976  0.1892
  308SOL    HW2 2366   3.041   2.804   7.968  0.0298  0.8753  1.7501
  309SOL     OW 2367   2.861   3.175   9.075 -0.4180  0.3517 -0.4123
  309SOL    HW1 2368   2.780   3.144   9.114 -0.0222 -0.0082  0.1493
  309SOL    HW2 2369   2.914   3.204   9.149  0.1905  0.0368 -0.7113
  310SOL     OW 2370   0.647   0.097   2.641 -0.0428 -0.0918 -0.3041
  310SOL    HW1 2371   0.686   0.070   2.724 -2.6371 -1.6496  0.5404
  310SOL    HW2 2372   0.636   0.192   2.650 -0.8392 -0.2944  1.4719
  311SOL     OW 2373   2.107   4.012   9.936  0.0718 -0.1467 -0.4964
  311SOL    HW1 2374   2.103   4.041  10.027 -0.3234  3.4724 -1.4737
  311SOL    HW2 2375   2.154   3.929   9.938  2.8760  1.3145  2.7115
  312SOL     OW 2376   5.159   4.748  11.866 -0.1992 -0.1043  0.4346
  312SOL    HW1 2377   5.074   4.748  11.822 -0.0236 -0.9502  0.0720
  312SOL    HW2 2378   5.195   4.835  11.849 -0.7732  0.0876  0.1638
  313SOL     OW 2379   6.473   0.401   2.272  0.5584 -0.0775 -0.2036
  313SOL    HW1 2380   6.378   0.415   2.270  0.1615 -1.4226  2.7929
  313SOL    HW2 2381   6.509   0.468   2.215 -2.1439  1.0561 -0.7217
  314SOL     OW 2382   2.322   3.770  10.577 -0.6164 -0.1459  0.3599
  314SOL    HW1 2383   2.265   3.807  10.510  2.2606  2.1792 -1.0359
  314SOL    HW2 2384   2.388   3.721  10.528  1.1325  0.9922  1.4898
  315SOL     OW 2385   6.655   6.415   8.739 -0.4017  0.3600  0.6353
  315SOL    HW1 2386   6.590   6.352   8.711 -1.3048  1.4822  0.1170
  315SOL    HW2 2387   6.711   6.367   8.800 -1.1254 -0.8847  0.3481
  316SOL     OW 2388   5.000   0.947  10.009  0.2307  0.0156  0.0441
  316SOL    HW1 2389   4.996   0.919  10.100 -0.3287  0.5456  0.1912
  316SOL    HW2 2390   5.090   0.977   9.996  0.2161  0.2718  0.5265
  317SOL     OW 2391   1.302   3.683   5.468  0.5706 -0.5708  0.2840
  317SOL    HW1 2392   1.330   3.686   5.377  2.5306  1.8298  0.8655
  317SOL    HW2 2393   1.381   3.662   5.518 -0.5699 -2.3832  1.4582
  318SOL     OW 2394   1.730   6.220   1.497 -0.1283  0.5254  0.0957
  318SOL    HW1 2395   1.758   6.134   1.466 -1.5668 -0.0480  0.3057
  318SOL    HW2 2396   1.680   6.256   1.424 -0.5640  0.6578  0.4535
  319SOL     OW 2397   0.874   0.690  11.877  0.3412  0.1705  0.5070
  319SOL    HW1 2398   0.967   0.669  11.872  0.0125 -1.0534 -1.5262
  319SOL    HW2 2399   0.867   0.754  11.949  3.2154  2.8277 -1.3378
  320SOL     OW 2400   7.113   1.430   8.797 -0.0704  0.5579 -0.0925
  320SOL    HW1 2401   7.156   1.401   8.716 -0.2688 -0.9454  0.3164
  320SOL    HW2 2402   7.146   1.371   8.864 -0.5596  1.2542  0.7833
  321SOL     OW 2403   0.248   7.808   1.420 -0.1862  0.3595  0.6588
  321SOL    HW1 2404   0.336   7.807   1.457  0.7031 -1.3166 -1.3307
  321SOL    HW2 2405   0.244   7.731   1.364 -2.4353  1.1791 -0.4427
  322SOL     OW 2406   5.251   7.850   3.350  0.3376 -0.3170 -0.4804
  322SOL    HW1 2407   5.209   7.911   3.290 -0.9087 -0.8863 -0.2223
  322SOL    HW2 2408   5.251   7.766   3.303  2.6257 -0.0383 -1.0978
  323SOL     OW 2409   3.159   5.682   3.799  0.2140  0.3072  0.1899
  323SOL    HW1 2410   3.219   5.748   3.765 -0.9368  0.6874 -1.2211
  323SOL    HW2 2411   3.200   5.650   3.880  1.7738  1.2766 -0.1913
  324SOL     OW 2412   3.377   4.977   6.048  0.5755 -0.0909 -0.2370
  324SOL    HW1 2413   3.298   4.933   6.015  0.3284 -0.4582  0.8050
  324SOL    HW2 2414   3.446   4.911   6.039  0.9937  0.5368 -2.0132
  325SOL     OW 2415   7.677   4.785   2.864  0.1533 -0.3249  0.1838
  325SOL    HW1 2416   7.746   4.768   2.800 -0.4407 -0.5128 -0.4225
  325SOL    HW2 2417   7.598   4.799   2.811 -0.4813 -1.0875  0.8916
  326SOL     OW 2418   0.922   3.937   8.689  0.5614  0.2023  0.2676
  326SOL    HW1 2419   0.845   3.884   8.707 -0.1901  1.5336  1.1629
  326SOL    HW2 2420   0.984   3.913   8.758  0.3596  0.2484  0.4642
  327SOL     OW 2421   7.072   0.195  10.300  0.6837  0.0223 -0.6333
  327SOL    HW1 2422   7.079   0.190  10.395 -1.6911  0.7340 -0.3623
  327SOL    HW2 2423   7.163   0.191  10.269  1.4285 -2.4393  1.5051
  328SOL     OW 2424   0.490   6.709   2.959 -0.0005  0.2127  0.0934
  328SOL    HW1 2425   0.491   6.711   3.055  0.4768 -1.5183  0.1403
  328SOL    HW2 2426   0.430   6.638   2.936 -0.2806  0.7449 -0.9142
  329SOL     OW 2427   1.277   1.161   3.020  0.3644 -0.0149  0.0748
  329SOL    HW1 2428   1.319   1.139   3.103  1.2997  0.7053 -0.1937
  329SOL    HW2 2429   1.262   1.077   2.978  0.5680 -0.3443  0.6437
  330SOL     OW 2430   3.796   5.806   6.384 -0.3185  0.6094  0.4107
  330SOL    HW1 2431   3.822   5.753   6.459 -1.6212  1.4002  1.4566
  330SOL    HW2 2432   3.875   5.812   6.330 -0.3156 -3.1971 -0.3038
  331SOL     OW 2433   3.913   1.374  12.073  0.1901  0.3202 -0.1775
  331SOL    HW1 2434   4.002   1.354  12.100  0.3228 -0.4453 -1.1279
  331SOL    HW2 2435   3.858   1.330  12.137  0.4807  0.8997  0.4850
  332SOL     OW 2436   4.793   6.878   5.640 -0.0959  0.8819 -0.1773
  332SOL    HW1 2437   4.771   6.794   5.682 -0.3800  1.6097  1.1697
  332SOL    HW2 2438   4.755   6.944   5.697 -1.4192  1.9098 -2.1562
  333SOL     OW 2439   4.155   6.292   0.654 -0.6295 -0.1339 -0.5105
  333SOL    HW1 2440   4.081   6.234   0.635  1.1071 -2.8279  0.3819
  333SOL    HW2 2441   4.205   6.296   0.572 -0.6109 -0.1287 -0.4992
  334SOL     OW 2442   6.662   5.216   3.292  0.1798 -0.3862  0.0900
  334SOL    HW1 2443   6.693   5.252   3.375  1.1498  0.2196 -0.5200
  334SOL    HW2 2444   6.692   5.125   3.293 -0.6994 -0.6906  0.8332
  335SOL     OW 2445   5.922   5.876   2.916 -0.3105 -0.5477  0.3975
  335SOL    HW1 2446   5.892   5.793   2.878  1.1483 -1.0591  0.2817
  335SOL    HW2 2447   5.971   5.849   2.994  1.3698  0.0831 -0.4078
  336SOL     OW 2448   0.978   7.940   1.236  0.1804 -0.3648  0.4319
  336SOL    HW1 2449   0.903   7.881   1.243 -1.0164  0.7621 -1.6642
  336SOL    HW2 2450   1.050   7.885   1.205 -0.5358 -0.9757 -0.1624
  337SOL     OW 2451   6.871   6.659   5.036  0.0203  0.0083  0.0578
  337SOL    HW1 2452   6.920   6.739   5.017  1.1942 -0.7894 -0.3451
  337SOL    HW2 2453   6.801   6.657   4.970  0.2589  0.4635 -0.2118
  338SOL     OW 2454   0.305   2.715   3.049 -0.1395  0.3698 -0.8094
  338SOL    HW1 2455   0.347   2.761   2.976 -0.8876  1.2038 -0.7411
  338SOL    HW2 2456   0.360   2.639   3.065 -0.9699 -0.9150 -3.5171
  339SOL     OW 2457   1.708   5.466   3.445  0.1312 -0.3862  0.2970
  339SOL    HW1 2458   1.750   5.380   3.448  1.1049  0.0342 -0.7362
  339SOL    HW2 2459   1.724   5.498   3.356  1.1691  1.5396  1.1190
  340SOL     OW 2460   2.707   7.768   4.860 -0.0129 -0.6278  0.4567
  340SOL    HW1 2461   2.627   7.815   4.884  0.3409 -0.3089  1.0218
  340SOL    HW2 2462   2.737   7.811   4.780  0.7282  0.6465  1.3793
  341SOL     OW 2463   7.041   1.426   6.699  0.5324 -0.2224 -0.4238
  341SOL    HW1 2464   7.052   1.434   6.793 -0.7877 -1.1085 -0.1673
  341SOL    HW2 2465   7.041   1.516   6.666 -0.3065  0.1643  0.5919
  342SOL     OW 2466   4.112   7.949   7.070  0.1676  0.3499  0.2065
  342SOL    HW1 2467   4.060   7.957   7.150  0.1527 -0.2903  0.2668
  342SOL    HW2 2468   4.049   7.967   7.000 -0.2121 -0.6933  0.2666
  343SOL     OW 2469   3.237   1.979   2.252  0.2111  0.4068 -0.1558
  343SOL    HW1 2470   3.268   2.036   2.181  0.9606 -0.1072 -0.2472
  343SOL    HW2 2471   3.226   1.894   2.211  3.2936 -0.6143  0.8748
  344SOL     OW 2472   1.152   3.487   8.099 -0.0419  0.5754 -0.1978
  344SOL    HW1 2473   1.092   3.540   8.152 -1.0980 -1.3010  0.5905
  344SOL    HW2 2474   1.103   3.407   8.081  1.3779 -0.0204 -1.6119
  345SOL     OW 2475   2.974   1.820   1.189 -0.0729 -0.4153 -0.5928
  345SOL    HW1 2476   2.960   1.772   1.270 -0.5585 -1.4711 -1.2649
  345SOL    HW2 2477   3.019   1.900   1.215  0.7073 -1.2021  0.5878
  346SOL     OW 2478   7.056   1.687   6.536  0.0482 -0.0588  0.1274
  346SOL    HW1 2479   6.963   1.701   6.522 -0.1541 -0.4954  0.9674
  346SOL    HW2 2480   7.098   1.767   6.504 -0.6251  0.2129 -0.0882
  347SOL     OW 2481   0.869   4.845  10.949 -0.1703  0.5454 -0.2439
  347SOL    HW1 2482   0.872   4.891  10.865  0.5604  0.9695  0.0015
  347SOL    HW2 2483   0.792   4.789  10.943  0.4151 -0.1493 -1.5672
  348SOL     OW 2484   4.078   6.567   5.544 -0.3802 -0.4334 -0.3955
  348SOL    HW1 2485   4.116   6.623   5.611 -1.1585 -0.4414  0.0740
  348SOL    HW2 2486   4.124   6.589   5.463 -1.3811  1.6461 -0.4536
  349SOL     OW 2487   3.380   0.691   3.892 -0.2736 -0.4107  0.1567
  349SOL    HW1 2488   3.313   0.659   3.953  0.0408 -1.1076  0.1520
  349SOL    HW2 2489   3.378   0.786   3.901 -1.1657 -0.4340  0.2607
  350SOL     OW 2490   2.935   6.468   0.474  0.2551  0.0311 -0.0830
  350SOL    HW1 2491   3.001   6.427   0.418  1.0224  1.4771 -0.2852
  350SOL    HW2 2492   2.956   6.438   0.562  1.6068  0.9574 -0.0576
  351SOL     OW 2493   7.948   4.922   5.514  0.2681 -0.3170 -0.0129
  351SOL    HW1 2494   7.982   4.842   5.554  0.5467 -0.4188 -0.4357
  351SOL    HW2 2495   7.853   4.909   5.510  0.0601  0.3421  1.9769
  352SOL     OW 2496   7.324   0.484  11.388 -0.2808 -0.0868 -0.9675
  352SOL    HW1 2497   7.406   0.473  11.436 -0.2525 -1.5959 -1.3051
  352SOL    HW2 2498   7.264   0.420  11.428 -0.6772 -0.3972 -2.0187
  353SOL     OW 2499   4.669   6.039   3.722 -0.1992  0.4161 -0.4045
  353SOL    HW1 2500   4.727   6.099   3.676  0.7022 -0.8166 -0.9344
  353SOL    HW2 2501   4.628   5.987   3.652 -0.7206  0.1900  0.0545
  354SOL     OW 2502   4.078   4.581   2.957 -0.1628  0.7559 -0.9306
  354SOL    HW1 2503   4.093   4.510   2.896 -2.3940  0.4707 -1.2270
  354SOL    HW2 2504   3.986   4.572   2.983  0.8422  0.3277  3.1404
  355SOL     OW 2505   5.789   2.835   5.159  0.4299  0.2380 -0.5639
  355SOL    HW1 2506   5.707   2.787   5.153 -0.0628  1.1789 -1.9480
  355SOL    HW2 2507   5.826   2.810   5.243 -0.4062 -1.5815 -0.6993
  356SOL     OW 2508   3.140   7.260   7.546 -0.8569 -0.4702  0.3536
  356SOL    HW1 2509   3.071   7.256   7.480 -0.0656 -0.4029 -0.4963
  356SOL    HW2 2510   3.207   7.315   7.508 -0.8896  0.5715  1.7273
  357SOL     OW 2511   2.638   7.983   0.915  0.1421 -0.1327 -0.2342
  357SOL    HW1 2512   2.695   7.906   0.922  0.1775 -0.1412 -0.5803
  357SOL    HW2 2513   2.579   7.976   0.990  1.5968  0.7195  1.0285
  358SOL     OW 2514   6.493   3.677   0.049  0.0043  0.0880  0.1583
  358SOL    HW1 2515   6.434   3.610   0.084  1.8003 -1.2303  0.8256
  358SOL    HW2 2516   6.441   3.757   0.050 -2.0823 -1.1747 -0.2286
  359SOL     OW 2517   6.237   6.318   4.244  0.0158  0.4473 -0.6081
  359SOL    HW1 2518   6.148   6.351   4.256 -1.2012 -0.9664 -4.3798
  359SOL    HW2 2519   6.280   6.382   4.187  0.3225 -0.4120 -1.3666
  360SOL     OW 2520   2.226   0.813   5.458 -0.0068 -0.3015  0.1733
  360SOL    HW1 2521   2.297   0.792   5.398 -0.3097  1.2968 -0.8007
  360SOL    HW2 2522   2.147   0.807   5.405 -0.0741  4.0633 -0.5935
  361SOL     OW 2523   2.901   5.297   1.410  0.2498 -0.0713  0.1144
  361SOL    HW1 2524   2.857   5.339   1.336  1.7051  2.5179  0.5702
  361SOL    HW2 2525   2.867   5.344   1.487  0.9711 -0.6358  0.7933
  362SOL     OW 2526   2.848   1.195   7.688  0.0939  0.1844  0.2623
  362SOL    HW1 2527   2.841   1.262   7.620  4.1043 -2.2172 -2.9725
  362SOL    HW2 2528   2.909   1.232   7.752  1.1592  0.2272 -0.7532
  363SOL     OW 2529   4.423   7.703  10.334  0.2001  0.3957 -1.0722
  363SOL    HW1 2530   4.499   7.760  10.343 -0.3335  0.9143  0.4900
  363SOL    HW2 2531   4.457   7.614  10.346  0.4447  0.6884  0.6357
  364SOL     OW 2532   3.992   5.272   7.452  0.1546  0.2506 -0.2784
  364SOL    HW1 2533   4.016   5.346   7.509  0.7635  0.6514 -1.0423
  364SOL    HW2 2534   4.072   5.251   7.405  0.1222 -1.2396  0.2821
  365SOL     OW 2535   0.596   5.362   6.497 -0.2750 -0.2090 -0.2320
  365SOL    HW1 2536   0.607   5.428   6.565  1.9943  0.6898 -1.3432
  365SOL    HW2 2537   0.598   5.413   6.415 -1.2594 -1.4135 -1.0356
  366SOL     OW 2538   3.242   3.512   7.475 -0.5046  0.4212  0.5148
  366SOL    HW1 2539   3.220   3.440   7.415 -1.8020 -0.7765  2.3263
  366SOL    HW2 2540   3.238   3.590   7.420 -2.3932 -0.5433 -0.8566
  367SOL     OW 2541   5.202   1.692   9.828 -0.3205 -0.2129  0.3616
  367SOL    HW1 2542   5.276   1.649   9.871  0.5648 -0.1083 -0.9880
  367SOL    HW2 2543   5.211   1.668   9.736 -0.9552  1.2502 -0.1136
  368SOL     OW 2544   4.541   7.411   2.714  0.5372  0.1457  0.0515
  368SOL    HW1 2545   4.528   7.349   2.643 -0.5724 -0.2841  0.5979
  368SOL    HW2 2546   4.550   7.496   2.671 -1.7089  0.1287 -0.5735
  369SOL     OW 2547   2.338   0.442  10.384  0.1701 -0.5252 -0.0184
  369SOL    HW1 2548   2.394   0.405  10.316 -0.2412  0.7141 -1.0791
  369SOL    HW2 2549   2.290   0.512  10.340  0.2184  0.6280  1.6709
  370SOL     OW 2550   0.342   4.045   3.261 -0.0140  0.3970  0.1798
  370SOL    HW1 2551   0.335   4.073   3.170  0.8148  0.3440  0.0917
  370SOL    HW2 2552   0.429   4.074   3.288 -0.3450  0.6053  1.0244
  371SOL     OW 2553   2.457   6.349   9.408  0.0211 -0.3222 -0.4258
  371SOL    HW1 2554   2.467   6.393   9.324  0.9997 -1.5286 -0.9566
  371SOL    HW2 2555   2.459   6.421   9.472  1.6738  0.4207 -1.2577
  372SOL     OW 2556   4.950   7.562   6.611 -0.3633  0.0869  0.1447
  372SOL    HW1 2557   4.950   7.497   6.682  1.7923 -1.2131 -0.9512
  372SOL    HW2 2558   4.919   7.513   6.534 -0.1785  0.7747 -0.3786
  373SOL     OW 2559   2.719   6.615   8.539 -0.1313 -0.1459  0.0226
  373SOL    HW1 2560   2.697   6.673   8.466 -0.5916 -0.2639  0.0640
  373SOL    HW2 2561   2.694   6.527   8.509 -0.1997 -0.2130  0.2739
  374SOL     OW 2562   3.045   6.956   0.594 -0.3756  0.1638 -0.2078
  374SOL    HW1 2563   3.082   6.871   0.571 -1.1939 -0.3393  0.2620
  374SOL    HW2 2564   2.965   6.935   0.643  0.1151  1.1941  1.1115
  375SOL     OW 2565   4.518   6.360   7.366  0.7178  0.0325  0.0538
  375SOL    HW1 2566   4.504   6.384   7.274  0.6138  0.4232  0.1709
  375SOL    HW2 2567   4.595   6.410   7.392 -0.2197  1.1949  0.6507
  376SOL     OW 2568   1.098   7.105   1.341  0.3844  0.3531  0.5310
  376SOL    HW1 2569   1.122   7.084   1.251 -2.1286  0.9687 -0.3675
  376SOL    HW2 2570   1.174   7.080   1.393  2.1813  0.5871 -1.8184
  377SOL     OW 2571   3.685   0.149  10.023 -0.8377 -0.0677 -0.1290
  377SOL    HW1 2572   3.601   0.129  10.065 -1.3202  0.1713 -0.9586
  377SOL    HW2 2573   3.718   0.225  10.071 -1.9335  0.9196 -0.8928
  378SOL     OW 2574   0.804   3.313   0.581  0.3844 -0.2711 -0.4134
  378SOL    HW1 2575   0.887   3.336   0.623  0.1741 -1.8886  1.0244
  378SOL    HW2 2576   0.739   3.322   0.650 -0.3479 -0.8183 -1.0153
  379SOL     OW 2577   4.052   2.619   0.393  0.4982 -0.1550  0.0093
  379SOL    HW1 2578   4.081   2.621   0.301  0.4590 -0.9215 -0.0261
  379SOL    HW2 2579   3.995   2.543   0.399 -0.2639  0.4324  0.4613
  380SOL     OW 2580   5.551   3.300  12.051  0.8311 -0.0668 -0.2681
  380SOL    HW1 2581   5.502   3.374  12.016 -0.9640 -0.1425  1.8780
  380SOL    HW2 2582   5.524   3.226  11.998 -0.4457  0.1260  0.0905
  381SOL     OW 2583   2.668   7.811   3.902  0.2385 -0.6512  0.8755
  381SOL    HW1 2584   2.680   7.718   3.883  0.5350 -0.3154 -0.7699
  381SOL    HW2 2585   2.590   7.836   3.853  1.2551  0.3635 -0.3066
  382SOL     OW 2586   1.502   3.131   9.355  0.2936 -0.1254  0.5436
  382SOL    HW1 2587   1.503   3.093   9.443 -2.4579  2.3160  1.8186
  382SOL    HW2 2588   1.564   3.204   9.360  0.1034  0.0422  0.4716
  383SOL     OW 2589   2.446   1.317   9.247 -0.1334 -0.5490  0.0439
  383SOL    HW1 2590   2.508   1.343   9.315 -0.2170  0.7174 -0.3370
  383SOL    HW2 2591   2.410   1.234   9.278  0.2842 -0.3003  1.2508
  384SOL     OW 2592   6.863   7.401   9.976  0.2843 -0.3040  0.4575
  384SOL    HW1 2593   6.950   7.428  10.007  0.6048 -2.1909  1.3296
  384SOL    HW2 2594   6.847   7.317  10.020 -3.1909  1.2200  2.4959
  385SOL     OW 2595   0.987   5.712   7.641  0.0430 -0.0630 -0.5613
  385SOL    HW1 2596   0.970   5.622   7.613  1.3099 -0.0474 -1.4727
  385SOL    HW2 2597   1.018   5.704   7.731 -0.9920 -0.4128 -0.2219
  386SOL     OW 2598   1.106   3.889   5.136 -0.4170 -0.1382 -0.1988
  386SOL    HW1 2599   1.068   3.825   5.076 -1.0738  1.1238 -1.1706
  386SOL    HW2 2600   1.200   3.886   5.117 -0.8071  1.9980 -3.2144
  387SOL     OW 2601   5.158   5.019   2.954 -0.3947 -0.0350 -0.2955
  387SOL    HW1 2602   5.114   4.938   2.929 -0.9324  0.4122 -0.8442
  387SOL    HW2 2603   5.251   4.998   2.954 -0.2255  0.1766 -3.8042
  388SOL     OW 2604   5.036   2.971   8.048  0.0269  0.7794  0.2505
  388SOL    HW1 2605   5.058   3.029   7.976 -0.0248  1.4617  0.7662
  388SOL    HW2 2606   4.977   3.023   8.103  0.5849  0.5174  1.1220
  389SOL     OW 2607   7.707   0.318   9.300  0.1994 -0.6362  0.0348
  389SOL    HW1 2608   7.733   0.233   9.263  1.7633 -0.5403  0.8657
  389SOL    HW2 2609   7.786   0.352   9.342  0.5373  2.6222 -2.7660
  390SOL     OW 2610   1.429   1.170   4.517  0.0041  0.4287  0.7064
  390SOL    HW1 2611   1.355   1.219   4.552 -0.4508 -0.4361  0.9905
  390SOL    HW2 2612   1.395   1.129   4.437  0.8889  1.9788 -0.5375
  391SOL     OW 2613   3.771   0.157   0.733  0.4769  0.1899 -0.2566
  391SOL    HW1 2614   3.845   0.166   0.673 -0.4449  1.0400 -1.3306
  391SOL    HW2 2615   3.780   0.231   0.794  0.0832  0.7947 -0.9081
  392SOL     OW 2616   3.195   5.680   3.255  0.1236 -0.3756  0.1240
  392SOL    HW1 2617   3.129   5.690   3.187  0.0636  1.8382  0.4533
  392SOL    HW2 2618   3.146   5.685   3.337  0.5804  0.2980  0.3603
  393SOL     OW 2619   5.253   2.799   7.422  0.2040 -0.2743  0.1118
  393SOL    HW1 2620   5.334   2.785   7.372  0.9967  0.1462  1.2165
  393SOL    HW2 2621   5.202   2.859   7.369  1.0822  0.2746 -0.1436
  394SOL     OW 2622   3.874   1.651   9.526 -0.0032 -0.8124 -0.7447
  394SOL    HW1 2623   3.908   1.672   9.613  0.8059  0.2729 -1.2899
  394SOL    HW2 2624   3.849   1.559   9.530 -0.1476 -0.7254  0.6828
  395SOL     OW 2625   5.092   7.668   5.492  0.3989 -0.3955  0.3409
  395SOL    HW1 2626   5.054   7.583   5.514  0.2807 -0.2397  0.7727
  395SOL    HW2 2627   5.186   7.651   5.482  0.4961 -0.4428  1.2185
  396SOL     OW 2628   1.316   1.149   3.925  0.0302 -0.2323 -0.1838
  396SOL    HW1 2629   1.406   1.140   3.957 -0.1412  0.2773  0.4752
  396SOL    HW2 2630   1.308   1.084   3.855  1.1729  0.3086 -0.8387
  397SOL     OW 2631   6.459   4.511  10.326 -0.3028  0.1221 -0.0676
  397SOL    HW1 2632   6.474   4.493  10.419 -2.2684 -0.0818  0.2370
  397SOL    HW2 2633   6.485   4.431  10.281 -0.1572 -0.0799  0.3769
  398SOL     OW 2634   1.617   5.120   8.861 -0.0574 -0.3301 -0.1874
  398SOL    HW1 2635   1.648   5.182   8.794  0.9378  0.8498  1.3002
  398SOL    HW2 2636   1.667   5.040   8.844  0.7665  0.2102 -0.3891
  399SOL     OW 2637   2.770   2.358   6.559 -0.0044 -0.2380  0.3159
  399SOL    HW1 2638   2.746   2.324   6.645  2.1087  1.2301  1.5910
  399SOL    HW2 2639   2.837   2.298   6.527  0.3818  0.1138  0.4536
  400SOL     OW 2640   4.287   7.877   2.228 -0.0036 -0.5619 -0.1720
  400SOL    HW1 2641   4.256   7.931   2.300 -0.1141 -0.1156 -0.5509
  400SOL    HW2 2642   4.215   7.815   2.212 -0.8192  0.5920 -1.1692
  401SOL     OW 2643   0.149   4.884   9.086  0.1258  0.0800  0.2123
  401SOL    HW1 2644   0.093   4.924   9.020  3.6022  1.7103 -2.0554
  401SOL    HW2 2645   0.173   4.957   9.144  0.7151 -0.3418  0.5125
  402SOL     OW 2646   1.206   6.020   6.076  0.0076  0.0351  0.0607
  402SOL    HW1 2647   1.207   5.989   6.167  0.0570 -1.6437 -0.4796
  402SOL    HW2 2648   1.116   6.049   6.062 -0.3452 -0.9347  0.2598
  403SOL     OW 2649   5.880   1.476   6.287  0.4534  0.0095  0.1747
  403SOL    HW1 2650   5.851   1.566   6.281  0.7264  0.1680  1.0683
  403SOL    HW2 2651   5.955   1.479   6.346  1.6663 -0.5280 -1.2749
  404SOL     OW 2652   6.888   4.545  10.912  0.1088 -0.3221  0.0778
  404SOL    HW1 2653   6.939   4.624  10.930 -0.2290 -0.1991  0.4964
  404SOL    HW2 2654   6.878   4.545  10.817 -0.9159  0.7904  0.1555
  405SOL     OW 2655   7.889   6.516   2.691  0.0248 -0.3599  0.7516
  405SOL    HW1 2656   7.964   6.573   2.675 -0.2713 -0.3071 -0.5693
  405SOL    HW2 2657   7.816   6.559   2.645 -0.5604 -0.9729  1.0965
  406SOL     OW 2658   3.677   2.683  10.346  0.3718  0.1131  0.3276
  406SOL    HW1 2659   3.652   2.775  10.355 -0.6682 -0.2086  0.9866
  406SOL    HW2 2660   3.757   2.675  10.398 -0.1807  0.4136  1.2618
  407SOL     OW 2661   4.805   0.051   5.065  0.2835  0.1017  0.2847
  407SOL    HW1 2662   4.823   0.126   5.121 -0.9068 -1.3672  2.7678
  407SOL    HW2 2663   4.886   0.000   5.066  0.6430  0.6425 -0.3181
  408SOL     OW 2664   0.185   3.249   6.610 -0.4319 -0.8046  0.5946
  408SOL    HW1 2665   0.176   3.174   6.668  0.8897 -0.8243  0.8155
  408SOL    HW2 2666   0.275   3.243   6.577  0.3746  1.6786  2.0598
  409SOL     OW 2667   0.842   3.291   8.777  0.2023  0.0401 -0.4186
  409SOL    HW1 2668   0.768   3.344   8.749 -0.6450 -0.6357  0.4848
  409SOL    HW2 2669   0.802   3.215   8.820  1.3908 -1.0305 -1.1506
  410SOL     OW 2670   1.827   7.460   1.261  0.3006 -0.0669 -0.1899
  410SOL    HW1 2671   1.880   7.443   1.339 -0.1545 -0.0183  0.1362
  410SOL    HW2 2672   1.792   7.549   1.275  0.1500 -0.0901 -0.4094
  411SOL     OW 2673   6.375   3.580   4.402 -0.2576 -0.2033  0.3001
  411SOL    HW1 2674   6.386   3.606   4.311 -2.2504  1.9821  0.5850
  411SOL    HW2 2675   6.310   3.510   4.399  0.2558 -0.6674 -0.0160
  412SOL     OW 2676   5.368   2.053  11.604  0.1849 -0.2779  0.7245
  412SOL    HW1 2677   5.301   1.987  11.587  0.7170 -0.7434  0.4072
  412SOL    HW2 2678   5.319   2.134  11.616 -0.4698 -0.7009  0.9949
  413SOL     OW 2679   5.263   7.016   3.895 -0.5052 -0.0951 -0.1334
  413SOL    HW1 2680   5.229   6.962   3.823 -0.3501 -0.8865  0.3672
  413SOL    HW2 2681   5.196   7.008   3.963 -0.6301  0.6132 -0.1716
  414SOL     OW 2682   2.451   2.933   4.531 -0.0040  0.6428 -0.2377
  414SOL    HW1 2683   2.536   2.974   4.543  0.1889 -0.1259  1.2225
  414SOL    HW2 2684   2.388   2.999   4.561  0.1664  0.7518 -0.1201
  415SOL     OW 2685   1.689   4.267   7.131 -0.4875 -0.5419  0.3011
  415SOL    HW1 2686   1.737   4.258   7.214  0.4880 -2.1160 -0.3805
  415SOL    HW2 2687   1.647   4.353   7.137  2.1364  0.7953  1.0938
  416SOL     OW 2688   6.037   6.142  10.839 -0.0166  0.3226  0.0525
  416SOL    HW1 2689   6.014   6.221  10.887 -0.5458 -1.2891  2.6671
  416SOL    HW2 2690   5.964   6.082  10.854  1.5615 -1.6215  0.5242
  417SOL     OW 2691   1.962   3.305   9.799  0.2852  0.6060 -0.1656
  417SOL    HW1 2692   2.048   3.268   9.779  0.5758  1.6028 -0.8774
  417SOL    HW2 2693   1.972   3.399   9.782 -1.1163  0.6623 -0.8765
  418SOL     OW 2694   6.472   1.718   8.876  0.1971 -0.8306 -1.0648
  418SOL    HW1 2695   6.444   1.697   8.965 -0.6510  2.9416 -0.3013
  418SOL    HW2 2696   6.556   1.763   8.887 -0.0377 -0.0996 -2.1429
  419SOL     OW 2697   7.573   3.917   9.905 -0.0611 -0.2723  0.0535
  419SOL    HW1 2698   7.580   3.967   9.824  0.2223  0.8545  0.7486
  419SOL    HW2 2699   7.483   3.934   9.936  0.1598  0.1432  0.4881
  420SOL     OW 2700   3.231   6.870   9.628  0.5500 -0.0428  0.1537
  420SOL    HW1 2701   3.318   6.910   9.636  0.7451  0.6639 -3.6163
  420SOL    HW2 2702   3.226   6.842   9.536 -2.9716 -0.6404  0.3954
  421SOL     OW 2703   7.937   4.876   0.214 -0.3074  0.4096  0.9789
  421SOL    HW1 2704   7.885   4.836   0.284 -0.2186  1.6947  1.8103
  421SOL    HW2 2705   7.908   4.967   0.211  0.7054  0.7321  0.3120
  422SOL     OW 2706   3.386   4.685   2.054  0.5179 -0.0053 -0.4350
  422SOL    HW1 2707   3.459   4.625   2.065 -0.2763 -1.0960 -0.8822
  422SOL    HW2 2708   3.396   4.720   1.965  0.1216 -0.6862 -0.7520
  423SOL     OW 2709   0.737   6.966   2.569  0.0234  0.2084 -0.0704
  423SOL    HW1 2710   0.824   7.005   2.577 -0.1510  0.8685 -1.1659
  423SOL    HW2 2711   0.693   6.989   2.651  0.7685  0.1517  0.3514
  424SOL     OW 2712   6.487   2.248  10.855 -0.1183  0.5497 -0.2643
  424SOL    HW1 2713   6.575   2.264  10.889  0.2060 -0.7484 -0.4414
  424SOL    HW2 2714   6.431   2.246  10.933  0.5061 -1.6763  0.1901
  425SOL     OW 2715   1.255   7.304   2.937  0.1749  0.2474 -0.4479
  425SOL    HW1 2716   1.311   7.381   2.927  1.4984 -0.7445 -1.0055
  425SOL    HW2 2717   1.316   7.231   2.948 -1.0346 -0.3515  3.7238
  426SOL     OW 2718   5.357   6.462   7.657 -0.1298  0.2890  0.0561
  426SOL    HW1 2719   5.440   6.462   7.704  0.8906  2.7123 -1.5640
  426SOL    HW2 2720   5.377   6.422   7.573 -0.3186  1.7379 -0.7047
  427SOL     OW 2721   6.845   0.196   8.262  0.0790 -0.0662  0.0666
  427SOL    HW1 2722   6.894   0.247   8.199  1.8055 -3.0344 -1.2092
  427SOL    HW2 2723   6.798   0.261   8.315 -0.0522  2.6326 -3.0765
  428SOL     OW 2724   2.169   4.389   7.925  0.0960 -0.0789  0.1510
  428SOL    HW1 2725   2.096   4.345   7.881 -0.5572  0.1132  1.0208
  428SOL    HW2 2726   2.181   4.341   8.007 -0.3078  1.0347  0.8867
  429SOL     OW 2727   0.832   1.431  11.925  0.1538  0.3024 -0.0800
  429SOL    HW1 2728   0.771   1.381  11.978 -0.3131  1.7313  0.7880
  429SOL    HW2 2729   0.904   1.370  11.907 -0.5412 -0.7600  0.6329
  430SOL     OW 2730   3.447   4.346   2.207  0.0632  0.8916 -1.1003
  430SOL    HW1 2731   3.525   4.402   2.196  0.1271  1.3458  1.2382
  430SOL    HW2 2732   3.479   4.270   2.256 -0.7029  0.4025 -1.3520
  431SOL     OW 2733   7.081   1.299   1.375 -0.3751  0.0844  0.0767
  431SOL    HW1 2734   7.127   1.277   1.295  0.8772 -0.6795  0.9719
  431SOL    HW2 2735   7.108   1.389   1.394  0.2238 -0.1230  0.2312
  432SOL     OW 2736   2.589   6.046   5.691 -0.7391  0.2441 -0.3717
  432SOL    HW1 2737   2.567   5.977   5.628  1.0614 -0.7429  0.0309
  432SOL    HW2 2738   2.590   6.002   5.776 -0.4036  0.9691  0.0092
  433SOL     OW 2739   7.218   6.559  11.241  0.3786 -0.4137  0.1390
  433SOL    HW1 2740   7.138   6.558  11.188  0.7889 -1.0804 -0.5037
  433SOL    HW2 2741   7.259   6.475  11.222  0.2681 -0.9266  1.9751
  434SOL     OW 2742   6.107   6.910   4.897 -0.2739  0.7284  0.0294
  434SOL    HW1 2743   6.150   6.825   4.904 -1.4315 -0.1714 -2.6156
  434SOL    HW2 2744   6.082   6.931   4.987  1.1519 -1.1007  0.9247
  435SOL     OW 2745   4.949   4.773   2.657 -0.2292 -0.3779  0.0108
  435SOL    HW1 2746   5.009   4.700   2.639 -0.5955 -0.6678 -0.0567
  435SOL    HW2 2747   4.923   4.804   2.570  0.2336  0.0956  0.0368
  436SOL     OW 2748   6.349   0.623  11.529 -0.5172 -0.6600  0.1990
  436SOL    HW1 2749   6.364   0.643  11.437 -2.2185 -0.5446 -0.0931
  436SOL    HW2 2750   6.259   0.591  11.532 -0.3864 -0.9709  1.7813
  437SOL     OW 2751   1.583   1.182  11.592  0.1109 -0.1494 -0.5341
  437SOL    HW1 2752   1.606   1.259  11.541  1.8321 -1.1670 -1.3707
  437SOL    HW2 2753   1.577   1.111  11.528 -1.7014 -0.7060  0.1762
  438SOL     OW 2754   6.917   0.677   8.443 -0.1885  0.2546  0.7906
  438SOL    HW1 2755   6.975   0.744   8.478  0.3570  0.7465 -0.9553
  438SOL    HW2 2756   6.943   0.596   8.488  0.5545  0.8261  1.4036
  439SOL     OW 2757   7.840   2.832   3.670  0.3617 -0.5555 -0.1875
  439SOL    HW1 2758   7.926   2.823   3.628  2.0085  1.1673  2.4743
  439SOL    HW2 2759   7.833   2.926   3.690 -2.1682 -0.6517 -0.2727
  440SOL     OW 2760   1.999   6.999   5.578 -0.5102 -0.6087 -0.3975
  440SOL    HW1 2761   1.936   7.070   5.594  1.5666  0.8268  2.3537
  440SOL    HW2 2762   2.077   7.044   5.545  0.3539 -1.8090 -0.0387
  441SOL     OW 2763   4.735   5.776   1.204 -0.0964 -0.1470  0.6534
  441SOL    HW1 2764   4.775   5.837   1.141 -0.1873  0.2606  0.9884
  441SOL    HW2 2765   4.702   5.705   1.149  0.1689  0.0148  0.2736
  442SOL     OW 2766   6.202   3.633   6.867  0.0193 -0.2152  0.3159
  442SOL    HW1 2767   6.204   3.720   6.828  1.4230 -0.3637  0.0157
  442SOL    HW2 2768   6.140   3.584   6.813 -3.5492  1.4666  2.5285
  443SOL     OW 2769   7.920   0.026  11.615 -0.0094  0.2967 -0.2814
  443SOL    HW1 2770   7.918  -0.006  11.525  0.3299 -0.7478  0.0702
  443SOL    HW2 2771   7.988  -0.026  11.657 -1.6378 -0.7845  1.1437
  444SOL     OW 2772   6.526   4.493   5.404  0.2408 -0.1537  0.0763
  444SOL    HW1 2773   6.586   4.461   5.470 -1.1556  1.1785  2.1076
  444SOL    HW2 2774   6.541   4.436   5.328  3.7802 -0.0464  0.5399
  445SOL     OW 2775   7.365   0.751   5.299  0.0539 -0.2160 -0.1019
  445SOL    HW1 2776   7.437   0.690   5.315 -0.2689 -0.8071 -0.8315
  445SOL    HW2 2777   7.394   0.802   5.224 -0.1810 -0.2923 -0.2449
  446SOL     OW 2778   3.322   7.868  10.663 -0.3998 -0.0865  0.6733
  446SOL    HW1 2779   3.288   7.784  10.694  1.0710 -1.4820 -1.3324
  446SOL    HW2 2780   3.344   7.853  10.571  1.6466  1.9574  0.7560
  447SOL     OW 2781   1.270   5.887   5.207 -0.9207  0.4684 -0.0565
  447SOL    HW1 2782   1.327   5.815   5.182  0.2448  1.6413 -0.9076
  447SOL    HW2 2783   1.186   5.846   5.227  0.0539 -1.2491  0.7130
  448SOL     OW 2784   5.888   3.366   9.997  0.0018  0.1821  0.1564
  448SOL    HW1 2785   5.878   3.270  10.000 -0.8119  0.2713  2.0597
  448SOL    HW2 2786   5.979   3.380  10.024  0.4980 -0.0783 -1.3223
  449SOL     OW 2787   6.234   1.671   9.116 -0.1274 -0.5012 -0.6965
  449SOL    HW1 2788   6.228   1.639   9.206 -1.0375 -0.3973 -0.7085
  449SOL    HW2 2789   6.272   1.758   9.123 -1.9531  0.3061 -0.2027
  450SOL     OW 2790   0.294   7.106   4.747  0.3288 -0.4701  0.0418
  450SOL    HW1 2791   0.329   7.151   4.824 -1.9838  0.4977  0.6123
  450SOL    HW2 2792   0.259   7.024   4.781  0.5399 -0.6837 -0.2427
  451SOL     OW 2793   5.028   6.765   9.424 -0.1951 -0.1524 -0.1795
  451SOL    HW1 2794   5.102   6.706   9.438 -0.6420 -1.0828 -1.5015
  451SOL    HW2 2795   4.954   6.721   9.468  0.3795  1.8819  3.2100
  452SOL     OW 2796   5.090   7.254  12.270 -0.0804  0.2022  0.4919
  452SOL    HW1 2797   5.121   7.254  12.360 -0.3116  0.7928  0.5739
  452SOL    HW2 2798   5.033   7.330  12.264 -1.7193 -0.9772  0.4182
  453SOL     OW 2799   4.021   5.694   3.591  0.4466  0.0588 -0.2571
  453SOL    HW1 2800   4.096   5.708   3.532  0.1333  0.6002 -0.5373
  453SOL    HW2 2801   4.031   5.604   3.620  2.2149  0.6486  1.1482
  454SOL     OW 2802   3.583   7.062  10.696 -0.8298  1.0357  0.1726
  454SOL    HW1 2803   3.579   6.982  10.747 -0.9250  0.8803 -0.0764
  454SOL    HW2 2804   3.628   7.037  10.615  0.5477  1.5865  0.7415
  455SOL     OW 2805   4.655   4.898   7.042  0.0460 -0.7816  0.4360
  455SOL    HW1 2806   4.651   4.880   6.948  0.7325  1.5096 -0.0947
  455SOL    HW2 2807   4.566   4.881   7.073 -0.9109  0.8758 -1.1637
  456SOL     OW 2808   3.779   1.506   8.340  0.4835  0.2844  0.0992
  456SOL    HW1 2809   3.804   1.459   8.261 -0.9513 -0.8125  0.2532
  456SOL    HW2 2810   3.858   1.553   8.366  1.7678 -1.4187 -0.5156
  457SOL     OW 2811   7.933   1.811   5.695 -0.1665  0.8091  0.1177
  457SOL    HW1 2812   8.004   1.750   5.712 -0.9278 -0.0265  0.3641
  457SOL    HW2 2813   7.861   1.781   5.751 -1.3656  0.4547 -1.5324
  458SOL     OW 2814   1.243   5.034   2.563 -0.0583  0.6048  0.3239
  458SOL    HW1 2815   1.207   4.973   2.627  0.9236  0.1892  0.4969
  458SOL    HW2 2816   1.334   5.006   2.552 -0.2392  0.5967 -1.3374
  459SOL     OW 2817   4.645   5.160   5.218 -0.6092  0.0885  0.4278
  459SOL    HW1 2818   4.690   5.096   5.273  0.2422  0.5317  0.2592
  459SOL    HW2 2819   4.619   5.110   5.140  1.8921  0.3595 -0.6728
  460SOL     OW 2820   6.352   0.376   8.425 -0.3982  0.3576 -0.5754
  460SOL    HW1 2821   6.316   0.435   8.491 -1.3882  0.5863 -1.2944
  460SOL    HW2 2822   6.299   0.393   8.347 -0.6660 -1.4380 -0.8114
  461SOL     OW 2823   5.824   5.050   3.331 -0.4516  0.1387  0.3290
  461SOL    HW1 2824   5.906   5.076   3.371 -0.7693  0.6965  0.6283
  461SOL    HW2 2825   5.773   5.012   3.402 -0.2878 -0.6141  0.0520
  462SOL     OW 2826   4.885   2.209   4.080  0.7134 -0.0828 -0.7426
  462SOL    HW1 2827   4.889   2.291   4.031  1.7467  1.0525  1.1521
  462SOL    HW2 2828   4.903   2.234   4.171  1.8770 -2.5093 -0.2293
  463SOL     OW 2829   0.878   6.665   5.400 -0.8900 -0.2446 -0.1275
  463SOL    HW1 2830   0.896   6.587   5.347  0.8317 -0.1944  0.3327
  463SOL    HW2 2831   0.883   6.634   5.491 -1.3752  0.1706  0.0473
  464SOL     OW 2832   7.169   0.316  11.595  0.1468  0.3326 -0.4705
  464SOL    HW1 2833   7.139   0.399  11.633 -0.7058 -0.5957  0.9796
  464SOL    HW2 2834   7.089   0.271  11.568  0.2533 -1.3458  1.6837
  465SOL     OW 2835   1.235   4.565  11.223 -0.0697  0.1963 -0.1310
  465SOL    HW1 2836   1.158   4.520  11.188 -0.0040 -0.1991  0.2233
  465SOL    HW2 2837   1.272   4.611  11.148 -0.1562 -0.3175 -0.4968
  466SOL     OW 2838   6.072   3.857   0.718 -0.3631 -0.6656  0.4028
  466SOL    HW1 2839   6.007   3.919   0.750  0.4409  0.0645  0.6672
  466SOL    HW2 2840   6.109   3.819   0.798 -1.0414 -1.7056  0.2379
  467SOL     OW 2841   1.195   0.781  11.580  0.4251  0.2331 -0.3872
  467SOL    HW1 2842   1.161   0.818  11.662 -0.8051  1.1755 -1.2656
  467SOL    HW2 2843   1.187   0.686  11.591 -2.0545  0.3681 -0.2817
  468SOL     OW 2844   6.095   1.325   4.208 -0.2512 -0.6837 -0.8737
  468SOL    HW1 2845   6.142   1.260   4.155 -1.2062 -2.9895  0.9236
  468SOL    HW2 2846   6.013   1.338   4.161  0.4231  0.1852 -1.8610
  469SOL     OW 2847   0.587   2.073  10.741  0.1197  0.8359 -0.8535
  469SOL    HW1 2848   0.556   2.025  10.664 -0.1729  2.0844 -1.5560
  469SOL    HW2 2849   0.623   2.154  10.705 -1.4279  2.1499  0.4118
  470SOL     OW 2850   7.592   0.174   1.268 -0.4653 -0.0887 -0.0426
  470SOL    HW1 2851   7.683   0.203   1.275 -0.4238 -0.0426 -0.6804
  470SOL    HW2 2852   7.541   0.254   1.278 -0.3764  0.1109 -1.0744
  471SOL     OW 2853   3.953   6.732   8.951  0.3256  0.5012 -0.1835
  471SOL    HW1 2854   3.996   6.685   8.880 -0.0915 -1.7758  0.9669
  471SOL    HW2 2855   3.862   6.703   8.948 -0.0641  1.6300  0.2769
  472SOL     OW 2856   3.675   2.259  10.570  0.2681  0.1667 -0.3801
  472SOL    HW1 2857   3.712   2.347  10.570  1.2687 -0.0452  3.5805
  472SOL    HW2 2858   3.612   2.260  10.642 -1.0500 -1.9232 -1.4124
  473SOL     OW 2859   7.381   2.457   6.644  0.3590 -0.5903  0.1323
  473SOL    HW1 2860   7.460   2.439   6.695  0.9262  3.1859  0.8581
  473SOL    HW2 2861   7.309   2.428   6.700  1.1079 -1.1356  0.8430
  474SOL     OW 2862   7.151   7.115   0.368  0.2596 -0.5307  0.0875
  474SOL    HW1 2863   7.117   7.048   0.428  0.1824  1.1796  2.0901
  474SOL    HW2 2864   7.087   7.118   0.297 -3.0652  1.3459  2.8417
  475SOL     OW 2865   6.222   4.984  12.401  0.4282 -0.8637  0.0811
  475SOL    HW1 2866   6.303   4.939  12.376  1.0304 -0.2161  0.8044
  475SOL    HW2 2867   6.241   5.077  12.385 -0.0540 -0.6749  0.5682
  476SOL     OW 2868   5.122   0.656   8.647  0.7244  0.3633  0.5064
  476SOL    HW1 2869   5.080   0.734   8.682 -0.6113 -0.3135  0.4477
  476SOL    HW2 2870   5.204   0.649   8.696  0.8841  1.8217  0.4684
  477SOL     OW 2871   1.039   5.738   3.580 -0.1038  0.3734 -0.2214
  477SOL    HW1 2872   1.006   5.651   3.562  2.3471 -0.7041 -0.0028
  477SOL    HW2 2873   1.084   5.764   3.499  0.9427  0.4991  0.3721
  478SOL     OW 2874   2.022   3.331   6.035 -0.1114  0.2080 -0.4026
  478SOL    HW1 2875   1.943   3.288   6.067 -0.4324 -1.3945 -3.0418
  478SOL    HW2 2876   2.010   3.423   6.058 -2.1040 -0.2220  0.4748
  479SOL     OW 2877   5.958   0.358   5.967  0.6024 -0.2754 -0.2980
  479SOL    HW1 2878   5.918   0.307   6.037 -0.9109  0.2731 -0.7053
  479SOL    HW2 2879   5.916   0.444   5.974  2.1105  0.5130 -0.4625
  480SOL     OW 2880   2.720   7.110   0.856 -0.7951  0.3501 -0.0032
  480SOL    HW1 2881   2.718   7.045   0.786 -0.2451 -0.1310  0.4188
  480SOL    HW2 2882   2.679   7.065   0.930 -1.5358  0.9176 -0.0612
  481SOL     OW 2883   5.709   3.593  10.147 -0.7175 -0.2464  0.0141
  481SOL    HW1 2884   5.679   3.507  10.178 -1.7101 -0.2992 -1.0612
  481SOL    HW2 2885   5.784   3.573  10.091  0.2961 -0.2358  1.2896
  482SOL     OW 2886   1.265   7.463  11.638 -0.1312  0.3312 -0.0121
  482SOL    HW1 2887   1.244   7.448  11.546 -0.5140 -0.9485  0.2640
  482SOL    HW2 2888   1.343   7.518  11.636 -1.5325  2.4072 -1.0742
  483SOL     OW 2889   3.145   4.150  11.742  0.5629  0.0815 -0.5310
  483SOL    HW1 2890   3.212   4.116  11.683  0.7122  3.3089 -2.4616
  483SOL    HW2 2891   3.066   4.155  11.688 -0.1069  0.2838  0.4477
  484SOL     OW 2892   3.626   4.571   2.149 -0.1130 -0.4510 -0.2546
  484SOL    HW1 2893   3.716   4.549   2.170  0.0065  1.7174  1.9717
  484SOL    HW2 2894   3.632   4.647   2.091 -0.4749  0.3978  0.7942
  485SOL     OW 2895   7.405   5.661   7.566  0.2089 -0.1066  0.0034
  485SOL    HW1 2896   7.463   5.599   7.610 -0.2906 -0.8740 -0.4181
  485SOL    HW2 2897   7.331   5.609   7.536 -0.4074  0.7572 -0.0206
  486SOL     OW 2898   3.943   1.077   8.701  0.1238  0.4108  0.2972
  486SOL    HW1 2899   4.031   1.110   8.718  0.4834 -1.1412  1.7498
  486SOL    HW2 2900   3.935   1.000   8.758 -1.2062 -1.0531 -1.7277
  487SOL     OW 2901   2.226   6.890   6.296  0.1524  0.5981 -0.1290
  487SOL    HW1 2902   2.177   6.858   6.220 -0.7811 -0.0118  0.7014
  487SOL    HW2 2903   2.286   6.819   6.318 -1.0533 -0.1259  0.9594
  488SOL     OW 2904   3.469   3.219   0.592 -0.3146  0.5299 -0.7130
  488SOL    HW1 2905   3.482   3.273   0.670 -0.9376 -1.6190  0.9562
  488SOL    HW2 2906   3.394   3.260   0.548 -0.7690  1.0454  0.4951
  489SOL     OW 2907   7.111   6.828   9.879 -0.5515  0.0324 -0.4377
  489SOL    HW1 2908   7.064   6.793   9.955 -0.2026  1.4582  0.4681
  489SOL    HW2 2909   7.198   6.788   9.884 -0.8140 -0.5718 -0.6130
  490SOL     OW 2910   7.418   5.622  11.544 -0.1477  0.2604  0.8105
  490SOL    HW1 2911   7.475   5.652  11.615 -0.6437 -0.0616  1.3478
  490SOL    HW2 2912   7.434   5.528  11.539 -0.6610  0.1606  0.9951
  491SOL     OW 2913   0.098   2.546   9.119 -0.1940  0.2025 -0.4959
  491SOL    HW1 2914   0.103   2.632   9.161 -0.9702  1.0054 -1.9794
  491SOL    HW2 2915   0.188   2.527   9.094  0.2492 -0.1792  1.2236
  492SOL     OW 2916   4.168   1.788   6.489  0.0261  0.2815 -0.3496
  492SOL    HW1 2917   4.133   1.868   6.528  0.5668  0.2741  0.1725
  492SOL    HW2 2918   4.253   1.776   6.532  0.6329  0.2632 -1.5239
  493SOL     OW 2919   6.957   5.593   6.203 -0.1850  0.0303 -0.3118
  493SOL    HW1 2920   6.886   5.656   6.201  0.0252  0.2473 -1.4163
  493SOL    HW2 2921   6.935   5.529   6.136 -0.2409 -0.9226  0.5789
  494SOL     OW 2922   1.085   5.494   6.877  0.0177 -0.2176 -0.0353
  494SOL    HW1 2923   1.063   5.512   6.968  0.5245 -0.2927  0.1001
  494SOL    HW2 2924   1.038   5.413   6.857 -0.0642 -0.2209  0.1671
  495SOL     OW 2925   6.747   0.519   0.820  0.1138 -0.0224  0.2967
  495SOL    HW1 2926   6.700   0.534   0.902 -1.9763 -0.2964 -0.7734
  495SOL    HW2 2927   6.765   0.425   0.820 -0.7491 -0.1903  0.0126
  496SOL     OW 2928   4.128   5.630  11.201  0.5925 -0.4482 -0.0611
  496SOL    HW1 2929   4.187   5.560  11.175  0.1168 -0.9294  0.1186
  496SOL    HW2 2930   4.083   5.655  11.120  1.7695  0.6480 -0.4125
  497SOL     OW 2931   5.630   4.021   5.838 -0.1088 -0.0058 -0.1743
  497SOL    HW1 2932   5.615   3.930   5.816 -1.2934  0.3928 -1.1163
  497SOL    HW2 2933   5.563   4.069   5.790 -1.3070  1.1376  2.4566
  498SOL     OW 2934   5.022   1.164   6.775 -0.0763  0.2374 -0.5914
  498SOL    HW1 2935   5.115   1.150   6.756  0.7147  0.8626  2.3183
  498SOL    HW2 2936   4.999   1.093   6.835 -1.3050  0.4591 -0.7832
  499SOL     OW 2937   4.911   0.662   1.781  0.6640 -0.2627  0.0263
  499SOL    HW1 2938   4.975   0.682   1.713  0.1960  0.4323 -0.2244
  499SOL    HW2 2939   4.826   0.677   1.739  0.3375 -0.9769  0.4135
  500SOL     OW 2940   3.951   7.606  10.621  0.1102  0.2708  0.3285
  500SOL    HW1 2941   3.909   7.558  10.549 -1.4789  2.1656 -0.0962
  500SOL    HW2 2942   4.043   7.579  10.617 -0.0052 -0.0310 -2.1437
  501SOL     OW 2943   1.579   1.136   4.061  0.1327  0.1941  0.0860
  501SOL    HW1 2944   1.636   1.105   3.990  1.4462  0.6683  0.8981
  501SOL    HW2 2945   1.636   1.141   4.138 -0.1596  3.5725  0.2657
  502SOL     OW 2946   5.452   5.563  10.499 -1.4884  0.7378 -0.1124
  502SOL    HW1 2947   5.407   5.533  10.578  0.2227  0.5438  0.8325
  502SOL    HW2 2948   5.422   5.503  10.431 -1.4429 -0.4152  0.8322
  503SOL     OW 2949   7.515   7.807   0.087 -0.4711 -0.0383 -0.5826
  503SOL    HW1 2950   7.450   7.846   0.029 -0.1020  1.4796 -0.0168
  503SOL    HW2 2951   7.575   7.879   0.108 -1.3308 -0.1221  2.7443
  504SOL     OW 2952   7.518   5.804   9.462 -0.2928  0.3818  0.1567
  504SOL    HW1 2953   7.501   5.724   9.513 -0.7062 -0.0620 -0.6500
  504SOL    HW2 2954   7.591   5.847   9.508 -0.0776 -0.4486  0.6184
  505SOL     OW 2955   6.188   5.393   3.956 -0.4989  0.4781 -0.0323
  505SOL    HW1 2956   6.279   5.371   3.936 -0.3966  1.0085 -0.1719
  505SOL    HW2 2957   6.192   5.437   4.041 -0.8744 -1.3113  0.9549
  506SOL     OW 2958   1.436   2.023   5.691  0.0534 -0.1341 -0.0194
  506SOL    HW1 2959   1.457   1.930   5.692 -2.3741 -0.8160 -2.1348
  506SOL    HW2 2960   1.364   2.033   5.753 -0.4946  0.0863 -0.6784
  507SOL     OW 2961   7.497   3.228  10.596 -0.0848 -0.4376 -0.2715
  507SOL    HW1 2962   7.407   3.231  10.564  0.0671 -1.4649 -0.8012
  507SOL    HW2 2963   7.536   3.152  10.554  0.7885 -0.5028  0.6109
  508SOL     OW 2964   3.184   1.721   2.164 -0.0511 -0.6751 -0.1636
  508SOL    HW1 2965   3.154   1.667   2.237 -0.4410  0.3648  0.4645
  508SOL    HW2 2966   3.135   1.688   2.088  0.1817 -1.6006  0.0743
  509SOL     OW 2967   6.478   1.668  10.530 -0.0794  0.1048 -0.2605
  509SOL    HW1 2968   6.485   1.606  10.602 -0.5696  0.9014  0.4934
  509SOL    HW2 2969   6.567   1.674  10.495 -0.0489 -1.1185 -0.4527
  510SOL     OW 2970   4.946   4.770   8.127 -0.0708  0.1589  0.2299
  510SOL    HW1 2971   5.005   4.846   8.125 -1.4781  1.3773  2.1083
  510SOL    HW2 2972   4.977   4.714   8.055  1.1071  2.4166 -1.1280
  511SOL     OW 2973   5.867   5.121  10.217  0.5339 -0.0845 -0.4130
  511SOL    HW1 2974   5.880   5.105  10.123  1.4756 -0.5371 -0.2150
  511SOL    HW2 2975   5.843   5.214  10.222 -0.0987 -0.1881 -1.1411
  512SOL     OW 2976   3.195   2.723   6.126 -0.0931  0.5751  0.3833
  512SOL    HW1 2977   3.130   2.792   6.118 -0.7669  0.4902  3.7114
  512SOL    HW2 2978   3.274   2.767   6.157  0.3946  0.2071 -0.3015
  513SOL     OW 2979   6.647   6.971   8.786 -0.3924 -0.4018  0.4194
  513SOL    HW1 2980   6.553   6.989   8.786 -0.3449 -0.1388 -0.3144
  513SOL    HW2 2981   6.667   6.946   8.696  0.7869  2.4205 -0.2048
  514SOL     OW 2982   5.876   1.597   0.474  0.0837 -0.3711  0.5069
  514SOL    HW1 2983   5.892   1.638   0.389  0.0541  1.8860  1.5033
  514SOL    HW2 2984   5.964   1.579   0.509  0.0963 -1.2667  0.0360
  515SOL     OW 2985   6.216   5.682  10.103 -0.3051 -0.0804 -0.2699
  515SOL    HW1 2986   6.152   5.611  10.111 -0.8551  0.3745 -0.5509
  515SOL    HW2 2987   6.167   5.761  10.127 -0.0296  0.3630 -1.1332
  516SOL     OW 2988   0.782   4.214   2.622  0.2482 -0.4820  0.1442
  516SOL    HW1 2989   0.789   4.201   2.527 -0.4356 -0.6398  0.1095
  516SOL    HW2 2990   0.873   4.218   2.652  0.5884  2.7354 -0.9154
  517SOL     OW 2991   4.271   7.824   5.540  0.6442 -0.1211  0.2945
  517SOL    HW1 2992   4.275   7.744   5.593  0.7905  1.0699  2.1952
  517SOL    HW2 2993   4.177   7.844   5.535  0.6662  0.0725  0.6144
  518SOL     OW 2994   4.336   7.798   7.022 -0.3483 -0.1888 -0.1400
  518SOL    HW1 2995   4.411   7.824   7.076  0.5534 -1.8333 -0.5104
  518SOL    HW2 2996   4.266   7.857   7.047  1.1252  1.5210  0.1154
  519SOL     OW 2997   7.726   0.266   7.342  0.6955  0.0891  0.1074
  519SOL    HW1 2998   7.647   0.261   7.287  1.5775  2.5087 -1.5697
  519SOL    HW2 2999   7.798   0.271   7.279  1.9794  0.3820  1.5528
  520SOL     OW 3000   6.019   3.258   4.536  0.0961 -0.3690  0.4667
  520SOL    HW1 3001   6.096   3.310   4.512 -0.4969  0.5745  0.5353
  520SOL    HW2 3002   5.991   3.218   4.453 -1.3262  2.0329 -0.3061
  521SOL     OW 3003   0.221   7.456   9.821 -0.0446  0.3837 -0.5994
  521SOL    HW1 3004   0.173   7.407   9.888  1.4631 -0.2983  0.0138
  521SOL    HW2 3005   0.173   7.539   9.814 -0.0477  0.6301  1.5807
  522SOL     OW 3006   0.178   1.749   5.495  0.2976  0.3108 -0.6148
  522SOL    HW1 3007   0.249   1.776   5.437  0.5034  0.3808 -0.3291
  522SOL    HW2 3008   0.134   1.831   5.519  0.0095  0.2526 -0.9299
  523SOL     OW 3009   5.452   3.706   1.200 -0.1873  0.0747  0.3442
  523SOL    HW1 3010   5.503   3.730   1.277  1.8179 -0.8142 -0.6378
  523SOL    HW2 3011   5.505   3.639   1.155 -1.7910 -0.2317 -1.2337
  524SOL     OW 3012   7.635   5.520  11.949 -0.1510 -0.0096  0.4546
  524SOL    HW1 3013   7.632   5.560  12.036 -0.4923  0.8617  0.0555
  524SOL    HW2 3014   7.725   5.490  11.939  0.0475  0.4428  0.8611
  525SOL     OW 3015   3.765   3.129  12.153 -0.0018  0.1357  0.5675
  525SOL    HW1 3016   3.841   3.118  12.210  1.1810  0.3138 -0.8963
  525SOL    HW2 3017   3.735   3.219  12.170  0.8719  0.4891  0.3228
  526SOL     OW 3018   2.530   5.015   7.131 -0.1794  0.0812  0.1361
  526SOL    HW1 3019   2.456   4.955   7.141  0.0699 -0.7624 -2.3955
  526SOL    HW2 3020   2.498   5.082   7.070  0.8458  0.1810 -0.3037
  527SOL     OW 3021   2.088   3.189  11.156 -0.6182 -0.1454  0.1077
  527SOL    HW1 3022   1.994   3.178  11.140 -0.3020 -0.5400 -1.6323
  527SOL    HW2 3023   2.127   3.198  11.069  1.0217 -0.5127  0.7625
  528SOL     OW 3024   1.435   4.418   6.503 -0.7568 -0.3885 -0.3537
  528SOL    HW1 3025   1.351   4.431   6.547 -0.2003 -0.3433  0.7212
  528SOL    HW2 3026   1.492   4.486   6.538 -0.2418 -0.4751 -1.0052
  529SOL     OW 3027   5.850   6.883   8.246  0.5937 -0.1318  0.2089
  529SOL    HW1 3028   5.804   6.828   8.183 -0.6008 -0.6572  1.4764
  529SOL    HW2 3029   5.841   6.837   8.330  0.8825  1.2210  1.0257
  530SOL     OW 3030   4.973   0.369  10.345  0.1619 -0.0542  0.2385
  530SOL    HW1 3031   5.043   0.406  10.292  0.3741 -1.2809 -0.3765
  530SOL    HW2 3032   4.900   0.430  10.335  0.3379 -0.0316 -1.1203
  531SOL     OW 3033   2.846   6.846   8.605  0.1660  0.1144  0.0748
  531SOL    HW1 3034   2.804   6.761   8.590 -1.4882  0.5660  1.7402
  531SOL    HW2 3035   2.852   6.886   8.518  0.1891 -1.3330 -0.6211
  532SOL     OW 3036   0.568   3.044   7.188 -0.3343  0.3868  0.1281
  532SOL    HW1 3037   0.588   2.954   7.160 -0.7499  0.1534  0.5607
  532SOL    HW2 3038   0.480   3.060   7.153 -0.3577  0.5372  0.2551
  533SOL     OW 3039   7.471   2.428   3.271 -0.2780  0.1052 -0.1633
  533SOL    HW1 3040   7.487   2.433   3.365 -1.7337 -1.0321  0.1819
  533SOL    HW2 3041   7.553   2.395   3.235  0.1122 -0.0150  0.7941
  534SOL     OW 3042   6.018   6.951   4.304 -0.1205  0.2540 -0.0457
  534SOL    HW1 3043   6.021   7.038   4.345 -0.5927 -0.0799  0.6991
  534SOL    HW2 3044   5.930   6.919   4.322  0.6009 -1.1169  1.2254
  535SOL     OW 3045   6.126   7.435   9.224  0.1563 -0.2009 -0.1339
  535SOL    HW1 3046   6.126   7.490   9.302  0.2773  1.5755 -1.3504
  535SOL    HW2 3047   6.056   7.469   9.169 -0.8654 -2.3140 -0.2692
  536SOL     OW 3048   2.357   7.862   8.489  0.0345  0.4259 -0.9656
  536SOL    HW1 3049   2.294   7.904   8.547  1.5340  0.8198  0.4548
  536SOL    HW2 3050   2.351   7.911   8.407 -1.0311  0.8612 -0.6375
  537SOL     OW 3051   0.809   1.622   8.320  0.1233  0.1908  0.5695
  537SOL    HW1 3052   0.745   1.574   8.372  0.8313 -2.7745 -1.0629
  537SOL    HW2 3053   0.847   1.557   8.262  1.1877  2.7919 -1.9172
  538SOL     OW 3054   1.804   0.431   6.129 -0.0769 -0.1175 -0.0376
  538SOL    HW1 3055   1.836   0.472   6.049  2.4005  0.2492  1.0477
  538SOL    HW2 3056   1.710   0.417   6.114  0.1891  0.5559 -2.6953
  539SOL     OW 3057   1.950   7.728   8.471 -0.1018 -0.1638 -0.1290
  539SOL    HW1 3058   1.873   7.675   8.494  0.2002 -0.4117  0.3325
  539SOL    HW2 3059   2.021   7.688   8.520  0.4417 -0.3128 -1.0244
  540SOL     OW 3060   4.625   0.075  11.780 -0.1540 -0.1174 -0.1980
  540SOL    HW1 3061   4.632  -0.010  11.734  1.5700 -0.3202  0.3744
  540SOL    HW2 3062   4.618   0.052  11.872 -0.9309  0.3600 -0.1275
  541SOL     OW 3063   6.320   1.518  11.831  0.6374 -0.0420 -0.2725
  541SOL    HW1 3064   6.405   1.559  11.850  0.9540 -1.5927  2.1804
  541SOL    HW2 3065   6.343   1.429  11.805 -0.2215 -0.7555  1.3076
  542SOL     OW 3066   1.456   4.104   7.949 -0.0476 -0.3552 -0.3442
  542SOL    HW1 3067   1.535   4.145   7.913 -1.0539  1.2569 -0.8492
  542SOL    HW2 3068   1.437   4.032   7.889 -0.6882  1.1992 -2.1094
  543SOL     OW 3069   5.252   7.011   3.257 -0.3174  0.6374  0.0693
  543SOL    HW1 3070   5.208   7.092   3.280  0.8240  1.1260  0.5706
  543SOL    HW2 3071   5.241   7.004   3.162  1.0336  2.2898 -0.2561
  544SOL     OW 3072   5.532   7.569   1.695  0.0516 -0.2571 -0.1887
  544SOL    HW1 3073   5.577   7.598   1.615  0.5720  0.7831  0.4567
  544SOL    HW2 3074   5.599   7.575   1.763 -0.6023 -0.3752  0.4704
  545SOL     OW 3075   1.873   2.310   5.298 -0.6815  0.2074 -0.0861
  545SOL    HW1 3076   1.786   2.270   5.296 -0.1827 -0.9159  0.0185
  545SOL    HW2 3077   1.909   2.294   5.210  0.1589 -1.0581  0.4670
  546SOL     OW 3078   0.913   2.449   9.186 -0.1125 -0.3577 -0.5470
  546SOL    HW1 3079   1.003   2.458   9.215 -0.4238 -1.5414  0.9236
  546SOL    HW2 3080   0.860   2.478   9.260 -0.9372 -0.7668 -0.9490
  547SOL     OW 3081   1.093   6.854   1.832  0.1655 -0.4736 -0.1949
  547SOL    HW1 3082   1.027   6.907   1.788  0.2552 -1.7162 -1.9269
  547SOL    HW2 3083   1.043   6.788   1.880  0.1104 -0.9050 -0.8339
  548SOL     OW 3084   5.842   2.914   3.464 -0.2043 -0.1436  0.4897
  548SOL    HW1 3085   5.926   2.886   3.428 -0.2942  1.0816 -0.7517
  548SOL    HW2 3086   5.817   2.844   3.524  0.9621 -1.2760 -0.2994
  549SOL     OW 3087   5.718   4.274   2.783  0.1889 -0.2619  0.4259
  549SOL    HW1 3088   5.713   4.317   2.697  1.6387 -0.8101  0.0406
  549SOL    HW2 3089   5.628   4.279   2.817 -0.2643  0.6040 -0.7996
  550SOL     OW 3090   1.882   4.899   6.097  0.3027  1.0586  0.2021
  550SOL    HW1 3091   1.977   4.888   6.089  0.5819  2.6875  0.8707
  550SOL    HW2 3092   1.865   4.893   6.191 -0.6031 -1.3797 -0.0511
  551SOL     OW 3093   5.115   6.510   5.865  0.5402 -0.4072 -0.5978
  551SOL    HW1 3094   5.134   6.470   5.950 -1.2738  0.5043  0.2910
  551SOL    HW2 3095   5.119   6.438   5.803  2.0097 -1.0768  0.2101
  552SOL     OW 3096   4.204   2.979  12.191  0.7610 -0.0627  0.2448
  552SOL    HW1 3097   4.187   2.953  12.101  0.3735 -1.6635  0.7505
  552SOL    HW2 3098   4.297   2.958  12.205  0.7084 -0.2313  0.3454
  553SOL     OW 3099   0.367   7.723   2.356  0.0885 -0.2985  0.4404
  553SOL    HW1 3100   0.340   7.787   2.422  0.4427  1.6653 -1.1883
  553SOL    HW2 3101   0.458   7.704   2.376 -0.1054 -0.5385  1.1193
  554SOL     OW 3102   6.805   5.971  12.441 -0.6975  1.0350  0.5881
  554SOL    HW1 3103   6.825   5.898  12.499 -1.0637  1.0105  0.6881
  554SOL    HW2 3104   6.719   5.951  12.405 -0.2063  0.7274 -0.4697
  555SOL     OW 3105   5.331   7.046  10.341 -0.0796  0.6296  0.3206
  555SOL    HW1 3106   5.252   7.098  10.329 -0.0614  0.6495  0.2854
  555SOL    HW2 3107   5.357   7.022  10.252  0.9781  2.1406  0.1948
  556SOL     OW 3108   7.167   7.184   5.748  0.2370  0.1833  0.2538
  556SOL    HW1 3109   7.098   7.128   5.714  1.2113 -0.3070 -0.9936
  556SOL    HW2 3110   7.152   7.269   5.705 -0.0436  0.3066  0.5895
  557SOL     OW 3111   1.377   0.365   9.900  0.3606  0.0312 -0.3454
  557SOL    HW1 3112   1.419   0.419   9.834 -0.6315  2.0772  0.5910
  557SOL    HW2 3113   1.375   0.278   9.862 -1.3689  1.3265 -3.6176
  558SOL     OW 3114   2.027   3.510   9.238 -0.2990 -0.5896  0.1779
  558SOL    HW1 3115   2.045   3.457   9.316  0.0971 -1.0015 -0.1942
  558SOL    HW2 3116   1.997   3.448   9.172  0.0540 -0.3355 -0.2235
  559SOL     OW 3117   5.013   5.207   9.062  0.1779 -0.4839 -0.0341
  559SOL    HW1 3118   5.073   5.238   9.129  1.2187 -0.0246 -1.1444
  559SOL    HW2 3119   4.927   5.239   9.091  0.3090 -1.7102  1.9024
  560SOL     OW 3120   2.734   1.212   1.989 -0.7303  0.3760  0.0341
  560SOL    HW1 3121   2.741   1.231   2.083 -0.7929 -0.0505  0.1272
  560SOL    HW2 3122   2.798   1.270   1.948 -2.8179  2.8045  0.0181
  561SOL     OW 3123   7.039   7.532   4.986 -0.2057 -0.4961  0.8962
  561SOL    HW1 3124   7.014   7.441   5.003 -0.9110 -0.1245  1.9355
  561SOL    HW2 3125   6.972   7.564   4.925 -1.1624 -0.0885  2.1266
  562SOL     OW 3126   2.475   6.816   8.955  0.0188 -0.0694  0.3138
  562SOL    HW1 3127   2.537   6.772   8.897  0.8766  2.4639 -0.8382
  562SOL    HW2 3128   2.530   6.862   9.018 -0.8197 -0.1355  1.1189
  563SOL     OW 3129   6.820   4.608   6.638  0.2426  0.0598  0.5175
  563SOL    HW1 3130   6.778   4.688   6.670  1.0441  0.6474  0.1382
  563SOL    HW2 3131   6.884   4.586   6.705  1.5908  1.0242 -0.3852
  564SOL     OW 3132   7.023   7.922   4.071 -0.2063  0.2355 -0.1980
  564SOL    HW1 3133   7.081   7.945   4.144  1.2237 -0.8193 -0.9358
  564SOL    HW2 3134   7.078   7.931   3.993 -1.1592 -0.3924 -0.9775
  565SOL     OW 3135   1.980   1.346  10.218  0.0367 -0.5387  0.3801
  565SOL    HW1 3136   1.964   1.257  10.186 -1.7322 -0.6052  1.3019
  565SOL    HW2 3137   1.893   1.378  10.242  0.6053  1.5436 -0.1507
  566SOL     OW 3138   7.673   0.092   1.540 -0.5271 -0.0803 -0.3845
  566SOL    HW1 3139   7.666  -0.003   1.532 -1.7104  0.1114 -2.4424
  566SOL    HW2 3140   7.606   0.126   1.480 -0.0398  2.0528  0.1937
  567SOL     OW 3141   7.309   6.840   9.111 -0.4694  0.3704 -0.0430
  567SOL    HW1 3142   7.249   6.894   9.164  0.5147  0.5014  0.9686
  567SOL    HW2 3143   7.392   6.887   9.115  0.5725 -1.4510  1.3122
  568SOL     OW 3144   7.590   6.125   5.159 -0.0680  0.3282 -0.3500
  568SOL    HW1 3145   7.560   6.090   5.075  1.1847 -0.3710 -0.5265
  568SOL    HW2 3146   7.659   6.065   5.187 -0.6803  0.3754  1.3515
  569SOL     OW 3147   6.328   2.807   8.467 -0.2236 -0.2268  0.0139
  569SOL    HW1 3148   6.258   2.851   8.515 -2.1531 -2.1570 -0.8261
  569SOL    HW2 3149   6.370   2.750   8.532 -0.4527 -0.1780  0.2051
  570SOL     OW 3150   4.318   3.700   7.260 -0.2922 -0.2681 -0.2666
  570SOL    HW1 3151   4.236   3.659   7.286 -1.1007  0.4989 -1.4949
  570SOL    HW2 3152   4.293   3.783   7.220  1.1285  0.2597 -0.1425
  571SOL     OW 3153   7.214   6.073   6.304  0.0900  0.1421  0.0447
  571SOL    HW1 3154   7.150   6.077   6.375  0.1229  2.0187  0.0285
  571SOL    HW2 3155   7.294   6.109   6.343  0.4835 -0.0445 -0.5857
  572SOL     OW 3156   1.983   7.577   5.318 -0.9831 -0.5067 -0.0650
  572SOL    HW1 3157   1.953   7.488   5.301 -0.8269 -0.7991  1.0516
  572SOL    HW2 3158   1.903   7.626   5.336 -1.3126  0.1924 -3.0103
  573SOL     OW 3159   2.800   5.548   9.509  1.1227  0.0034  0.4183
  573SOL    HW1 3160   2.788   5.621   9.570 -1.4296  0.0005  0.0077
  573SOL    HW2 3161   2.796   5.470   9.564 -2.2606 -0.0580  0.2591
  574SOL     OW 3162   6.864   1.465   5.687  0.4329 -0.0594  0.1135
  574SOL    HW1 3163   6.872   1.434   5.777 -0.3446 -0.4945  0.0385
  574SOL    HW2 3164   6.841   1.387   5.636 -0.5689  0.4474 -0.2324
  575SOL     OW 3165   7.940   6.442   7.961 -0.4267 -0.2793 -0.6867
  575SOL    HW1 3166   7.972   6.363   7.917  1.9324  0.0034  0.3187
  575SOL    HW2 3167   8.011   6.505   7.949 -1.4233  1.0455  0.1775
  576SOL     OW 3168   5.602   1.165   7.037  0.1468  0.0807 -0.2115
  576SOL    HW1 3169   5.595   1.176   7.131 -0.0511 -0.1707 -0.1951
  576SOL    HW2 3170   5.665   1.232   7.009  0.5814 -0.1666  0.1645
  577SOL     OW 3171   5.231   5.882   9.009 -0.2823 -0.0618  0.1423
  577SOL    HW1 3172   5.220   5.818   9.078  1.4828 -0.8046 -0.2257
  577SOL    HW2 3173   5.284   5.838   8.943  0.0691  1.4177 -0.6126
  578SOL     OW 3174   5.571   3.690   8.210  0.3295  0.1647  0.1397
  578SOL    HW1 3175   5.581   3.781   8.184  0.3763 -0.5528 -2.7083
  578SOL    HW2 3176   5.476   3.677   8.218  0.2830  0.2774 -0.2178
  579SOL     OW 3177   3.826   2.414   2.972 -0.0425  0.4287 -0.2878
  579SOL    HW1 3178   3.883   2.482   3.007  0.0239  0.0269  0.4057
  579SOL    HW2 3179   3.774   2.385   3.047 -2.0596  1.6504 -1.1384
  580SOL     OW 3180   0.154   1.170   7.953  0.1737  0.5315  0.0084
  580SOL    HW1 3181   0.126   1.174   7.861  1.5516  0.7425 -0.4296
  580SOL    HW2 3182   0.103   1.238   7.997 -2.4558 -1.2802 -0.0045
  581SOL     OW 3183   0.561   3.513   2.245  0.1344  0.1982 -0.0160
  581SOL    HW1 3184   0.522   3.510   2.332  1.0240 -1.1925  0.3658
  581SOL    HW2 3185   0.488   3.532   2.186 -0.7262 -0.2290  0.8939
  582SOL     OW 3186   7.403   4.453   5.421 -1.0124  0.0425  0.1209
  582SOL    HW1 3187   7.392   4.487   5.332 -1.1469  1.8493  0.7770
  582SOL    HW2 3188   7.487   4.488   5.450 -1.3061  0.0922  0.9493
  583SOL     OW 3189   5.483   5.145   3.949  0.5630 -0.7581  0.1719
  583SOL    HW1 3190   5.425   5.134   4.024  0.6913 -0.9443  0.2434
  583SOL    HW2 3191   5.476   5.063   3.901  1.0836 -0.9342  0.3984
  584SOL     OW 3192   6.691   2.583   8.254 -0.3935  0.2854 -0.0925
  584SOL    HW1 3193   6.681   2.605   8.347  0.1844  2.2363 -0.4515
  584SOL    HW2 3194   6.630   2.641   8.209  0.8194  0.8633 -1.0607
  585SOL     OW 3195   2.701   0.436   3.469 -0.2649 -0.4559  0.2197
  585SOL    HW1 3196   2.733   0.371   3.531  1.0643  0.5580  0.6300
  585SOL    HW2 3197   2.717   0.397   3.383  2.5648  0.1559  0.3764
  586SOL     OW 3198   4.795   7.689   0.246 -0.4980 -0.4397 -0.0838
  586SOL    HW1 3199   4.706   7.725   0.257 -0.2556  0.3178 -0.5300
  586SOL    HW2 3200   4.785   7.619   0.181 -0.7694 -0.3572 -0.1327
  587SOL     OW 3201   5.485   3.483   4.663 -0.2026 -0.0068 -0.0127
  587SOL    HW1 3202   5.573   3.519   4.660 -0.2161 -0.0384 -1.0648
  587SOL    HW2 3203   5.493   3.404   4.717  0.4897 -0.2106 -0.4049
  588SOL     OW 3204   7.839   7.629   6.198  0.1745  0.0350 -0.0775
  588SOL    HW1 3205   7.775   7.645   6.267  0.1212 -0.0483 -0.1076
  588SOL    HW2 3206   7.789   7.586   6.128 -0.1157  1.4729 -0.7970
  589SOL     OW 3207   3.345   3.771   7.635  0.1126 -0.3056  0.1356
  589SOL    HW1 3208   3.376   3.683   7.657  0.8259 -0.1251 -0.1162
  589SOL    HW2 3209   3.410   3.830   7.674  0.4540  0.0656 -0.9765
  590SOL     OW 3210   2.501   7.952   4.969 -0.2028 -0.6061  0.0525
  590SOL    HW1 3211   2.432   7.969   4.905 -0.7111  0.9904  0.9793
  590SOL    HW2 3212   2.564   8.022   4.956  0.2662 -0.9245  0.5451
  591SOL     OW 3213   4.394   5.537   6.460  0.2231 -0.2651 -0.0281
  591SOL    HW1 3214   4.366   5.450   6.488  0.9593 -0.4530  0.1693
  591SOL    HW2 3215   4.394   5.589   6.541  0.3670 -0.2500 -0.0371
  592SOL     OW 3216   4.214   3.831   4.776 -0.5589  0.2506  0.2982
  592SOL    HW1 3217   4.285   3.811   4.714 -0.2098 -1.0834  1.0871
  592SOL    HW2 3218   4.187   3.745   4.809 -0.2853  0.9664  2.5010
  593SOL     OW 3219   4.302   0.056   4.282  0.2968  0.4863  0.0711
  593SOL    HW1 3220   4.381   0.078   4.333  0.1115  1.0591  0.1250
  593SOL    HW2 3221   4.248   0.135   4.288  0.4220  0.7022 -1.2951
  594SOL     OW 3222   7.791   6.217   3.358 -0.7524 -0.1993 -0.5954
  594SOL    HW1 3223   7.759   6.246   3.443 -0.5779 -2.7485  0.4335
  594SOL    HW2 3224   7.715   6.226   3.300 -0.3960  3.2642 -0.7373
  595SOL     OW 3225   2.571   0.572   6.438 -0.5410 -0.3823  0.0706
  595SOL    HW1 3226   2.544   0.600   6.525  1.2186 -2.1018  1.2554
  595SOL    HW2 3227   2.582   0.478   6.445 -1.6107 -0.7614 -2.4205
  596SOL     OW 3228   1.540   6.217   2.970 -0.2454 -0.6195 -0.3757
  596SOL    HW1 3229   1.513   6.293   2.919  1.7558  0.8340  0.6039
  596SOL    HW2 3230   1.466   6.200   3.029 -0.2944  1.3525  0.2138
  597SOL     OW 3231   5.821   5.402  10.604 -0.6722  0.0394 -0.3817
  597SOL    HW1 3232   5.735   5.361  10.592 -0.4250 -0.1299 -1.6797
  597SOL    HW2 3233   5.800   5.490  10.636 -1.3824  0.2180 -1.2671
  598SOL     OW 3234   2.266   3.075   5.378  0.4953 -0.0061  0.9437
  598SOL    HW1 3235   2.233   3.163   5.393  0.5771  0.5187 -1.5420
  598SOL    HW2 3236   2.203   3.018   5.421 -0.3178  1.2069  1.3990
  599SOL     OW 3237   0.645   7.426   4.630 -0.1184  0.0404  0.2060
  599SOL    HW1 3238   0.637   7.483   4.706  0.3449 -0.2232  0.4608
  599SOL    HW2 3239   0.690   7.479   4.564 -2.9924  1.2330 -0.9269
  600SOL     OW 3240   4.277   6.290   2.267 -0.1246 -0.2702  0.2560
  600SOL    HW1 3241   4.217   6.314   2.338  0.8040 -0.3099  1.0836
  600SOL    HW2 3242   4.330   6.368   2.254  1.2956 -1.0183  1.2858
  601SOL     OW 3243   5.581   2.584   1.139  0.5813  0.4564  0.2780
  601SOL    HW1 3244   5.515   2.649   1.115 -2.6371 -2.1638  1.2409
  601SOL    HW2 3245   5.578   2.520   1.068  1.1928 -0.3494  0.9584
  602SOL     OW 3246   5.732   7.222   7.479  0.3433 -0.4894 -0.4155
  602SOL    HW1 3247   5.774   7.286   7.422 -2.2264  1.5359 -0.2124
  602SOL    HW2 3248   5.747   7.254   7.567 -0.0046 -0.8067 -0.2381
  603SOL     OW 3249   4.942   1.158   9.584  0.3018  0.1612  0.3431
  603SOL    HW1 3250   4.933   1.128   9.674 -3.2531  0.5562  0.2656
  603SOL    HW2 3251   4.881   1.232   9.578  0.1098 -0.1293 -2.4816
  604SOL     OW 3252   4.285   6.701  11.568 -0.1867 -0.3040 -0.5632
  604SOL    HW1 3253   4.365   6.649  11.566 -0.4161 -0.7592  1.0956
  604SOL    HW2 3254   4.216   6.639  11.587 -0.6250  0.4207  0.2884
  605SOL     OW 3255   3.201   1.338   1.388 -0.0789 -0.0473  0.3568
  605SOL    HW1 3256   3.279   1.358   1.439  1.0524 -1.0937 -0.9117
  605SOL    HW2 3257   3.154   1.273   1.441  0.3675 -0.0935  0.7019
  606SOL     OW 3258   1.294   4.964   6.435 -0.5809  0.2353 -0.0736
  606SOL    HW1 3259   1.209   4.941   6.396 -1.0020 -1.5333  1.6857
  606SOL    HW2 3260   1.287   5.057   6.457 -2.4424 -0.0604  0.7941
  607SOL     OW 3261   5.763   1.304   9.807  0.2962  0.2094  0.0537
  607SOL    HW1 3262   5.805   1.382   9.843  1.3174  0.8525 -2.3939
  607SOL    HW2 3263   5.825   1.270   9.743 -0.9089 -1.6034 -0.2196
  608SOL     OW 3264   2.083   2.170  10.408  0.2494 -0.4739  1.0663
  608SOL    HW1 3265   2.133   2.097  10.445  0.6939 -0.2534  0.9194
  608SOL    HW2 3266   2.049   2.217  10.483  2.6371  1.0204  1.3294
  609SOL     OW 3267   2.953   5.950   7.554  0.7519 -0.7223 -0.1602
  609SOL    HW1 3268   2.931   6.012   7.485  0.5729  0.4622  0.9097
  609SOL    HW2 3269   2.885   5.884   7.550 -0.3104  0.3319  0.0543
  610SOL     OW 3270   0.340   5.634   9.783  0.7443  0.6545 -0.3459
  610SOL    HW1 3271   0.258   5.681   9.766 -0.4049 -0.7541  0.9013
  610SOL    HW2 3272   0.372   5.671   9.866 -0.0346 -0.4961  0.5112
  611SOL     OW 3273   1.990   1.828   0.604  0.2455  0.8011  0.1399
  611SOL    HW1 3274   2.003   1.901   0.543 -0.1118 -0.5463 -1.6307
  611SOL    HW2 3275   1.945   1.762   0.552  2.1745 -1.4133  1.1385
  612SOL     OW 3276   3.581   0.211  12.002  0.5361 -0.0039 -0.3020
  612SOL    HW1 3277   3.550   0.299  12.022  1.0960  0.1319  0.0040
  612SOL    HW2 3278   3.636   0.187  12.077  0.6673 -0.4744 -0.5418
  613SOL     OW 3279   1.836   2.502   9.447  0.4749 -0.2030  0.0468
  613SOL    HW1 3280   1.828   2.515   9.541  2.0166  1.1455  0.0443
  613SOL    HW2 3281   1.782   2.571   9.408  1.2168  0.3553 -0.0217
  614SOL     OW 3282   2.618   4.404   1.404  0.3193  0.3699  0.2552
  614SOL    HW1 3283   2.624   4.377   1.312  0.6313 -0.4982  0.5264
  614SOL    HW2 3284   2.525   4.425   1.416  0.8499  5.0048 -1.4767
  615SOL     OW 3285   6.755   0.526   1.527  0.3376 -0.5488  0.1665
  615SOL    HW1 3286   6.711   0.580   1.593  1.0151  1.4417 -0.9149
  615SOL    HW2 3287   6.696   0.453   1.512 -0.4782 -0.3030  1.9479
  616SOL     OW 3288   1.083   6.443   5.634  0.0585 -0.1452  0.5210
  616SOL    HW1 3289   1.140   6.508   5.593  1.4362 -2.8665 -2.3122
  616SOL    HW2 3290   1.141   6.397   5.695 -0.7396  0.7428  2.0110
  617SOL     OW 3291   5.001   7.362   8.229 -0.0906  0.0076  0.3031
  617SOL    HW1 3292   4.925   7.365   8.286  0.6678 -0.1968  1.3565
  617SOL    HW2 3293   5.040   7.449   8.234  0.2291 -0.1400  0.4628
  618SOL     OW 3294   4.927   5.172   2.498 -0.4756  0.1800  0.0390
  618SOL    HW1 3295   4.996   5.106   2.513  0.0221  0.5271 -0.6819
  618SOL    HW2 3296   4.862   5.126   2.445 -0.0765  0.2871 -0.5593
  619SOL     OW 3297   0.123   4.841   0.525  0.1010  0.2502 -0.0629
  619SOL    HW1 3298   0.187   4.818   0.457  0.0164  0.4155 -0.2005
  619SOL    HW2 3299   0.157   4.800   0.605  0.0630 -0.1639 -0.2581
  620SOL     OW 3300   2.257   6.969   2.849 -0.5454  0.0415 -0.3580
  620SOL    HW1 3301   2.174   6.968   2.800 -0.0306 -1.1598 -1.2646
  620SOL    HW2 3302   2.318   7.015   2.791 -0.2876 -0.1388 -0.2323
  621SOL     OW 3303   5.764   1.745   6.467  0.0339  0.8144  0.4388
  621SOL    HW1 3304   5.707   1.672   6.441  0.4488  1.1663 -1.5834
  621SOL    HW2 3305   5.704   1.819   6.479  0.0617  1.4507 -2.6728
  622SOL     OW 3306   3.264   1.475   2.894 -0.0997 -0.0100  0.3025
  622SOL    HW1 3307   3.251   1.449   2.985  0.1521  1.7761  0.8876
  622SOL    HW2 3308   3.215   1.557   2.885 -0.7159 -0.5123 -1.3869
  623SOL     OW 3309   4.769   2.745   7.671 -0.0341 -0.6480 -0.7591
  623SOL    HW1 3310   4.810   2.725   7.756 -0.8475 -1.2341 -0.4984
  623SOL    HW2 3311   4.840   2.786   7.620  0.8265 -1.4643 -0.2542
  624SOL     OW 3312   4.315   5.492   9.522 -0.0962 -0.0126 -0.6565
  624SOL    HW1 3313   4.314   5.497   9.426  1.5335 -0.8003 -0.7574
  624SOL    HW2 3314   4.249   5.554   9.550 -1.6461 -0.8159 -2.3202
  625SOL     OW 3315   0.150   7.713   2.542 -0.1484 -0.4273 -0.3406
  625SOL    HW1 3316   0.139   7.721   2.448  1.5169 -0.0086 -0.5318
  625SOL    HW2 3317   0.185   7.624   2.554  0.4032 -0.1927 -0.2010
  626SOL     OW 3318   7.770   0.377   7.582  0.1406  0.2132 -0.3155
  626SOL    HW1 3319   7.854   0.423   7.571  1.3133 -1.2012  1.9319
  626SOL    HW2 3320   7.764   0.319   7.506  1.1553  0.4186 -0.5641
  627SOL     OW 3321   0.697   2.462  11.519 -0.1948  0.2633 -0.2652
  627SOL    HW1 3322   0.732   2.548  11.495 -0.8493  0.8623  0.8278
  627SOL    HW2 3323   0.636   2.440  11.449  0.3304  0.4627 -0.7908
  628SOL     OW 3324   5.749   6.887   9.448 -0.1188  0.0040  0.7525
  628SOL    HW1 3325   5.825   6.924   9.493  0.3509 -0.2492  0.1828
  628SOL    HW2 3326   5.675   6.938   9.480  0.3839  0.7356  0.7725
  629SOL     OW 3327   7.843   6.068   9.915  0.1685  0.3187  0.1653
  629SOL    HW1 3328   7.810   5.981   9.892 -1.1011  0.7781  0.1547
  629SOL    HW2 3329   7.923   6.051   9.965  0.7164 -0.8058 -1.0412
  630SOL     OW 3330   5.812   3.554   3.519  0.4457 -0.4179  0.1444
  630SOL    HW1 3331   5.857   3.563   3.435  0.8069 -0.4380  0.3328
  630SOL    HW2 3332   5.844   3.471   3.555  1.2772  0.1999  0.8855
  631SOL     OW 3333   6.463   3.863   0.857 -0.0174  0.2016  0.2411
  631SOL    HW1 3334   6.412   3.832   0.782  0.2066 -1.8028  0.8554
  631SOL    HW2 3335   6.554   3.862   0.827  0.0638 -0.5156  0.4992
  632SOL     OW 3336   6.199   5.952  11.616 -0.4135 -0.7461  0.1841
  632SOL    HW1 3337   6.150   6.032  11.599 -0.8533 -0.8429  0.9338
  632SOL    HW2 3338   6.132   5.885  11.630 -0.0809 -0.9252  1.0023
  633SOL     OW 3339   6.424   2.652   1.520  0.9711 -0.4618  0.0968
  633SOL    HW1 3340   6.496   2.610   1.473  0.6692 -1.6965  0.6870
  633SOL    HW2 3341   6.424   2.742   1.488  1.6584 -0.8914 -1.2151
  634SOL     OW 3342   0.952   2.143   5.867  0.0870 -0.4699 -0.4627
  634SOL    HW1 3343   0.927   2.169   5.956 -0.3100 -0.2424 -0.6342
  634SOL    HW2 3344   0.937   2.049   5.864  1.1729 -0.6724  0.0493
  635SOL     OW 3345   6.132   1.899   7.747 -0.0656  0.1836  0.6162
  635SOL    HW1 3346   6.045   1.884   7.711 -0.5395  1.7258  1.0420
  635SOL    HW2 3347   6.182   1.936   7.674  0.0467 -0.1087  0.5447
  636SOL     OW 3348   5.949   5.319   4.376 -0.3695  0.3246 -0.2146
  636SOL    HW1 3349   5.981   5.269   4.302  0.6331  0.4947  0.0855
  636SOL    HW2 3350   5.853   5.312   4.371 -0.3709  1.1978 -2.1175
  637SOL     OW 3351   3.782   5.881   0.964 -0.3197  0.0448 -0.2621
  637SOL    HW1 3352   3.714   5.941   0.933  0.5030  1.5189  0.6132
  637SOL    HW2 3353   3.738   5.825   1.028 -0.6573  1.2988  0.6537
  638SOL     OW 3354   5.621   2.349   2.584 -0.8716  0.1362  0.1426
  638SOL    HW1 3355   5.692   2.290   2.608  0.0201  1.2484  0.3726
  638SOL    HW2 3356   5.560   2.345   2.658 -0.5974 -0.1570  0.3573
  639SOL     OW 3357   4.258   1.638   7.217  0.4388  0.1528  0.3977
  639SOL    HW1 3358   4.268   1.559   7.271  1.0490  0.7506  1.1717
  639SOL    HW2 3359   4.181   1.620   7.163 -0.0168 -0.5781  1.2662
  640SOL     OW 3360   3.306   1.605   3.304 -0.5261 -0.1246 -0.5956
  640SOL    HW1 3361   3.380   1.600   3.244 -0.3863 -1.3097 -0.3428
  640SOL    HW2 3362   3.269   1.517   3.304 -1.1610  0.1285  0.2537
  641SOL     OW 3363   1.337   0.548   3.033 -0.0346 -0.7613 -0.1152
  641SOL    HW1 3364   1.392   0.471   3.017  0.0956 -0.6977  0.0213
  641SOL    HW2 3365   1.329   0.590   2.947 -1.6555 -1.9365 -0.5888
  642SOL     OW 3366   0.192   3.505   4.625 -0.3748  0.1699  0.4106
  642SOL    HW1 3367   0.273   3.494   4.577 -0.6858 -0.9921  0.1124
  642SOL    HW2 3368   0.175   3.599   4.624  0.1437  0.2637 -0.8785
  643SOL     OW 3369   4.957   6.687   4.443  0.1779  0.0569  0.2224
  643SOL    HW1 3370   5.023   6.754   4.461  0.2082  0.2807 -0.6405
  643SOL    HW2 3371   4.977   6.657   4.354 -0.7264 -0.0473  0.0425
  644SOL     OW 3372   2.638   1.700   3.189 -0.0652  0.7059  0.2802
  644SOL    HW1 3373   2.684   1.755   3.253  1.7843 -1.8097  1.2521
  644SOL    HW2 3374   2.586   1.640   3.242 -2.5673  1.7922 -0.7758
  645SOL     OW 3375   5.758   6.845  10.373 -0.0443  0.0986 -0.5799
  645SOL    HW1 3376   5.665   6.859  10.391 -0.3232 -1.1767 -0.9113
  645SOL    HW2 3377   5.764   6.843  10.278 -0.0765 -1.9744 -0.5857
  646SOL     OW 3378   3.263   0.377  11.383 -0.4787  0.5009 -0.3384
  646SOL    HW1 3379   3.205   0.348  11.312 -0.9364  3.0268 -1.0793
  646SOL    HW2 3380   3.335   0.421  11.339 -0.7437  2.0710  0.7112
  647SOL     OW 3381   5.917   4.804   7.346 -0.0499 -0.2733 -0.9226
  647SOL    HW1 3382   5.996   4.813   7.293  0.4665  0.5896 -0.0346
  647SOL    HW2 3383   5.930   4.723   7.395  1.3403  0.9651  0.8768
  648SOL     OW 3384   6.012   0.837  12.240 -0.1117 -0.6318  0.6588
  648SOL    HW1 3385   5.984   0.840  12.332  0.4313  1.8381  0.8079
  648SOL    HW2 3386   6.100   0.798  12.243 -0.1931 -0.7900  1.1413
  649SOL     OW 3387   0.472   7.808  10.473  0.0129 -0.3524  0.3712
  649SOL    HW1 3388   0.503   7.895  10.498 -1.3157 -0.2749  1.9681
  649SOL    HW2 3389   0.472   7.809  10.377  1.4040  0.8665  0.3425
  650SOL     OW 3390   0.184   5.191   3.672 -0.4290 -0.7002  0.4254
  650SOL    HW1 3391   0.165   5.124   3.738 -0.1743 -1.7362 -0.5157
  650SOL    HW2 3392   0.122   5.173   3.602  0.2835 -0.5698 -0.2512
  651SOL     OW 3393   5.046   1.055   2.025 -0.2320 -0.1835 -0.5674
  651SOL    HW1 3394   5.063   1.076   2.117 -3.2160 -0.0554  0.0673
  651SOL    HW2 3395   5.032   1.141   1.984  0.5424 -0.2745 -1.0408
  652SOL     OW 3396   4.195   0.477   5.852  0.1376  1.0029 -0.5069
  652SOL    HW1 3397   4.240   0.429   5.922 -0.6834  0.9769  0.0158
  652SOL    HW2 3398   4.139   0.540   5.898 -0.5373  0.8706 -1.1281
  653SOL     OW 3399   2.039   7.270   9.218 -1.3299  0.6506  0.2087
  653SOL    HW1 3400   2.097   7.265   9.294 -2.6509  2.2890  1.3807
  653SOL    HW2 3401   1.962   7.317   9.249 -2.3965  0.3804 -1.8659
  654SOL     OW 3402   6.537   2.781   8.822 -0.0389  0.6397 -0.0340
  654SOL    HW1 3403   6.481   2.844   8.868  0.1501 -0.0951  1.2293
  654SOL    HW2 3404   6.476   2.717   8.786 -0.1189  0.7495 -0.0974
  655SOL     OW 3405   2.069   4.140   0.845 -0.2032  0.6167 -0.5690
  655SOL    HW1 3406   2.155   4.103   0.829  0.3955  1.9969 -0.6832
  655SOL    HW2 3407   2.055   4.201   0.773 -0.8482  1.1300 -0.0296
  656SOL     OW 3408   3.740   2.893   2.367 -0.1319 -0.5020 -0.2327
  656SOL    HW1 3409   3.724   2.987   2.355  0.4259 -0.5089 -1.0655
  656SOL    HW2 3410   3.693   2.871   2.447 -1.1306  0.2685 -0.5955
  657SOL     OW 3411   1.406   5.833   4.956 -0.0358 -0.4867 -0.2912
  657SOL    HW1 3412   1.312   5.852   4.965 -0.1591 -0.5404 -1.3202
  657SOL    HW2 3413   1.428   5.864   4.869  0.4192 -2.3557 -0.8908
  658SOL     OW 3414   1.599   0.203  10.987  0.1644 -0.2058  0.5076
  658SOL    HW1 3415   1.507   0.228  10.996 -0.0797 -1.0363  0.3322
  658SOL    HW2 3416   1.626   0.242  10.903 -0.1247 -0.2626  0.3875
  659SOL     OW 3417   6.664   4.384   6.069  0.0134 -0.3486 -0.1163
  659SOL    HW1 3418   6.759   4.381   6.058  0.5642  3.7333  1.7958
  659SOL    HW2 3419   6.634   4.443   6.000 -1.3371 -1.9532 -1.0047
  660SOL     OW 3420   7.329   6.697   5.033 -0.0882 -0.4556  0.0632
  660SOL    HW1 3421   7.328   6.787   5.064 -0.2944 -0.1082 -0.9175
  660SOL    HW2 3422   7.279   6.699   4.951  0.0893 -1.4165 -0.0820
  661SOL     OW 3423   3.706   3.333   9.897 -0.8226  0.2508  0.6764
  661SOL    HW1 3424   3.740   3.301   9.814 -1.8195 -0.1984  0.4285
  661SOL    HW2 3425   3.773   3.311   9.961 -0.5283 -0.3621  0.1607
  662SOL     OW 3426   6.592   1.022   6.856 -0.2110  0.3525  0.0745
  662SOL    HW1 3427   6.561   1.031   6.946 -0.2792  1.4738 -0.0511
  662SOL    HW2 3428   6.596   1.112   6.823  0.9317  0.0513 -0.6670
  663SOL     OW 3429   0.704   5.465   2.788 -0.3739  0.1166  0.3877
  663SOL    HW1 3430   0.781   5.458   2.733  0.7565  0.1967  1.8967
  663SOL    HW2 3431   0.646   5.525   2.741  0.6346  0.3406 -0.6035
  664SOL     OW 3432   0.826   2.746   1.644 -0.0579  0.0096 -0.7319
  664SOL    HW1 3433   0.820   2.786   1.557 -0.7008 -0.2462 -0.8084
  664SOL    HW2 3434   0.750   2.780   1.692  1.0850  1.3223  0.2425
  665SOL     OW 3435   4.000   7.111   4.094 -0.2002  0.2201  0.0195
  665SOL    HW1 3436   4.022   7.047   4.162 -0.6395  0.5194  0.4450
  665SOL    HW2 3437   4.000   7.060   4.013 -3.7265 -1.1101  0.6757
  666SOL     OW 3438   7.011   1.761   6.228 -0.0327 -0.5433 -0.3218
  666SOL    HW1 3439   7.078   1.762   6.297 -1.0205  0.8654  0.7062
  666SOL    HW2 3440   6.938   1.811   6.266  0.3528  2.7255 -3.3165
  667SOL     OW 3441   5.379   2.291   1.574 -0.0863  0.0817 -0.3965
  667SOL    HW1 3442   5.423   2.207   1.584  0.5986  0.4786 -0.0133
  667SOL    HW2 3443   5.418   2.329   1.495 -0.6125 -0.0870 -0.7432
  668SOL     OW 3444   0.555   4.943  10.520 -0.1438 -0.0663 -0.2218
  668SOL    HW1 3445   0.594   4.940  10.432  0.2340 -0.9165 -0.0345
  668SOL    HW2 3446   0.508   4.860  10.528  0.5374 -0.3655  0.7068
  669SOL     OW 3447   5.177   2.407   8.277 -0.6582 -0.6940  0.9760
  669SOL    HW1 3448   5.131   2.458   8.344  0.6449 -0.1716  1.4996
  669SOL    HW2 3449   5.146   2.443   8.194  1.1106  1.8494  1.3061
  670SOL     OW 3450   2.681   3.003   2.992  0.0166  0.3319 -0.4857
  670SOL    HW1 3451   2.677   3.099   2.992 -0.0623  0.3818 -2.4676
  670SOL    HW2 3452   2.766   2.982   3.030 -0.2570  1.1489  0.6180
  671SOL     OW 3453   2.139   0.702   8.173  0.5014 -0.6211  0.4661
  671SOL    HW1 3454   2.181   0.662   8.096 -0.0949 -2.3014  0.9677
  671SOL    HW2 3455   2.096   0.780   8.139  1.1095 -0.7696 -0.7035
  672SOL     OW 3456   3.802   6.494   3.834  0.5622  0.7621 -0.1013
  672SOL    HW1 3457   3.770   6.568   3.885 -2.2009 -1.4040  1.6191
  672SOL    HW2 3458   3.745   6.492   3.757 -0.3924 -0.3420  0.5959
  673SOL     OW 3459   7.189   2.238   0.889 -0.0848  0.2846 -0.4725
  673SOL    HW1 3460   7.164   2.218   0.798  0.3367  0.5848 -0.6551
  673SOL    HW2 3461   7.120   2.197   0.942 -0.0466 -0.3509 -0.9034
  674SOL     OW 3462   2.491   0.147   7.022 -0.0453 -0.2208  0.7086
  674SOL    HW1 3463   2.564   0.192   6.981  0.9613 -2.5141 -0.1884
  674SOL    HW2 3464   2.421   0.150   6.957  0.0268 -0.0275  0.6391
  675SOL     OW 3465   2.232   5.356   3.145 -0.3911 -0.7037 -0.0060
  675SOL    HW1 3466   2.145   5.317   3.151 -0.0129 -1.7992 -1.2735
  675SOL    HW2 3467   2.282   5.296   3.090  1.2241 -0.1710  0.8175
  676SOL     OW 3468   4.283   6.820   5.082  0.4946 -0.4505 -0.0657
  676SOL    HW1 3469   4.362   6.825   5.136  1.5096 -0.1066 -1.5402
  676SOL    HW2 3470   4.255   6.911   5.072 -0.1278 -0.5747  0.4851
  677SOL     OW 3471   7.648   3.570   7.618  0.7558  0.4652  0.8552
  677SOL    HW1 3472   7.695   3.639   7.571 -0.9937  1.4956  0.4915
  677SOL    HW2 3473   7.607   3.616   7.692 -0.9435 -0.0087  0.2559
  678SOL     OW 3474   0.048   4.255   2.781  0.3754  0.2285  0.4454
  678SOL    HW1 3475   0.144   4.257   2.781  0.4405 -1.2184  1.1983
  678SOL    HW2 3476   0.026   4.171   2.739 -0.6612  1.5767 -1.9297
  679SOL     OW 3477   6.738   5.851   9.400  0.0910  0.1487 -0.3363
  679SOL    HW1 3478   6.773   5.800   9.473  1.7490  2.5369  0.6737
  679SOL    HW2 3479   6.812   5.863   9.341  0.2071  2.4876  0.1696
  680SOL     OW 3480   4.401   7.467   4.904 -0.5183  0.3082  0.2475
  680SOL    HW1 3481   4.314   7.445   4.871 -0.8293  0.3949  0.9796
  680SOL    HW2 3482   4.391   7.465   5.000  0.3854 -0.0853  0.3462
  681SOL     OW 3483   0.889   7.581   1.972 -0.8458  0.0318  0.2693
  681SOL    HW1 3484   0.883   7.658   2.028 -0.6502  0.0964  0.2030
  681SOL    HW2 3485   0.966   7.534   2.003 -1.6378 -0.7651  1.0854
  682SOL     OW 3486   5.890   0.114   9.237 -0.1443  0.1170  0.4570
  682SOL    HW1 3487   5.870   0.095   9.145 -1.3658  1.9732  0.2813
  682SOL    HW2 3488   5.822   0.068   9.286  0.1597 -0.4030  0.3894
  683SOL     OW 3489   7.171   6.312   1.677 -0.3175  0.1880  0.0101
  683SOL    HW1 3490   7.204   6.362   1.602 -1.3780  1.6608  0.4662
  683SOL    HW2 3491   7.222   6.346   1.751 -1.1008  0.6769  0.3351
  684SOL     OW 3492   0.611   6.993   6.083  0.3715  0.2729  0.0946
  684SOL    HW1 3493   0.650   7.069   6.040 -0.4863  1.3461  1.1346
  684SOL    HW2 3494   0.519   7.015   6.092  0.0611 -0.9998  0.2330
  685SOL     OW 3495   6.662   0.590   8.322  0.4238 -0.2136 -0.1022
  685SOL    HW1 3496   6.584   0.627   8.281  0.2013 -0.8856 -0.3063
  685SOL    HW2 3497   6.719   0.665   8.337 -0.0365  0.2156 -0.4495
  686SOL     OW 3498   1.276   6.672   2.135 -0.0020  0.0309 -0.0428
  686SOL    HW1 3499   1.261   6.594   2.080 -1.7564  0.9700 -0.9579
  686SOL    HW2 3500   1.213   6.664   2.206 -0.8851  1.0788 -0.6817
  687SOL     OW 3501   0.733   4.483  12.286 -0.6380 -0.3822  0.2099
  687SOL    HW1 3502   0.772   4.519  12.366 -1.0710  2.1883 -0.6213
  687SOL    HW2 3503   0.655   4.437  12.316 -1.4507  1.5406  1.2448
  688SOL     OW 3504   5.940   2.105  12.260 -0.3026  0.2184 -0.6518
  688SOL    HW1 3505   5.993   2.178  12.229 -0.3457 -0.4204 -2.3012
  688SOL    HW2 3506   5.966   2.095  12.352  0.6507  1.4558 -0.7515
  689SOL     OW 3507   7.713   4.917   3.096 -0.4118 -0.6285  0.2611
  689SOL    HW1 3508   7.715   4.873   3.012 -3.4078 -0.4493 -0.0046
  689SOL    HW2 3509   7.688   5.007   3.076  0.4725 -0.1487  1.2190
  690SOL     OW 3510   5.967   6.889   5.410  0.4494  0.6155 -0.0754
  690SOL    HW1 3511   6.004   6.862   5.494  0.9727  0.5970 -0.3037
  690SOL    HW2 3512   5.874   6.868   5.417  0.3457  1.3026  0.7700
  691SOL     OW 3513   0.608   3.680   9.308  0.0099 -0.2346 -0.6024
  691SOL    HW1 3514   0.519   3.675   9.272 -0.2561 -2.3704  0.1685
  691SOL    HW2 3515   0.665   3.681   9.231 -0.6448 -0.7673 -1.1107
  692SOL     OW 3516   0.991   1.709   7.672  0.2726 -0.5201 -0.2231
  692SOL    HW1 3517   1.010   1.677   7.584 -0.8200  2.5789 -1.7235
  692SOL    HW2 3518   0.904   1.673   7.693  0.7675 -1.7060 -0.1312
  693SOL     OW 3519   4.933   7.439   3.102 -0.3727  0.5500  0.3431
  693SOL    HW1 3520   4.908   7.400   3.018  1.4724  2.5171 -1.2557
  693SOL    HW2 3521   5.026   7.418   3.111 -0.0343  2.0958  0.8173
  694SOL     OW 3522   3.710   4.539  11.813 -0.3700 -0.0562  0.0445
  694SOL    HW1 3523   3.684   4.463  11.762 -0.2148 -1.1401  1.5155
  694SOL    HW2 3524   3.802   4.553  11.790 -0.7271  0.4731 -1.1408
  695SOL     OW 3525   3.181   0.250   3.405 -0.2051 -0.2211  0.2123
  695SOL    HW1 3526   3.272   0.240   3.431 -0.7996  0.0393  2.6265
  695SOL    HW2 3527   3.172   0.195   3.327  2.0697  0.0484 -0.3164
  696SOL     OW 3528   1.486   7.354   8.320  0.6068  0.1072  0.4924
  696SOL    HW1 3529   1.506   7.414   8.248 -0.8910  0.0531 -0.0191
  696SOL    HW2 3530   1.570   7.338   8.363  1.1740  1.8972  0.1328
  697SOL     OW 3531   6.708   0.737   5.591  0.5250 -0.3280  0.3809
  697SOL    HW1 3532   6.667   0.809   5.639 -2.1852 -1.7749  0.4305
  697SOL    HW2 3533   6.772   0.701   5.652 -0.9128 -0.4143  1.9171
  698SOL     OW 3534   6.110   2.514  10.413  0.2605  0.3156 -0.0660
  698SOL    HW1 3535   6.175   2.478  10.353  0.3457 -0.2071  0.3254
  698SOL    HW2 3536   6.155   2.588  10.456  0.8852 -0.5187  0.7684
  699SOL     OW 3537   0.934   4.414   1.911 -0.1874 -0.0439  0.0808
  699SOL    HW1 3538   0.934   4.509   1.927  1.1204  0.7177 -3.4427
  699SOL    HW2 3539   1.015   4.383   1.953 -0.1063  0.5882  0.4031
  700SOL     OW 3540   2.880   3.567   0.319  0.2765 -0.3016  0.0711
  700SOL    HW1 3541   2.832   3.605   0.245  1.3294 -0.1024 -0.5210
  700SOL    HW2 3542   2.850   3.618   0.394 -1.3408 -0.9709 -0.0747
  701SOL     OW 3543   0.656   3.943   4.210 -0.1630 -0.1296  0.6498
  701SOL    HW1 3544   0.616   3.867   4.168  0.7305 -1.1722  1.6154
  701SOL    HW2 3545   0.609   3.952   4.293 -0.6900  0.7868  0.2719
  702SOL     OW 3546   4.531   5.148   8.628 -0.2685 -0.4933  0.3971
  702SOL    HW1 3547   4.528   5.181   8.538  1.6724 -0.6905  0.2294
  702SOL    HW2 3548   4.451   5.182   8.668 -1.4575 -0.8651 -1.5341
  703SOL     OW 3549   5.867   0.793   3.864  0.6305  0.5164  0.5269
  703SOL    HW1 3550   5.940   0.740   3.895  1.4088  1.7596  0.9013
  703SOL    HW2 3551   5.885   0.881   3.898  0.6393  1.5722 -2.0465
  704SOL     OW 3552   5.829   0.396  11.806 -0.1600  0.3044 -0.4286
  704SOL    HW1 3553   5.821   0.390  11.901 -1.1465  0.4118 -0.4915
  704SOL    HW2 3554   5.754   0.449  11.779 -0.5134 -0.6351 -1.3664
  705SOL     OW 3555   5.454   4.732   4.455  0.2508 -0.0621 -0.0809
  705SOL    HW1 3556   5.425   4.822   4.474 -1.7696 -1.0821  2.3058
  705SOL    HW2 3557   5.520   4.714   4.522  0.6324 -0.3876 -0.5381
  706SOL     OW 3558   3.212   1.334   9.906 -0.1224 -0.0940 -0.4544
  706SOL    HW1 3559   3.277   1.263   9.902  0.5733  0.1992  2.7931
  706SOL    HW2 3560   3.128   1.290   9.900  0.3200 -1.1312  0.5499
  707SOL     OW 3561   7.858   1.993  10.717 -0.7883 -0.0107 -0.0573
  707SOL    HW1 3562   7.797   2.020  10.786 -1.6634  0.1913 -0.8840
  707SOL    HW2 3563   7.849   1.897  10.713  1.0600 -0.3346  1.7150
  708SOL     OW 3564   5.567   1.710   6.955 -0.0289  0.1070 -0.4687
  708SOL    HW1 3565   5.630   1.638   6.953  1.4140  1.3337 -1.4908
  708SOL    HW2 3566   5.518   1.701   6.874 -2.8646 -2.1733  1.3079
  709SOL     OW 3567   2.516   4.991  11.989 -0.0421  0.1500  0.5924
  709SOL    HW1 3568   2.465   4.915  12.017 -0.3282  0.0883 -0.0706
  709SOL    HW2 3569   2.450   5.053  11.958  0.1358  0.9677  1.8091
  710SOL     OW 3570   1.263   0.111  11.360 -0.1801  0.2112  0.5926
  710SOL    HW1 3571   1.286   0.020  11.377  1.6343  0.0618 -2.1095
  710SOL    HW2 3572   1.297   0.159  11.435  1.1660 -1.0673  0.8443
  711SOL     OW 3573   1.352   7.479   7.759 -0.0269 -0.0462  0.2643
  711SOL    HW1 3574   1.270   7.523   7.778  0.8372  1.2396  1.1988
  711SOL    HW2 3575   1.412   7.550   7.734  0.6090 -1.0289 -1.1752
  712SOL     OW 3576   4.025   2.840   9.370  0.7947 -0.2186  0.2527
  712SOL    HW1 3577   4.019   2.755   9.327  0.5229  0.3732 -0.9138
  712SOL    HW2 3578   4.110   2.839   9.415  0.6087 -1.2490  0.6079
  713SOL     OW 3579   4.828   7.911   2.688 -0.2386  0.3565 -0.4154
  713SOL    HW1 3580   4.810   7.957   2.770 -0.6884  1.3347 -1.0489
  713SOL    HW2 3581   4.742   7.885   2.655 -0.1658  1.0790 -1.2030
  714SOL     OW 3582   6.080   6.104   6.361  0.5575 -0.5094  0.2547
  714SOL    HW1 3583   6.124   6.134   6.282 -1.4068  0.0892 -0.6775
  714SOL    HW2 3584   6.058   6.013   6.343 -0.7187 -0.1121 -0.3234
  715SOL     OW 3585   6.339   4.104   9.815  0.2173 -0.3314 -0.1559
  715SOL    HW1 3586   6.429   4.085   9.787  0.5379  0.7423  0.1101
  715SOL    HW2 3587   6.299   4.147   9.740 -0.0387 -0.7147 -0.2370
  716SOL     OW 3588   5.720   6.473  11.446  0.0702  0.1756  0.1673
  716SOL    HW1 3589   5.769   6.429  11.378  0.1594 -1.7958  1.4367
  716SOL    HW2 3590   5.680   6.549  11.402  2.0645  0.3584 -1.4717
  717SOL     OW 3591   0.107   1.172   1.560 -0.1271  0.1192  0.1904
  717SOL    HW1 3592   0.104   1.265   1.583 -0.8861  0.6897 -1.9587
  717SOL    HW2 3593   0.018   1.152   1.531  0.0065 -1.3249  0.6978
  718SOL     OW 3594   3.312   6.917   8.094 -0.5891 -0.4020 -0.1132
  718SOL    HW1 3595   3.285   6.937   8.184  1.5421  0.2356  0.4479
  718SOL    HW2 3596   3.358   6.833   8.101 -0.4575 -0.3721 -0.6105
  719SOL     OW 3597   3.535   3.417   3.643  0.0752  0.7539 -0.1043
  719SOL    HW1 3598   3.534   3.443   3.550  0.5783 -1.3608 -0.7611
  719SOL    HW2 3599   3.588   3.484   3.686 -0.9527  2.3048 -1.1394
  720SOL     OW 3600   1.012   0.086   7.963 -0.6137 -0.0241  0.1353
  720SOL    HW1 3601   0.920   0.110   7.976 -0.4103  0.6411  0.4239
  720SOL    HW2 3602   1.053   0.165   7.928 -0.6064 -0.9930 -2.2604
  721SOL     OW 3603   6.073   6.160   7.463  0.2973  0.0928  0.2810
  721SOL    HW1 3604   6.168   6.147   7.457  0.4285  0.2280  1.6929
  721SOL    HW2 3605   6.063   6.250   7.496 -0.3403  0.2799 -0.4028
  722SOL     OW 3606   3.229   5.044   7.284  0.3686  0.0623  0.4386
  722SOL    HW1 3607   3.261   5.045   7.374 -0.3511  0.1458  0.7017
  722SOL    HW2 3608   3.195   4.955   7.272  0.3669  0.0833  0.2856
  723SOL     OW 3609   1.025   1.857  12.059 -0.0572  1.3279  0.0844
  723SOL    HW1 3610   1.076   1.800  12.002  1.9769  1.9837  1.1289
  723SOL    HW2 3611   0.996   1.799  12.130 -0.1010  1.1111 -0.1081
  724SOL     OW 3612   7.290   5.375   3.687 -0.2652  0.1573 -0.0429
  724SOL    HW1 3613   7.257   5.328   3.763 -0.0285  1.0662  0.6434
  724SOL    HW2 3614   7.221   5.364   3.621  1.2931 -4.1497 -1.2406
  725SOL     OW 3615   5.849   7.841   7.070  0.3163 -0.5870  0.1104
  725SOL    HW1 3616   5.876   7.855   6.979  0.6309 -0.8317  0.1653
  725SOL    HW2 3617   5.761   7.878   7.074  0.4224 -0.2882 -0.2137
  726SOL     OW 3618   6.030   1.808   3.331  0.3145  0.3966  0.0374
  726SOL    HW1 3619   6.013   1.814   3.425 -2.1564  1.5185 -0.4120
  726SOL    HW2 3620   6.057   1.896   3.305 -0.2743  0.4234 -0.5112
  727SOL     OW 3621   2.537   5.396   2.899 -0.6788  0.8888 -0.1617
  727SOL    HW1 3622   2.539   5.447   2.819 -1.5606  0.3536 -0.5476
  727SOL    HW2 3623   2.469   5.330   2.884 -2.5570  2.2122  1.8614
  728SOL     OW 3624   1.359   5.802   1.830  0.2132 -0.2139  0.2196
  728SOL    HW1 3625   1.356   5.885   1.877  1.3543  0.7048 -1.2133
  728SOL    HW2 3626   1.273   5.762   1.844 -0.1028  0.8682  1.5127
  729SOL     OW 3627   3.766   5.982  10.382 -0.1963  0.0516 -0.1342
  729SOL    HW1 3628   3.818   5.946  10.454  1.4845 -0.3129 -1.4545
  729SOL    HW2 3629   3.708   5.910  10.356  0.5413 -0.4689 -0.3639
  730SOL     OW 3630   0.153   7.207   8.653 -0.0089  0.1664  0.3639
  730SOL    HW1 3631   0.220   7.155   8.609 -0.8880  0.3468 -1.2540
  730SOL    HW2 3632   0.115   7.149   8.719  1.6929  0.0579  1.2998
  731SOL     OW 3633   2.841   4.492   7.316  0.9277 -0.1521 -0.4153
  731SOL    HW1 3634   2.883   4.437   7.250  2.0920 -1.3151  1.2365
  731SOL    HW2 3635   2.909   4.511   7.380 -0.6671 -1.0321  1.6943
  732SOL     OW 3636   4.868   7.506   7.669 -0.7947  0.8494  0.2510
  732SOL    HW1 3637   4.774   7.495   7.683 -1.0326  1.7780 -0.5530
  732SOL    HW2 3638   4.907   7.489   7.755 -1.5217 -1.2921  0.2190
  733SOL     OW 3639   6.430   3.643   3.133 -0.6705 -0.1508 -0.0029
  733SOL    HW1 3640   6.340   3.631   3.162 -0.6370  2.1681  1.3573
  733SOL    HW2 3641   6.423   3.664   3.040 -1.9263  2.7809  0.6229
  734SOL     OW 3642   2.315   7.798   5.737 -0.0182 -0.5396 -0.2306
  734SOL    HW1 3643   2.288   7.763   5.822  1.5046  0.9004  0.9360
  734SOL    HW2 3644   2.386   7.741   5.709 -1.7920 -2.2123 -1.5835
  735SOL     OW 3645   0.709   6.207   5.989 -0.4152  0.0283  0.5496
  735SOL    HW1 3646   0.674   6.209   5.900 -1.8652 -0.1483  1.0788
  735SOL    HW2 3647   0.750   6.292   6.000  1.4424 -0.6228 -0.8893
  736SOL     OW 3648   1.314   7.179   4.819  0.0013 -0.5593  0.2661
  736SOL    HW1 3649   1.297   7.087   4.802 -0.1452 -0.2253 -1.5735
  736SOL    HW2 3650   1.238   7.210   4.868 -0.3977 -1.1818  0.0372
  737SOL     OW 3651   4.751   0.156   4.149 -0.4374 -0.0368 -0.4923
  737SOL    HW1 3652   4.782   0.241   4.178  0.1226 -0.5306  0.3787
  737SOL    HW2 3653   4.817   0.094   4.180 -0.4900 -0.7230 -1.6888
  738SOL     OW 3654   4.965   2.121   6.626 -0.1109 -0.0026 -0.1892
  738SOL    HW1 3655   4.878   2.160   6.629  0.5412  1.8308 -2.3962
  738SOL    HW2 3656   5.017   2.171   6.689  0.1034  1.1238 -1.2248
  739SOL     OW 3657   1.227   3.762   1.508  0.4346  0.7184  0.5724
  739SOL    HW1 3658   1.132   3.758   1.492  0.3416  0.8185  1.0973
  739SOL    HW2 3659   1.265   3.755   1.421 -0.0328 -0.1767  0.4272
  740SOL     OW 3660   6.109   7.106   0.942  0.4512 -1.0760 -0.2326
  740SOL    HW1 3661   6.200   7.077   0.930 -0.0180 -2.5669 -0.3891
  740SOL    HW2 3662   6.062   7.065   0.870 -0.0401  1.3311 -1.3662
  741SOL     OW 3663   7.919   2.061   6.837  0.0106 -0.3240  0.4296
  741SOL    HW1 3664   7.927   2.152   6.865 -0.7893  0.3101 -1.2524
  741SOL    HW2 3665   7.832   2.034   6.868  0.5377 -0.7779  1.5617
  742SOL     OW 3666   3.271   0.002   9.946  0.0731  0.4146  0.3279
  742SOL    HW1 3667   3.229   0.057  10.011  0.3261 -0.0614  0.9029
  742SOL    HW2 3668   3.262   0.050   9.864 -1.1220  0.5623  0.5283
  743SOL     OW 3669   7.634   0.640   8.055 -0.5473  0.4671  0.1070
  743SOL    HW1 3670   7.714   0.690   8.071  0.5542 -1.1247 -0.1860
  743SOL    HW2 3671   7.660   0.573   7.992 -1.7492 -0.9448  1.0335
  744SOL     OW 3672   3.930   3.964   6.104  0.1740  0.1193  0.4246
  744SOL    HW1 3673   3.955   3.912   6.180  0.7844 -1.2877 -0.6978
  744SOL    HW2 3674   3.985   3.932   6.033 -1.4052  0.3408 -0.9803
  745SOL     OW 3675   3.372   1.143   8.925  0.0411  0.9894  0.5809
  745SOL    HW1 3676   3.467   1.141   8.925  0.1369  2.5211 -0.8962
  745SOL    HW2 3677   3.349   1.223   8.973 -0.4800  0.7884  0.6762
  746SOL     OW 3678   5.891   6.650   6.845  0.5799  0.1014  0.1110
  746SOL    HW1 3679   5.899   6.628   6.938 -0.3911 -0.7689  0.0058
  746SOL    HW2 3680   5.938   6.581   6.799 -0.5441 -0.5509 -0.1108
  747SOL     OW 3681   6.530   3.532   0.635 -0.3536 -0.3294  0.0487
  747SOL    HW1 3682   6.446   3.572   0.611  0.3758  3.0988  2.4608
  747SOL    HW2 3683   6.595   3.577   0.580  0.2742  0.1406  1.1395
  748SOL     OW 3684   6.116   1.522   5.652 -0.1702 -0.2821  0.0013
  748SOL    HW1 3685   6.146   1.574   5.578  0.4215 -0.0745  0.3769
  748SOL    HW2 3686   6.134   1.431   5.627  2.4080 -0.0780  0.9003
  749SOL     OW 3687   7.493   5.558   3.650 -0.1573  0.6791  0.2884
  749SOL    HW1 3688   7.439   5.487   3.686  2.4644 -1.4101  0.4282
  749SOL    HW2 3689   7.484   5.548   3.555 -0.8762  1.0697  0.3112
  750SOL     OW 3690   1.933   4.567   2.552 -0.1136 -0.4108 -0.3132
  750SOL    HW1 3691   1.981   4.649   2.568  0.0145 -0.9273  2.6798
  750SOL    HW2 3692   1.994   4.499   2.581 -2.4449 -1.0924  3.9070
  751SOL     OW 3693   1.061   6.646   3.913 -0.2491  0.0932  0.2836
  751SOL    HW1 3694   1.062   6.645   3.818 -1.1098 -0.7721  0.2677
  751SOL    HW2 3695   0.990   6.586   3.937 -0.8076  1.1759  1.4591
  752SOL     OW 3696   7.366   2.133   7.369 -0.6011  0.3217 -0.3300
  752SOL    HW1 3697   7.448   2.129   7.321 -1.3745 -0.6044 -1.6518
  752SOL    HW2 3698   7.384   2.190   7.444  0.6800  1.7799 -1.6810
  753SOL     OW 3699   2.422   7.303   5.379  0.6738 -0.3658 -0.2020
  753SOL    HW1 3700   2.393   7.337   5.294  1.7280  1.4700  0.1227
  753SOL    HW2 3701   2.515   7.284   5.367  0.3519 -2.2206 -0.0508
  754SOL     OW 3702   3.181   4.415   4.743  0.1869 -0.0678  0.0175
  754SOL    HW1 3703   3.187   4.349   4.812 -0.8022  1.2175  1.4299
  754SOL    HW2 3704   3.250   4.393   4.681  1.5838 -0.9004  1.7843
  755SOL     OW 3705   0.183   1.242   9.123  0.4761 -0.5158 -0.3114
  755SOL    HW1 3706   0.102   1.291   9.118 -0.4016 -2.0119 -1.8310
  755SOL    HW2 3707   0.235   1.272   9.048  1.0882  0.0028  0.3070
  756SOL     OW 3708   2.651   6.377   1.833  0.5483  0.1868  0.1217
  756SOL    HW1 3709   2.589   6.345   1.898  1.2108 -0.3158  0.5195
  756SOL    HW2 3710   2.623   6.336   1.751 -0.1768  0.6759  0.1112
  757SOL     OW 3711   6.895   5.022   4.727  0.4977 -0.4429 -0.1938
  757SOL    HW1 3712   6.848   4.938   4.732  2.0325 -1.3230  0.0393
  757SOL    HW2 3713   6.845   5.073   4.663 -0.2497 -1.6783 -0.6482
  758SOL     OW 3714   1.323   7.533   8.137  0.2861  0.1532  0.1244
  758SOL    HW1 3715   1.333   7.438   8.133  0.3482  0.1607  0.0914
  758SOL    HW2 3716   1.292   7.558   8.050 -0.5640  0.0706  0.3994
  759SOL     OW 3717   2.967   6.093  10.772  0.0062  0.0043  0.2663
  759SOL    HW1 3718   2.938   6.068  10.684 -0.2821  1.1305  0.0326
  759SOL    HW2 3719   3.063   6.089  10.768 -0.0284 -1.0937  0.2575
  760SOL     OW 3720   7.233   7.612   1.245 -0.5162  1.0333 -0.2074
  760SOL    HW1 3721   7.220   7.521   1.272 -1.0487  1.1646 -0.0035
  760SOL    HW2 3722   7.321   7.634   1.277 -0.4457  0.6393 -0.1225
  761SOL     OW 3723   4.050   0.587  12.307  0.2244  0.1357  0.4811
  761SOL    HW1 3724   3.959   0.575  12.334  0.2401 -1.0784  0.0610
  761SOL    HW2 3725   4.090   0.634  12.380 -0.5012 -0.2225  1.1359
  762SOL     OW 3726   7.245   6.671   2.146 -0.0476  0.2886 -0.0959
  762SOL    HW1 3727   7.278   6.731   2.213  0.3160  0.7294 -0.6574
  762SOL    HW2 3728   7.207   6.729   2.079  1.3943 -0.0329 -1.2282
  763SOL     OW 3729   5.082   3.218   1.813 -0.1453 -0.3206 -0.0938
  763SOL    HW1 3730   5.147   3.155   1.843  1.1215  0.5151 -0.9899
  763SOL    HW2 3731   5.002   3.166   1.803  0.4728 -1.4613  0.6170
  764SOL     OW 3732   1.194   7.505   0.970 -1.1107  0.5506  0.1297
  764SOL    HW1 3733   1.219   7.501   0.878 -1.4081  1.3466  0.0078
  764SOL    HW2 3734   1.276   7.512   1.018 -1.0031  1.0647 -0.1335
  765SOL     OW 3735   5.131   1.928   9.695  0.6800  0.2192 -0.1337
  765SOL    HW1 3736   5.107   1.844   9.735  0.1158  0.6214  0.4055
  765SOL    HW2 3737   5.217   1.948   9.731  1.2324 -0.5556 -0.9735
  766SOL     OW 3738   2.097   2.670   4.154  0.0759 -0.6686 -0.2865
  766SOL    HW1 3739   2.015   2.695   4.112  0.4167 -1.1781 -1.2748
  766SOL    HW2 3740   2.121   2.587   4.113  1.4523 -0.1840 -0.5224
  767SOL     OW 3741   2.157   0.890   4.875  0.0738 -0.1725  0.4506
  767SOL    HW1 3742   2.158   0.809   4.927  1.1523 -0.8194 -0.5263
  767SOL    HW2 3743   2.071   0.928   4.893 -0.5428 -1.6310  0.8056
  768SOL     OW 3744   0.495   2.882  11.915  0.4270 -0.0360 -0.4250
  768SOL    HW1 3745   0.495   2.806  11.973 -1.4533 -0.5026 -0.9714
  768SOL    HW2 3746   0.417   2.870  11.861 -0.5415  2.8155  0.1856
  769SOL     OW 3747   5.114   5.997   3.055  0.0525  0.2384  0.0671
  769SOL    HW1 3748   5.042   6.044   3.096 -0.8042  0.9604 -2.1243
  769SOL    HW2 3749   5.078   5.965   2.972  1.2836 -2.3027  0.4065
  770SOL     OW 3750   5.267   3.933   9.195 -0.3063 -0.3577 -0.2880
  770SOL    HW1 3751   5.217   4.014   9.204  0.3241  0.0942 -0.7921
  770SOL    HW2 3752   5.355   3.956   9.225 -0.3970 -1.1579  0.6408
  771SOL     OW 3753   5.761   6.511  11.744 -0.1286 -0.4907  0.4331
  771SOL    HW1 3754   5.852   6.535  11.724 -0.3399 -0.5640 -0.7131
  771SOL    HW2 3755   5.722   6.494  11.658 -1.1379 -0.7853  0.9379
  772SOL     OW 3756   1.134   0.670   5.930 -0.1942  0.1440 -0.0275
  772SOL    HW1 3757   1.135   0.575   5.927 -0.7019  0.0974  0.7627
  772SOL    HW2 3758   1.093   0.697   5.848  0.0661 -0.3089 -0.3099
  773SOL     OW 3759   0.552   1.022   1.235 -0.0402 -0.1203 -0.4942
  773SOL    HW1 3760   0.605   0.973   1.174  0.1896 -0.5751  0.0654
  773SOL    HW2 3761   0.468   1.035   1.190 -0.2327 -1.3423 -0.5070
  774SOL     OW 3762   3.709   7.397   4.541 -0.5530 -0.2056  0.1144
  774SOL    HW1 3763   3.649   7.362   4.476 -1.4512 -3.4181  2.4236
  774SOL    HW2 3764   3.653   7.448   4.600 -0.2518  0.2342  0.0266
  775SOL     OW 3765   6.050   7.179  10.721 -0.5794 -0.3818 -0.3634
  775SOL    HW1 3766   6.025   7.111  10.658  0.4671 -0.2818 -0.9134
  775SOL    HW2 3767   5.982   7.246  10.713 -3.0079 -2.3095  1.8642
  776SOL     OW 3768   2.853   2.012  11.041 -0.1078 -0.5719 -0.1563
  776SOL    HW1 3769   2.769   1.988  11.079  0.3655  0.5893  1.7707
  776SOL    HW2 3770   2.835   2.091  10.990 -0.0705  0.1674  0.9454
  777SOL     OW 3771   0.450   6.031  10.693  0.0445  0.5338 -0.7555
  777SOL    HW1 3772   0.535   5.987  10.691 -0.5481 -0.7310  0.3143
  777SOL    HW2 3773   0.470   6.121  10.718  0.9139 -0.2545  1.6558
  778SOL     OW 3774   0.767   2.834   4.331 -0.1709  0.1079 -0.4977
  778SOL    HW1 3775   0.862   2.823   4.333 -0.2297 -0.5142 -0.8413
  778SOL    HW2 3776   0.737   2.800   4.416 -0.1458 -0.3531 -0.6695
  779SOL     OW 3777   5.363   6.211  11.575  0.3426  0.2331 -0.1564
  779SOL    HW1 3778   5.322   6.151  11.637 -0.9321 -0.2454 -1.4026
  779SOL    HW2 3779   5.298   6.279  11.560 -0.0371 -0.4523 -2.0427
  780SOL     OW 3780   4.869   6.141   5.636  0.1221  0.4131  0.3724
  780SOL    HW1 3781   4.890   6.060   5.590  1.0316  0.8231  0.0454
  780SOL    HW2 3782   4.784   6.168   5.600  0.4238  0.2806 -0.4529
  781SOL     OW 3783   3.059   1.050   4.876 -0.7850  0.9351 -0.0093
  781SOL    HW1 3784   3.105   1.129   4.904 -0.8165  0.7856  0.4706
  781SOL    HW2 3785   3.124   0.980   4.881  0.0920  1.3623 -3.1453
  782SOL     OW 3786   0.974   6.800   3.380  0.2220 -0.6912  0.0425
  782SOL    HW1 3787   1.055   6.830   3.422 -0.8097 -1.9180  3.1675
  782SOL    HW2 3788   0.923   6.880   3.366 -0.0834 -0.3248  2.8266
  783SOL     OW 3789   4.779   7.915   9.121 -0.0415  0.0962  0.1038
  783SOL    HW1 3790   4.691   7.939   9.148 -0.0233  0.1573  0.1097
  783SOL    HW2 3791   4.812   7.993   9.076  0.1917  0.2528  0.5423
  784SOL     OW 3792   6.192   3.354   5.203 -0.2877 -0.0297 -0.2087
  784SOL    HW1 3793   6.279   3.371   5.169  1.3469 -0.6417  3.2476
  784SOL    HW2 3794   6.142   3.433   5.182  1.0697  0.3653 -2.1958
  785SOL     OW 3795   3.185   1.884  10.425  0.4526 -0.2143 -0.1268
  785SOL    HW1 3796   3.090   1.878  10.413  0.5419  1.1115 -1.8452
  785SOL    HW2 3797   3.218   1.798  10.398 -0.1987 -0.4248 -0.2698
  786SOL     OW 3798   1.211   2.791   7.863  0.3053 -0.4608  0.2291
  786SOL    HW1 3799   1.239   2.790   7.955  2.5031 -1.3064 -0.3712
  786SOL    HW2 3800   1.292   2.776   7.814 -0.5545  1.4853 -1.9379
  787SOL     OW 3801   4.459   1.738   7.376 -0.4264 -0.3083  0.5146
  787SOL    HW1 3802   4.394   1.689   7.326 -1.4559 -0.6998  2.1534
  787SOL    HW2 3803   4.538   1.684   7.371  0.7458  1.3987 -3.6861
  788SOL     OW 3804   7.494   0.418   0.434  0.3463 -0.7991  0.2502
  788SOL    HW1 3805   7.545   0.364   0.495 -0.8025 -1.4075  0.7045
  788SOL    HW2 3806   7.404   0.411   0.466 -0.6067 -2.4707 -2.4371
  789SOL     OW 3807   1.411   1.177   5.619 -0.1909 -0.5012 -0.2392
  789SOL    HW1 3808   1.341   1.135   5.668  1.1365  0.0650  2.3594
  789SOL    HW2 3809   1.454   1.105   5.572 -0.0004 -1.5408  1.4546
  790SOL     OW 3810   2.258   0.362   1.712 -0.5040 -0.7871 -0.1462
  790SOL    HW1 3811   2.310   0.440   1.695  0.2861 -1.4387 -0.7995
  790SOL    HW2 3812   2.312   0.310   1.773 -1.6647 -0.1801  1.4860
  791SOL     OW 3813   6.593   4.823  12.016 -0.5391  0.7108  0.1875
  791SOL    HW1 3814   6.683   4.820  12.048  0.4173 -0.6081 -2.3297
  791SOL    HW2 3815   6.559   4.907  12.048  1.1787  0.7550  2.1101
  792SOL     OW 3816   7.776   3.993   2.084 -0.8484  0.1545 -0.3781
  792SOL    HW1 3817   7.801   4.083   2.065  0.2016  0.2943  1.3681
  792SOL    HW2 3818   7.836   3.939   2.033 -0.7161  0.4566 -0.5387
  793SOL     OW 3819   1.608   5.678   5.667 -0.0143  0.3807  0.1210
  793SOL    HW1 3820   1.527   5.655   5.622  0.2335  1.6974 -1.0591
  793SOL    HW2 3821   1.668   5.605   5.649 -0.0976  0.6235 -1.2504
  794SOL     OW 3822   6.656   6.565  11.347  0.3105 -0.1270  0.2353
  794SOL    HW1 3823   6.697   6.647  11.320 -1.8886  1.2500  0.7785
  794SOL    HW2 3824   6.603   6.588  11.423  0.3534 -2.2787  0.9995
  795SOL     OW 3825   7.158   1.291   0.893  0.3333 -0.1852  0.2275
  795SOL    HW1 3826   7.191   1.206   0.864 -0.4645 -0.3727 -0.1581
  795SOL    HW2 3827   7.170   1.349   0.818  0.2477 -0.1245  0.2612
  796SOL     OW 3828   6.189   4.490   4.538  0.0245 -0.0184 -0.9412
  796SOL    HW1 3829   6.123   4.442   4.488  0.8741 -0.8005 -1.3314
  796SOL    HW2 3830   6.272   4.448   4.516  0.5815  0.5014  0.0745
  797SOL     OW 3831   3.331   6.077   1.051 -0.4599 -0.5327 -0.6191
  797SOL    HW1 3832   3.343   5.983   1.061  0.3244 -0.2206  2.1539
  797SOL    HW2 3833   3.384   6.116   1.121  0.3858  2.0680 -2.5416
  798SOL     OW 3834   7.077   3.936   8.845  0.0319  0.3316  0.5625
  798SOL    HW1 3835   7.128   3.925   8.925 -1.2961 -0.3256  1.3643
  798SOL    HW2 3836   7.027   3.855   8.838 -0.2633  0.6068 -0.6510
  799SOL     OW 3837   4.630   6.747   7.354  0.0974  0.3444 -0.2107
  799SOL    HW1 3838   4.711   6.796   7.372  0.0354  0.3121  0.1756
  799SOL    HW2 3839   4.652   6.657   7.376 -0.0081  0.3162 -0.2225
  800SOL     OW 3840   6.714   2.690   3.952 -0.6049 -0.5012  0.3849
  800SOL    HW1 3841   6.721   2.733   4.037 -2.2107  0.4278  0.0998
  800SOL    HW2 3842   6.621   2.696   3.930 -0.0933  0.1828 -1.8808
  801SOL     OW 3843   1.516   4.977   2.564 -0.1361  0.2901  0.1476
  801SOL    HW1 3844   1.537   5.049   2.624  1.0816 -0.0645  0.1804
  801SOL    HW2 3845   1.598   4.961   2.517 -0.4913 -0.8484 -0.1070
  802SOL     OW 3846   7.232   3.826   3.347 -0.2979  0.3039 -0.4701
  802SOL    HW1 3847   7.310   3.834   3.402  0.9714  0.7247 -2.2209
  802SOL    HW2 3848   7.237   3.736   3.313  0.3474  0.8271 -1.8311
  803SOL     OW 3849   4.032   6.098   4.139  0.4258  0.2744 -0.5927
  803SOL    HW1 3850   3.943   6.127   4.160 -0.4152 -1.7028 -1.1788
  803SOL    HW2 3851   4.046   6.127   4.049  0.9631  1.8175 -0.0472
  804SOL     OW 3852   3.007   2.526   2.891  0.4066 -0.1798 -0.3789
  804SOL    HW1 3853   3.084   2.537   2.835  0.7524 -0.2636  0.0737
  804SOL    HW2 3854   3.032   2.566   2.975  0.5811 -1.6791  0.3263
  805SOL     OW 3855   1.890   7.089   6.815  0.0294  0.3478  0.2168
  805SOL    HW1 3856   1.812   7.144   6.827 -1.4045 -1.5232 -0.1212
  805SOL    HW2 3857   1.859   7.013   6.765  2.4394  0.3199 -1.4106
  806SOL     OW 3858   4.165   0.208   2.950 -0.3541 -0.3238  0.0550
  806SOL    HW1 3859   4.250   0.226   2.910 -0.6092  0.1099 -0.3125
  806SOL    HW2 3860   4.185   0.171   3.036  0.2094 -1.1799 -0.4274
  807SOL     OW 3861   2.399   1.885   6.279 -0.2882  0.4319  0.1222
  807SOL    HW1 3862   2.333   1.954   6.273 -1.3085 -0.4108  1.0726
  807SOL    HW2 3863   2.431   1.891   6.369 -0.3810 -0.3105  0.2140
  808SOL     OW 3864   0.706   6.655   3.477  0.6422 -0.3432 -0.6089
  808SOL    HW1 3865   0.749   6.730   3.436 -0.6295  0.6266 -0.2684
  808SOL    HW2 3866   0.705   6.677   3.570 -0.2423 -0.5037 -0.5724
  809SOL     OW 3867   2.003   0.689   1.667 -0.6201 -0.0483  0.2218
  809SOL    HW1 3868   2.037   0.624   1.730 -2.5125 -1.5742 -0.2288
  809SOL    HW2 3869   2.078   0.711   1.612  0.0771 -2.0009  0.3129
  810SOL     OW 3870   6.858   1.314   7.991 -0.4797 -0.1477  0.0786
  810SOL    HW1 3871   6.918   1.242   7.970 -1.3235 -0.3015 -2.0991
  810SOL    HW2 3872   6.850   1.312   8.086  0.9126 -1.7741  0.2117
  811SOL     OW 3873   7.598   1.757   4.259 -0.1439 -0.2872  0.0153
  811SOL    HW1 3874   7.629   1.673   4.227  1.1175  0.4580 -0.8257
  811SOL    HW2 3875   7.530   1.784   4.197  0.9686  0.2801 -1.0002
  812SOL     OW 3876   5.810   6.212   1.015  0.1836 -0.2929  0.2078
  812SOL    HW1 3877   5.884   6.162   1.048 -1.0302 -1.9809  0.5233
  812SOL    HW2 3878   5.762   6.239   1.093 -1.2725 -2.0521  0.0003
  813SOL     OW 3879   3.507   4.951  12.117  0.5383  0.2018  0.5437
  813SOL    HW1 3880   3.451   4.942  12.040  0.4720  0.2988  0.5802
  813SOL    HW2 3881   3.528   4.861  12.143  1.0642  0.1778  0.0469
  814SOL     OW 3882   7.202   2.313   3.528  0.6597 -0.2951 -0.6084
  814SOL    HW1 3883   7.281   2.307   3.582  1.1433  0.8497 -1.1690
  814SOL    HW2 3884   7.164   2.398   3.551  0.0265 -0.4893 -0.9276
  815SOL     OW 3885   5.177   2.973  12.237 -0.6540 -0.4999  0.1777
  815SOL    HW1 3886   5.193   3.040  12.303  1.8054 -0.6468 -0.1784
  815SOL    HW2 3887   5.111   2.916  12.276 -3.3050  2.3538  0.2514
  816SOL     OW 3888   6.451   5.260  10.089  0.2178 -0.0143 -0.4314
  816SOL    HW1 3889   6.364   5.247  10.129 -0.6073  2.8692 -1.0823
  816SOL    HW2 3890   6.466   5.354  10.093  2.9923 -0.3481 -1.1072
  817SOL     OW 3891   6.989   5.251   7.566 -0.8857  0.0689  0.7698
  817SOL    HW1 3892   6.994   5.346   7.577 -4.8370  0.4845  0.5659
  817SOL    HW2 3893   7.079   5.223   7.552  0.2330  4.0554 -1.4473
  818SOL     OW 3894   7.357   5.054   6.532  0.1477  0.0090 -0.3406
  818SOL    HW1 3895   7.348   5.064   6.437  0.3857  1.1557 -0.2499
  818SOL    HW2 3896   7.449   5.028   6.545  0.4375  1.0230 -0.3416
  819SOL     OW 3897   6.153   1.332   0.786  0.3119 -0.5875  0.0664
  819SOL    HW1 3898   6.243   1.346   0.816 -0.0211  2.6073 -0.0899
  819SOL    HW2 3899   6.160   1.329   0.691  0.1903  0.6841  0.0013
  820SOL     OW 3900   6.481   7.201  12.204  0.1071 -0.4835  0.4269
  820SOL    HW1 3901   6.414   7.245  12.257  0.6142 -0.5480  1.1344
  820SOL    HW2 3902   6.527   7.272  12.159  1.9710 -0.0648  2.7760
  821SOL     OW 3903   4.256   5.580   4.676  0.2150  0.1354 -0.0125
  821SOL    HW1 3904   4.236   5.577   4.582  0.5554  2.5488 -0.2353
  821SOL    HW2 3905   4.343   5.541   4.683  0.5715  0.7380 -0.8508
  822SOL     OW 3906   1.293   3.812   3.527 -0.0830 -0.0388  0.8613
  822SOL    HW1 3907   1.203   3.782   3.516 -0.5438  1.3034  0.8592
  822SOL    HW2 3908   1.314   3.857   3.445  0.5310 -0.1791  0.9316
  823SOL     OW 3909   7.618   5.666   7.797  0.0674  0.0223  0.0892
  823SOL    HW1 3910   7.658   5.720   7.728  0.5603  0.6253  0.8250
  823SOL    HW2 3911   7.670   5.686   7.875  1.8091 -3.2363 -0.0609
  824SOL     OW 3912   2.678   1.881   5.518 -0.3183 -0.1452  0.7813
  824SOL    HW1 3913   2.742   1.836   5.573  1.4561  0.4690 -0.6854
  824SOL    HW2 3914   2.638   1.811   5.467 -0.6137 -0.5013  1.4837
  825SOL     OW 3915   2.683   4.772   9.220  0.1305  0.0310  0.0812
  825SOL    HW1 3916   2.696   4.867   9.219 -0.7221  0.1779 -1.7408
  825SOL    HW2 3917   2.758   4.737   9.172 -0.3145 -0.0800 -0.5409
  826SOL     OW 3918   3.841   2.831   3.639 -0.1344  0.3696 -0.6633
  826SOL    HW1 3919   3.802   2.875   3.715 -0.6120  0.0947 -0.7426
  826SOL    HW2 3920   3.895   2.761   3.677 -0.3702  0.2347 -0.5748
  827SOL     OW 3921   7.492   7.603   9.818 -0.2572 -0.3460  0.1782
  827SOL    HW1 3922   7.425   7.539   9.797  0.8952 -1.6637  0.3757
  827SOL    HW2 3923   7.505   7.595   9.913  0.5138 -0.4710  0.0722
  828SOL     OW 3924   5.955   3.851   1.801  0.0092  0.6424 -0.0700
  828SOL    HW1 3925   5.983   3.878   1.714  0.4392 -0.4322 -0.2796
  828SOL    HW2 3926   6.029   3.872   1.858 -0.2173  1.2163  0.0135
  829SOL     OW 3927   4.816   6.868   3.441 -0.6259  0.0869 -0.0561
  829SOL    HW1 3928   4.833   6.812   3.517 -1.2970 -1.7347 -1.1798
  829SOL    HW2 3929   4.729   6.903   3.456 -0.8706 -0.4922 -0.1033
  830SOL     OW 3930   6.858   2.297   7.932  0.3408 -0.0643  0.1177
  830SOL    HW1 3931   6.931   2.359   7.933  0.8306 -0.6035  1.6137
  830SOL    HW2 3932   6.810   2.316   8.013 -0.9883  0.0492 -0.6771
  831SOL     OW 3933   2.922   6.463   7.370  0.1904 -0.1164 -0.5665
  831SOL    HW1 3934   3.005   6.431   7.335  0.1899  1.5511 -2.2615
  831SOL    HW2 3935   2.858   6.397   7.342  0.5601 -0.0403 -1.6642
  832SOL     OW 3936   6.527   6.699   2.572 -0.8117  0.0979  0.0430
  832SOL    HW1 3937   6.620   6.693   2.596 -0.3382  1.2464 -1.3943
  832SOL    HW2 3938   6.508   6.614   2.532  0.0315  0.3537 -0.9577
  833SOL     OW 3939   7.832   3.184   5.578 -0.4778  0.0358 -0.1679
  833SOL    HW1 3940   7.742   3.165   5.552 -0.0223 -0.6806 -1.2790
  833SOL    HW2 3941   7.832   3.175   5.674 -1.2925 -1.2517 -0.2726
  834SOL     OW 3942   3.472   1.963   8.518  0.2615 -0.3027 -0.0537
  834SOL    HW1 3943   3.459   2.029   8.450  1.6938 -0.7850 -0.8249
  834SOL    HW2 3944   3.441   1.881   8.480 -0.5934 -0.2688  0.5419
  835SOL     OW 3945   4.587   0.292   5.266  0.3959  0.4054 -0.4888
  835SOL    HW1 3946   4.668   0.311   5.219 -0.2329 -0.6681 -2.0766
  835SOL    HW2 3947   4.531   0.369   5.251  0.1618  0.0310 -1.6310
  836SOL     OW 3948   7.316   7.264  11.839  0.4209  0.0630  0.1330
  836SOL    HW1 3949   7.231   7.301  11.863 -1.0944 -0.3330 -3.8235
  836SOL    HW2 3950   7.377   7.337  11.847 -1.2054  1.6443 -1.0770
  837SOL     OW 3951   5.339   0.875   2.262  0.1884  0.0981 -0.2932
  837SOL    HW1 3952   5.285   0.954   2.267 -0.5811 -0.3207 -1.4102
  837SOL    HW2 3953   5.295   0.813   2.321  0.2297  0.1951 -0.1604
  838SOL     OW 3954   5.674   4.277   4.454  0.9083  0.3379  0.1074
  838SOL    HW1 3955   5.619   4.298   4.529  1.4652  0.8203  0.3896
  838SOL    HW2 3956   5.653   4.344   4.389 -2.6780 -2.3483 -1.9112
  839SOL     OW 3957   3.838   4.274  11.654 -0.3550  0.2359 -0.2552
  839SOL    HW1 3958   3.863   4.216  11.726 -0.5937  2.1835  1.4865
  839SOL    HW2 3959   3.915   4.329  11.639 -0.9539  1.1060 -0.1838
  840SOL     OW 3960   3.263   7.295  11.553  0.2529  0.2267 -0.0078
  840SOL    HW1 3961   3.269   7.221  11.492  0.8994 -1.5570  2.1073
  840SOL    HW2 3962   3.176   7.289  11.591 -0.5170  1.9103 -1.3438
  841SOL     OW 3963   1.195   2.910   1.130 -0.1520  0.0197 -0.5585
  841SOL    HW1 3964   1.153   2.858   1.061 -0.1927 -0.7886  0.0556
  841SOL    HW2 3965   1.253   2.969   1.083  0.3503 -0.9982 -1.2639
  842SOL     OW 3966   2.456   4.390   7.606 -0.6376  0.4655  0.2304
  842SOL    HW1 3967   2.411   4.307   7.621  0.6941 -0.5814 -1.3117
  842SOL    HW2 3968   2.389   4.457   7.624 -1.4547 -0.8501  2.4782
  843SOL     OW 3969   4.105   5.636   9.680 -0.3296  0.5229  0.7895
  843SOL    HW1 3970   4.016   5.654   9.651  0.7293  2.0145 -1.8879
  843SOL    HW2 3971   4.114   5.685   9.762 -1.7165  1.0267  0.6652
  844SOL     OW 3972   3.878   7.614   9.571 -0.0421  0.1396 -0.4973
  844SOL    HW1 3973   3.897   7.520   9.575 -1.1902 -0.0883 -0.2969
  844SOL    HW2 3974   3.927   7.645   9.494 -0.0827 -0.7200 -0.8759
  845SOL     OW 3975   4.859   7.125   5.269 -0.1485  0.0730 -0.3568
  845SOL    HW1 3976   4.900   7.099   5.352 -0.1945 -1.0138 -0.6686
  845SOL    HW2 3977   4.845   7.219   5.279  1.9014  0.3935 -0.0157
  846SOL     OW 3978   0.605   7.427   9.317 -0.2936  0.0404  0.2873
  846SOL    HW1 3979   0.511   7.448   9.317 -0.0566  1.1596  0.6628
  846SOL    HW2 3980   0.608   7.335   9.290 -1.5922 -0.4884  1.7437
  847SOL     OW 3981   1.202   5.501   3.421  0.1848 -0.0933  0.4186
  847SOL    HW1 3982   1.130   5.549   3.381 -0.7149 -0.5628  1.4318
  847SOL    HW2 3983   1.166   5.415   3.442  1.5881 -1.0352 -0.7703
  848SOL     OW 3984   1.785   3.927   4.385  0.4111 -0.1480  0.1127
  848SOL    HW1 3985   1.709   3.955   4.436  0.7786 -0.6456  0.9477
  848SOL    HW2 3986   1.749   3.903   4.300 -0.5767 -1.5751  0.8800
  849SOL     OW 3987   1.228   6.300   9.429  0.2103  0.2539 -0.1662
  849SOL    HW1 3988   1.221   6.327   9.337  0.3043  3.0754  0.5923
  849SOL    HW2 3989   1.312   6.335   9.458  0.2610 -0.7649  1.0026
  850SOL     OW 3990   7.154   5.602  11.417 -0.3394  0.5305 -0.1093
  850SOL    HW1 3991   7.140   5.669  11.350 -0.3533 -0.0989 -0.7511
  850SOL    HW2 3992   7.247   5.610  11.440 -0.6378  1.6666  0.8250
  851SOL     OW 3993   5.192   0.051   7.171  0.0661 -0.4509 -0.3506
  851SOL    HW1 3994   5.203   0.016   7.083  0.0615  0.1182 -0.5816
  851SOL    HW2 3995   5.273   0.098   7.188  0.2158 -0.8666  0.0946
  852SOL     OW 3996   1.103   6.214   2.276 -0.1096  0.1281 -0.0829
  852SOL    HW1 3997   1.106   6.150   2.347  2.0289 -0.5712 -0.7429
  852SOL    HW2 3998   1.011   6.213   2.248 -0.5063 -1.3231  1.1049
  853SOL     OW 3999   5.845   2.493  10.727 -0.0264  0.0296 -0.0134
  853SOL    HW1 4000   5.841   2.587  10.744 -0.1136 -0.0835  0.6065
  853SOL    HW2 4001   5.793   2.453  10.797  1.1334 -0.5683  0.5317
  854SOL     OW 4002   6.269   7.512   0.395  0.3220  0.0775  0.0310
  854SOL    HW1 4003   6.251   7.481   0.484  0.5740  0.2275  0.1355
  854SOL    HW2 4004   6.355   7.554   0.401 -0.2951  1.4020  0.0437
  855SOL     OW 4005   3.349   2.595  12.172 -0.4203  0.3178 -0.2726
  855SOL    HW1 4006   3.408   2.654  12.219 -0.1708  0.7282 -1.0831
  855SOL    HW2 4007   3.391   2.510  12.177 -1.3901 -0.1023  1.9983
  856SOL     OW 4008   1.891   4.107   8.915 -0.0889 -0.3312  0.6458
  856SOL    HW1 4009   1.924   4.025   8.877 -0.6505 -0.0085 -0.5854
  856SOL    HW2 4010   1.796   4.103   8.902 -0.0396  0.9034 -0.2412
  857SOL     OW 4011   2.069   5.895   6.225 -0.1907 -0.6527  0.0840
  857SOL    HW1 4012   2.096   5.911   6.315  0.7462  0.0065 -0.2969
  857SOL    HW2 4013   1.990   5.947   6.214  0.1517 -0.0861  0.2847
  858SOL     OW 4014   5.865   1.692   7.942 -0.0532  0.1544  0.3164
  858SOL    HW1 4015   5.802   1.685   8.014  0.0115 -0.0661  0.3515
  858SOL    HW2 4016   5.823   1.646   7.870  0.4310 -0.7132  0.5859
  859SOL     OW 4017   4.969   4.650  12.374  0.4522 -0.3194  0.0144
  859SOL    HW1 4018   4.955   4.723  12.435  0.5881 -0.5783  0.3595
  859SOL    HW2 4019   4.993   4.692  12.292  0.7294  0.0208  0.2629
  860SOL     OW 4020   6.414   0.878   6.065  0.1884  0.3062  0.0267
  860SOL    HW1 4021   6.322   0.855   6.073  0.3438  0.1090  1.4328
  860SOL    HW2 4022   6.420   0.927   5.983 -1.0963  0.0213 -0.2489
  861SOL     OW 4023   3.669   7.648   6.454 -0.3494 -0.2272 -0.1475
  861SOL    HW1 4024   3.720   7.581   6.500 -0.9015 -0.3661  0.2890
  861SOL    HW2 4025   3.719   7.667   6.375  1.3650  1.0468  1.1647
  862SOL     OW 4026   4.663   0.528   5.568 -0.1243 -0.1061 -0.7888
  862SOL    HW1 4027   4.755   0.553   5.571 -0.4345  1.0178  0.0894
  862SOL    HW2 4028   4.655   0.477   5.488  1.0538  0.6335 -1.4164
  863SOL     OW 4029   1.025   6.467   4.409 -0.0878 -0.2268  0.2794
  863SOL    HW1 4030   0.962   6.537   4.391  0.3850 -0.3505 -2.2305
  863SOL    HW2 4031   1.016   6.450   4.503 -2.3938  1.0825  0.3682
  864SOL     OW 4032   6.794   7.298   0.257 -0.1451  0.2036  0.4702
  864SOL    HW1 4033   6.816   7.282   0.349  1.0107 -0.6852  0.0714
  864SOL    HW2 4034   6.878   7.294   0.211 -0.5329  1.9097 -0.4744
  865SOL     OW 4035   3.642   3.349   4.061 -0.2572  0.1267  0.3615
  865SOL    HW1 4036   3.606   3.427   4.019  0.6328  0.1272 -0.4386
  865SOL    HW2 4037   3.667   3.378   4.149 -1.1907  0.3827  0.5612
  866SOL     OW 4038   5.848   4.054   4.454 -0.3943  0.0246 -0.3300
  866SOL    HW1 4039   5.785   4.126   4.450  0.1670  0.5759  0.4935
  866SOL    HW2 4040   5.905   4.067   4.377 -0.7778 -0.0039 -0.6199
  867SOL     OW 4041   4.956   6.360   7.199 -0.3992 -0.1285  0.1366
  867SOL    HW1 4042   4.943   6.369   7.105  1.2556  0.0127 -0.1213
  867SOL    HW2 4043   4.989   6.446   7.227  1.5308 -0.8848  0.3481
  868SOL     OW 4044   3.813   0.494   2.656  0.2475 -0.2690 -0.2625
  868SOL    HW1 4045   3.868   0.572   2.647 -0.4874  0.0384 -2.9772
  868SOL    HW2 4046   3.871   0.421   2.637  0.6303 -0.3359  1.0251
  869SOL     OW 4047   2.047   5.642   4.875  0.2092  0.0372  0.0742
  869SOL    HW1 4048   1.957   5.646   4.842  0.6650 -0.7086 -1.3313
  869SOL    HW2 4049   2.043   5.686   4.960 -1.5219 -0.1685  0.1396
  870SOL     OW 4050   4.625   1.334   1.330  0.7263 -0.0514  0.4945
  870SOL    HW1 4051   4.533   1.358   1.335  1.3294  2.7939  0.0011
  870SOL    HW2 4052   4.647   1.304   1.417  0.3341  3.8636  2.1764
  871SOL     OW 4053   4.277   7.849  10.171 -0.4150 -0.4300  0.1605
  871SOL    HW1 4054   4.311   7.774  10.220 -0.2505  0.2557  1.1377
  871SOL    HW2 4055   4.348   7.914  10.174  0.2874 -0.9554 -2.4846
  872SOL     OW 4056   5.408   3.959  12.181  0.0536 -0.3170 -0.0246
  872SOL    HW1 4057   5.372   3.958  12.269  1.4897 -1.3479  0.6085
  872SOL    HW2 4058   5.407   4.051  12.155 -1.3585 -0.1252  0.6303
  873SOL     OW 4059   5.082   0.968   3.548  0.1474 -0.3720  0.5392
  873SOL    HW1 4060   5.162   0.973   3.495  0.2160 -1.4793  0.5261
  873SOL    HW2 4061   5.011   0.977   3.485  0.2417 -0.9933  0.3375
  874SOL     OW 4062   1.877   2.013   6.263  0.0644  0.1130  0.3779
  874SOL    HW1 4063   1.884   2.054   6.177  1.9222  0.5311  0.7068
  874SOL    HW2 4064   1.821   2.072   6.314 -0.4696  0.2116 -0.3068
  875SOL     OW 4065   5.727   6.215   3.757 -0.7913 -0.8969 -0.2471
  875SOL    HW1 4066   5.769   6.219   3.671 -0.1607 -2.2529 -0.0265
  875SOL    HW2 4067   5.646   6.167   3.742 -1.0314 -0.5101 -0.2031
  876SOL     OW 4068   3.791   2.523   6.102  0.2455  0.5531 -0.2149
  876SOL    HW1 4069   3.768   2.449   6.045  2.2894 -1.1949  1.0968
  876SOL    HW2 4070   3.723   2.523   6.170  0.1258  0.0164 -0.3301
  877SOL     OW 4071   0.350   2.130  11.632  0.1573 -0.1014 -0.3160
  877SOL    HW1 4072   0.399   2.117  11.551 -1.5189  0.2882 -1.4352
  877SOL    HW2 4073   0.376   2.217  11.662 -0.0627  0.2127 -1.0357
  878SOL     OW 4074   1.219   5.955   8.320  0.1165  0.3254 -0.1366
  878SOL    HW1 4075   1.248   5.878   8.271 -0.7429 -1.0515  1.3858
  878SOL    HW2 4076   1.185   5.919   8.402 -0.3397  2.3504  0.6218
  879SOL     OW 4077   3.245   6.267  10.851 -0.1807 -0.2704  0.0087
  879SOL    HW1 4078   3.315   6.244  10.912 -0.0821 -1.5486 -0.5419
  879SOL    HW2 4079   3.170   6.287  10.907 -0.1050 -1.4457  0.5806
  880SOL     OW 4080   0.246   3.658   6.377  0.5526 -0.5722 -0.1484
  880SOL    HW1 4081   0.224   3.566   6.393 -1.3614  0.2038  2.3831
  880SOL    HW2 4082   0.280   3.689   6.461  0.9388  1.1161 -0.8944
  881SOL     OW 4083   3.097   6.405   6.069  0.2821  0.4663  0.0360
  881SOL    HW1 4084   3.145   6.388   5.988  1.1651  0.5419  0.5344
  881SOL    HW2 4085   3.096   6.500   6.077  0.0358  0.4659  0.0241
  882SOL     OW 4086   5.338   3.226   9.335  0.1926  0.2592 -0.0388
  882SOL    HW1 4087   5.263   3.262   9.286  0.7347  0.3709 -0.8108
  882SOL    HW2 4088   5.318   3.244   9.426 -0.8241  0.1071 -0.2140
  883SOL     OW 4089   1.732   7.765   7.893  0.5234 -0.1659  0.1157
  883SOL    HW1 4090   1.776   7.850   7.898 -0.9763  0.5807  1.7644
  883SOL    HW2 4091   1.656   7.775   7.949 -1.6148 -1.4871 -2.3425
  884SOL     OW 4092   7.825   7.692   6.887  0.7067  0.0813  0.0808
  884SOL    HW1 4093   7.863   7.769   6.929  0.1095  1.2071 -1.3566
  884SOL    HW2 4094   7.731   7.710   6.884  0.5723 -0.6478 -0.3892
  885SOL     OW 4095   5.264   2.181   7.318  0.1126  0.0175  0.1440
  885SOL    HW1 4096   5.299   2.237   7.388  0.0641 -0.3567  0.4708
  885SOL    HW2 4097   5.184   2.144   7.355 -2.0417  2.7082 -1.4133
  886SOL     OW 4098   6.740   6.565   7.489  0.0498  0.4916  0.1669
  886SOL    HW1 4099   6.694   6.483   7.471  0.1009  0.6142 -0.5497
  886SOL    HW2 4100   6.825   6.538   7.524 -0.8288  0.2620  2.3123
  887SOL     OW 4101   0.279   0.666  12.258  0.0493 -0.1434  0.2541
  887SOL    HW1 4102   0.318   0.754  12.255  1.8675 -0.8608  0.9320
  887SOL    HW2 4103   0.338   0.612  12.205 -0.8075 -1.0491  0.1883
  888SOL     OW 4104   0.425   3.273   5.160 -0.3278 -0.5352  0.6598
  888SOL    HW1 4105   0.345   3.295   5.111  0.7884  0.7639 -0.6978
  888SOL    HW2 4106   0.448   3.185   5.130 -0.9237 -0.6777  0.6057
  889SOL     OW 4107   5.790   3.311   4.181 -0.2982 -0.3503  0.1893
  889SOL    HW1 4108   5.718   3.338   4.238  0.7447 -0.5123  1.6297
  889SOL    HW2 4109   5.852   3.268   4.239  1.0633 -0.0439 -0.9724
  890SOL     OW 4110   5.073   0.914   4.849  0.0051 -0.5879 -0.2356
  890SOL    HW1 4111   5.146   0.855   4.871  0.6446  0.2592 -0.0524
  890SOL    HW2 4112   5.088   0.938   4.758  1.4061  1.5495  0.4736
  891SOL     OW 4113   4.002   1.636   4.418  1.1892 -0.8595  0.1768
  891SOL    HW1 4114   4.023   1.690   4.494  2.4990 -0.7180 -0.2665
  891SOL    HW2 4115   4.074   1.650   4.357 -0.2079 -0.3506 -1.4497
  892SOL     OW 4116   7.019   3.924   3.455  0.1728  0.3294  0.2974
  892SOL    HW1 4117   6.977   3.940   3.371 -1.0696 -2.6210  0.2495
  892SOL    HW2 4118   7.109   3.901   3.432 -0.3440 -1.1440 -0.3158
  893SOL     OW 4119   0.789   5.149   9.781  0.1077 -0.4067  0.4232
  893SOL    HW1 4120   0.824   5.129   9.694  0.6235 -1.0471  0.7710
  893SOL    HW2 4121   0.733   5.225   9.767 -1.0755 -1.4437 -0.7565
  894SOL     OW 4122   4.803   3.772   0.973  0.2271 -0.1446 -0.1145
  894SOL    HW1 4123   4.713   3.761   0.943 -0.2255  2.0686  0.2607
  894SOL    HW2 4124   4.803   3.740   1.063  0.0487 -0.9628 -0.4006
  895SOL     OW 4125   2.143   0.347   2.596  0.2598 -0.5080  0.1451
  895SOL    HW1 4126   2.188   0.392   2.524  1.8866 -1.8255  0.2741
  895SOL    HW2 4127   2.163   0.400   2.674 -0.1144  0.0111 -0.1059
  896SOL     OW 4128   3.225   4.940   5.188 -0.1808 -0.3175 -0.0203
  896SOL    HW1 4129   3.179   4.869   5.233  0.1621 -1.0505 -0.7950
  896SOL    HW2 4130   3.265   4.897   5.112  0.7939  0.5344  0.0054
  897SOL     OW 4131   6.044   3.897   2.886  0.4749  0.2611 -0.0496
  897SOL    HW1 4132   6.065   3.986   2.860 -2.4893  1.0733 -0.0200
  897SOL    HW2 4133   5.988   3.863   2.816  0.0266 -0.8772  0.8163
  898SOL     OW 4134   1.468   1.939   9.760 -0.0471  0.1480  0.1674
  898SOL    HW1 4135   1.528   1.917   9.831 -0.4416 -0.3794  0.3477
  898SOL    HW2 4136   1.448   2.032   9.772  0.1578  0.1432  0.5436
  899SOL     OW 4137   6.081   7.836   7.872 -0.0943 -0.4271  0.5375
  899SOL    HW1 4138   6.065   7.749   7.908  1.0019 -0.9979 -0.3194
  899SOL    HW2 4139   6.148   7.873   7.929 -0.9863  0.1113  1.2638
  900SOL     OW 4140   2.506   2.288   2.196 -0.6916 -0.5843  0.7603
  900SOL    HW1 4141   2.522   2.318   2.286 -0.7697 -0.1104  0.6150
  900SOL    HW2 4142   2.535   2.196   2.197  0.7591 -0.1524  0.8576
  901SOL     OW 4143   0.570   1.017  11.471 -0.5600  0.1246 -0.1763
  901SOL    HW1 4144   0.604   1.042  11.557  0.8421 -2.7256  0.2146
  901SOL    HW2 4145   0.610   1.080  11.411 -0.3642  1.2563  1.0894
  902SOL     OW 4146   4.965   2.856  12.333  0.4730 -0.0748 -0.3063
  902SOL    HW1 4147   4.908   2.829  12.404  0.8102 -1.9099 -0.6829
  902SOL    HW2 4148   4.912   2.917  12.281 -1.0699 -1.4967 -0.4877
  903SOL     OW 4149   6.695   3.869  12.261 -0.5446 -0.0358 -0.0301
  903SOL    HW1 4150   6.673   3.778  12.243 -0.2143  0.1500 -1.5005
  903SOL    HW2 4151   6.791   3.872  12.258 -0.5531  0.8461 -2.9867
  904SOL     OW 4152   6.256   3.378   7.186 -0.1273 -0.4438  0.1302
  904SOL    HW1 4153   6.189   3.314   7.213 -1.6506  0.2681 -1.7447
  904SOL    HW2 4154   6.234   3.457   7.236 -0.9036 -0.1165 -0.7139
  905SOL     OW 4155   6.908   6.863   8.935 -0.3361  0.0910 -0.4676
  905SOL    HW1 4156   6.819   6.899   8.935 -0.4677 -0.2301  0.2225
  905SOL    HW2 4157   6.896   6.768   8.928 -0.0621  0.0141  0.0897
  906SOL     OW 4158   6.862   3.989   0.047 -0.3315 -0.4266 -0.2294
  906SOL    HW1 4159   6.840   3.984  -0.046  0.1313 -2.6091 -0.2832
  906SOL    HW2 4160   6.957   4.005   0.048 -0.2333 -0.9861 -0.1620
  907SOL     OW 4161   7.415   7.955   7.355 -0.6920 -0.5281  0.4622
  907SOL    HW1 4162   7.431   8.006   7.435  0.8942  1.5270 -1.0612
  907SOL    HW2 4163   7.347   8.004   7.309  0.2864 -0.2107 -0.6620
  908SOL     OW 4164   7.621   7.170   3.961  0.4560  0.1149  0.2507
  908SOL    HW1 4165   7.578   7.119   4.030  0.7521  0.9857  1.0978
  908SOL    HW2 4166   7.551   7.192   3.901  0.0370  0.0473  0.7065
  909SOL     OW 4167   5.514   2.026  12.105  0.0356  0.0949  0.4396
  909SOL    HW1 4168   5.584   1.961  12.099 -1.6063 -1.7403 -0.0518
  909SOL    HW2 4169   5.451   1.999  12.038 -0.6677  2.3161  0.1237
  910SOL     OW 4170   5.426   3.698   0.094 -0.0859  0.1559  0.3396
  910SOL    HW1 4171   5.468   3.624   0.051  0.9120  1.0499 -0.2555
  910SOL    HW2 4172   5.355   3.658   0.145 -0.4637 -1.0700 -1.0526
  911SOL     OW 4173   5.367   1.776  10.733 -0.2100  0.7197  0.3846
  911SOL    HW1 4174   5.417   1.783  10.652  2.6081  0.2469  1.9460
  911SOL    HW2 4175   5.306   1.849  10.730 -1.7009 -0.4628 -3.0323
  912SOL     OW 4176   1.314   1.855  10.407 -0.0463 -0.4335  0.3267
  912SOL    HW1 4177   1.243   1.812  10.360  0.2539 -1.4899  0.8250
  912SOL    HW2 4178   1.292   1.844  10.499 -0.0761  0.6899  0.4717
  913SOL     OW 4179   5.259   2.171   4.045  0.0551 -0.9329  0.5814
  913SOL    HW1 4180   5.266   2.187   4.139 -0.2233  1.4940  0.2516
  913SOL    HW2 4181   5.344   2.198   4.009 -0.4331 -0.2008 -0.0472
  914SOL     OW 4182   0.161   2.014   0.265 -0.2017 -0.0976  0.4774
  914SOL    HW1 4183   0.085   2.007   0.323  1.1853 -2.4888  2.2039
  914SOL    HW2 4184   0.222   2.071   0.312 -0.2115  0.3316 -0.0292
  915SOL     OW 4185   0.050   3.244  10.024  0.3530  0.1781 -0.5699
  915SOL    HW1 4186   0.035   3.297  10.103 -1.8765 -0.2027 -0.6698
  915SOL    HW2 4187  -0.015   3.174  10.030  1.7759 -1.2960 -1.5549
  916SOL     OW 4188   4.414   4.268   8.263 -0.1979 -0.2929 -0.5414
  916SOL    HW1 4189   4.363   4.258   8.344  0.2719  2.1681  0.1327
  916SOL    HW2 4190   4.353   4.243   8.194 -1.5094  0.1420  0.4084
  917SOL     OW 4191   2.869   0.867  10.902  0.0104  0.0168 -0.3050
  917SOL    HW1 4192   2.954   0.912  10.909 -0.0079  0.0182 -0.0741
  917SOL    HW2 4193   2.817   0.924  10.845  0.3948 -0.3430 -1.0243
  918SOL     OW 4194   0.723   3.711   9.725  0.2502 -0.1806 -0.7987
  918SOL    HW1 4195   0.767   3.786   9.767 -1.1391 -0.3705  1.1607
  918SOL    HW2 4196   0.794   3.652   9.700  1.2598  0.8685 -0.4969
  919SOL     OW 4197   6.229   3.778  11.250  0.5463  0.1381  0.2377
  919SOL    HW1 4198   6.220   3.862  11.296  0.1581 -0.6831  1.7066
  919SOL    HW2 4199   6.311   3.787  11.201 -0.2066  1.9027 -0.8294
  920SOL     OW 4200   3.164   3.882   9.559  0.1559 -0.3864 -0.3925
  920SOL    HW1 4201   3.185   3.973   9.540  1.3276 -0.7118 -0.6984
  920SOL    HW2 4202   3.183   3.872   9.653  0.6588 -0.4766 -0.5004
  921SOL     OW 4203   7.093   0.564   0.165 -0.1088  0.2318 -0.5049
  921SOL    HW1 4204   7.174   0.586   0.211  0.1057  2.0631 -1.6652
  921SOL    HW2 4205   7.025   0.568   0.233  0.7198 -1.2549  0.4613
  922SOL     OW 4206   6.628   2.305   6.396 -0.0140  0.9226  0.2615
  922SOL    HW1 4207   6.635   2.215   6.427  0.4420  0.5552 -0.8406
  922SOL    HW2 4208   6.566   2.347   6.456 -3.1124 -1.0783 -1.2665
  923SOL     OW 4209   1.850   5.280   7.254  0.0792 -0.1045 -0.0622
  923SOL    HW1 4210   1.883   5.273   7.344 -0.6887  1.4664  0.3787
  923SOL    HW2 4211   1.880   5.200   7.211 -1.4723 -2.0641  2.2321
  924SOL     OW 4212   7.983   4.529   3.121 -0.4163 -0.0611  0.3415
  924SOL    HW1 4213   7.889   4.535   3.106 -0.4962  0.4337  0.9734
  924SOL    HW2 4214   8.008   4.618   3.146  0.4113  0.0667 -0.8754
  925SOL     OW 4215   3.966   0.688   7.304 -0.2923  0.2976  0.3196
  925SOL    HW1 4216   3.933   0.601   7.326 -1.0722  0.2025 -1.1140
  925SOL    HW2 4217   3.888   0.744   7.300  0.0754  0.8114  0.1134
  926SOL     OW 4218   3.506   3.728   8.519 -0.5737 -0.7316  0.0643
  926SOL    HW1 4219   3.592   3.756   8.487  0.0240 -2.6319 -0.0990
  926SOL    HW2 4220   3.444   3.789   8.479  0.6915  0.7152  0.2360
  927SOL     OW 4221   0.194   3.386   2.615  0.0625  0.0166 -0.2439
  927SOL    HW1 4222   0.100   3.389   2.598  0.2701  0.4184 -1.4065
  927SOL    HW2 4223   0.203   3.409   2.708 -0.9159  1.0137 -0.3857
  928SOL     OW 4224   0.328   0.551   7.529  0.5332  0.7198  0.7163
  928SOL    HW1 4225   0.396   0.558   7.597 -0.6756  2.0937  1.8480
  928SOL    HW2 4226   0.318   0.457   7.515 -0.6911  0.2001  4.0971
  929SOL     OW 4227   7.971   3.777   7.367  0.5337 -0.7942  0.1719
  929SOL    HW1 4228   7.890   3.777   7.418 -0.2239 -0.9954 -1.0172
  929SOL    HW2 4229   7.954   3.835   7.293  1.6194 -0.5215  0.1166
  930SOL     OW 4230   5.441   5.721   4.088  0.4257  0.5570 -0.0584
  930SOL    HW1 4231   5.523   5.770   4.074  1.5870 -1.6460 -1.5800
  930SOL    HW2 4232   5.464   5.630   4.070 -1.4582 -0.7681  3.3427
  931SOL     OW 4233   0.592   4.596  11.557  0.3365  0.3355 -0.3141
  931SOL    HW1 4234   0.626   4.672  11.509 -1.0911  0.3649 -1.3660
  931SOL    HW2 4235   0.637   4.521  11.518 -0.0888  0.4493 -1.0465
  932SOL     OW 4236   4.562   6.959  10.665  0.0159  0.5708 -0.3180
  932SOL    HW1 4237   4.635   7.020  10.674 -1.2224  2.0879 -0.2428
  932SOL    HW2 4238   4.494   6.993  10.723 -1.3842  0.1644 -1.6650
  933SOL     OW 4239   4.929   4.109   6.747  0.3098  0.0061 -0.2575
  933SOL    HW1 4240   4.958   4.200   6.757 -1.0359  0.2925  1.5770
  933SOL    HW2 4241   5.008   4.062   6.722  1.3432  1.4638  0.0983
  934SOL     OW 4242   3.120   5.878   9.933  0.1324 -0.1663 -0.2121
  934SOL    HW1 4243   3.131   5.890  10.027  0.3195  0.4458 -0.3045
  934SOL    HW2 4244   3.063   5.802   9.924  0.4174 -0.4586  0.3883
  935SOL     OW 4245   3.459   2.359   9.747 -0.0277  0.3460  0.1003
  935SOL    HW1 4246   3.494   2.447   9.759  0.6007 -0.0143  0.9876
  935SOL    HW2 4247   3.378   2.358   9.798 -0.3851  0.6050 -0.4502
  936SOL     OW 4248   2.142   1.383  11.365 -0.0685  0.6118 -0.3336
  936SOL    HW1 4249   2.073   1.364  11.302  1.5013  0.7252 -2.2035
  936SOL    HW2 4250   2.197   1.448  11.321  1.7631 -0.1926  0.6368
  937SOL     OW 4251   7.738   0.734   9.638  0.5133  0.0997 -0.2042
  937SOL    HW1 4252   7.751   0.826   9.613  0.7344 -0.0451 -0.6409
  937SOL    HW2 4253   7.655   0.733   9.684  0.3271  0.4628 -0.5236
  938SOL     OW 4254   7.330   3.512   0.993  0.0685  0.0671 -0.4905
  938SOL    HW1 4255   7.262   3.575   0.968 -1.1337 -0.8635  0.3546
  938SOL    HW2 4256   7.376   3.493   0.911 -1.3767 -0.0959 -1.2914
  939SOL     OW 4257   5.975   6.796   9.043  0.3755  0.0282  0.3267
  939SOL    HW1 4258   5.928   6.766   8.966 -0.8390  0.1241  1.0031
  939SOL    HW2 4259   5.928   6.875   9.071 -1.2307 -1.6909  2.9538
  940SOL     OW 4260   5.296   1.936   1.754  0.3184  0.3173 -0.0842
  940SOL    HW1 4261   5.285   1.843   1.774  1.2132  0.1844 -0.2068
  940SOL    HW2 4262   5.386   1.956   1.779 -0.6232  1.8023  2.5379
  941SOL     OW 4263   5.149   2.545   8.633 -0.2324  0.4794 -0.0457
  941SOL    HW1 4264   5.175   2.455   8.654  1.2656  0.9760  0.3775
  941SOL    HW2 4265   5.054   2.545   8.640 -0.1284 -0.5607  1.9887
  942SOL     OW 4266   0.751   0.070   3.173  0.0628 -0.7642 -0.1783
  942SOL    HW1 4267   0.681   0.009   3.195  0.2849 -0.9400  0.0526
  942SOL    HW2 4268   0.829   0.035   3.217 -0.5296  1.6087  3.2043
  943SOL     OW 4269   1.606   7.309   5.185 -0.8028  0.3297 -0.4560
  943SOL    HW1 4270   1.522   7.351   5.204 -1.0958 -0.2056 -0.5443
  943SOL    HW2 4271   1.583   7.221   5.156 -0.1786 -0.0684  0.2163
  944SOL     OW 4272   5.237   0.109   0.881  0.3202 -0.2572  0.4430
  944SOL    HW1 4273   5.285   0.032   0.850 -1.6363 -0.8520 -1.3066
  944SOL    HW2 4274   5.266   0.180   0.824  0.0363 -0.3414  0.1925
  945SOL     OW 4275   5.860   6.142  12.071 -0.6926  0.2739 -0.0864
  945SOL    HW1 4276   5.804   6.068  12.092 -2.4990  1.9082  1.2563
  945SOL    HW2 4277   5.827   6.174  11.987 -0.4625  0.0513 -0.2616
  946SOL     OW 4278   5.173   5.235  11.634  0.1070 -0.3571  0.2986
  946SOL    HW1 4279   5.197   5.171  11.567  0.3534 -1.8213  1.7051
  946SOL    HW2 4280   5.116   5.186  11.694 -0.4756  1.0330  0.9076
  947SOL     OW 4281   4.503   3.123   9.469 -0.3469 -0.2237 -0.0920
  947SOL    HW1 4282   4.465   3.074   9.542 -0.1696  1.5993  1.3186
  947SOL    HW2 4283   4.591   3.087   9.460  0.3454  0.7473  1.9573
  948SOL     OW 4284   1.421   4.505   6.227 -0.0928  0.2526 -0.0739
  948SOL    HW1 4285   1.497   4.455   6.197  0.8615  0.2751  2.1124
  948SOL    HW2 4286   1.419   4.492   6.322 -3.6324 -0.8306 -0.1500
  949SOL     OW 4287   6.551   5.601   2.797 -0.1579  0.1467  0.5393
  949SOL    HW1 4288   6.619   5.585   2.732 -0.8360  0.7105 -0.3440
  949SOL    HW2 4289   6.584   5.674   2.850  0.2505 -0.0859  0.6051
  950SOL     OW 4290   3.605   0.829  10.694 -0.5520  0.0094  0.2343
  950SOL    HW1 4291   3.597   0.903  10.753  0.8838 -0.6474  1.2876
  950SOL    HW2 4292   3.571   0.754  10.744 -1.4870 -0.1640 -0.6224
  951SOL     OW 4293   6.581   3.522   3.463 -0.3853  0.2361  0.0110
  951SOL    HW1 4294   6.627   3.506   3.546 -0.8044 -0.0033  0.1971
  951SOL    HW2 4295   6.505   3.465   3.466 -0.3164  0.1104 -0.6167
  952SOL     OW 4296   5.915   6.266   4.575  0.5096  0.5099 -0.3398
  952SOL    HW1 4297   5.869   6.287   4.493 -1.4300  0.4327  0.6683
  952SOL    HW2 4298   5.921   6.350   4.621 -1.5062  0.0392  0.8928
  953SOL     OW 4299   2.492   7.340   1.445  0.0921  0.2392  0.3011
  953SOL    HW1 4300   2.438   7.305   1.516 -0.6448  1.1347  0.1991
  953SOL    HW2 4301   2.564   7.277   1.437  0.0583 -0.0102  1.6677
  954SOL     OW 4302   1.702   6.470   5.364  0.3652 -0.0926 -0.2722
  954SOL    HW1 4303   1.720   6.382   5.398  1.0520  0.2464  0.2737
  954SOL    HW2 4304   1.738   6.470   5.275 -0.7225 -0.7381 -0.7193
  955SOL     OW 4305   4.603   5.421   8.626  0.1999 -0.1802  0.0023
  955SOL    HW1 4306   4.508   5.419   8.632  0.1804  1.0680  0.2780
  955SOL    HW2 4307   4.630   5.335   8.658 -0.8529 -0.7616 -0.6127
  956SOL     OW 4308   0.184   0.012   6.707  0.4922  0.4031  0.1173
  956SOL    HW1 4309   0.166   0.072   6.780  0.2688  2.1409 -1.2908
  956SOL    HW2 4310   0.277  -0.007   6.714  0.7563  1.5996  0.1374
  957SOL     OW 4311   7.370   4.659   9.737 -0.1600  0.4707 -0.4893
  957SOL    HW1 4312   7.431   4.624   9.801 -1.5713 -0.1465  0.5743
  957SOL    HW2 4313   7.304   4.705   9.789 -1.4052 -0.1430 -1.4519
  958SOL     OW 4314   5.628   5.288   6.126 -0.5024 -0.1418  0.1296
  958SOL    HW1 4315   5.694   5.351   6.155  0.6058 -0.5287 -1.4384
  958SOL    HW2 4316   5.648   5.208   6.174  0.0545 -0.1988 -0.1934
  959SOL     OW 4317   7.088   2.083  10.348 -0.4304 -0.7356 -0.2437
  959SOL    HW1 4318   7.143   2.010  10.377  0.1183 -0.8309 -1.4927
  959SOL    HW2 4319   7.002   2.043  10.334 -0.5335 -0.8212  0.5436
  960SOL     OW 4320   2.115   7.955   0.737 -0.0432 -0.3731  0.2683
  960SOL    HW1 4321   2.153   8.042   0.749  0.7114 -0.5996 -0.4197
  960SOL    HW2 4322   2.070   7.960   0.653  1.6291 -1.1951 -0.7167
  961SOL     OW 4323   0.126   4.689   1.413 -0.1916 -0.0128 -0.0154
  961SOL    HW1 4324   0.166   4.628   1.352 -1.0675 -1.6492  0.9886
  961SOL    HW2 4325   0.034   4.663   1.418 -0.7462  1.7680  0.0124
  962SOL     OW 4326   5.950   5.358   7.098  0.3400 -0.2840 -0.0864
  962SOL    HW1 4327   5.926   5.372   7.006  1.7980  0.1680 -0.4190
  962SOL    HW2 4328   5.903   5.426   7.145  0.8970  0.5518 -0.7106
  963SOL     OW 4329   5.465   2.803   3.055  0.3728 -0.2502  0.5866
  963SOL    HW1 4330   5.373   2.789   3.031  0.2150  1.5809  0.0299
  963SOL    HW2 4331   5.514   2.753   2.990 -0.1936  0.4702 -0.4326
  964SOL     OW 4332   5.596   4.737   7.701  0.1763  0.2230 -0.0373
  964SOL    HW1 4333   5.679   4.758   7.658 -0.8912  1.5325 -1.5757
  964SOL    HW2 4334   5.605   4.773   7.789  1.1627  0.5268 -0.2455
  965SOL     OW 4335   3.357   5.539   6.055 -0.7860  0.4998  0.4678
  965SOL    HW1 4336   3.339   5.476   6.124 -0.9183 -0.4100 -0.3724
  965SOL    HW2 4337   3.285   5.602   6.060 -1.5350 -0.3279  0.2848
  966SOL     OW 4338   6.058   7.729  12.342 -0.2574 -0.5765  0.0687
  966SOL    HW1 4339   5.981   7.684  12.308 -0.0439 -0.8171 -0.1010
  966SOL    HW2 4340   6.059   7.707  12.436  0.0566 -1.2395 -0.0867
  967SOL     OW 4341   2.786   5.411   1.195  0.0828 -0.0927  0.3344
  967SOL    HW1 4342   2.718   5.448   1.139  0.4586 -1.2946 -0.9504
  967SOL    HW2 4343   2.859   5.473   1.188  1.0146 -1.3543 -2.4625
  968SOL     OW 4344   2.254   3.818   6.410  0.4988  0.0214  0.2609
  968SOL    HW1 4345   2.262   3.722   6.405  1.8000  0.1735 -1.2472
  968SOL    HW2 4346   2.279   3.848   6.323 -0.2676  1.7376  0.5998
  969SOL     OW 4347   1.677   5.938   5.645  0.4225 -0.0569  0.2511
  969SOL    HW1 4348   1.758   5.913   5.689 -0.0842 -1.6031  0.3624
  969SOL    HW2 4349   1.627   5.857   5.638  0.0969  0.2693 -2.3849
  970SOL     OW 4350   0.717   1.116   9.985  0.0535 -0.2029 -0.7025
  970SOL    HW1 4351   0.660   1.069  10.046  1.0626  0.5607  0.9073
  970SOL    HW2 4352   0.672   1.199   9.968  0.8677  0.6315  0.9935
  971SOL     OW 4353   2.763   1.212   8.427  0.6046  0.3456  0.0417
  971SOL    HW1 4354   2.731   1.166   8.504  1.7867  0.6038  0.7115
  971SOL    HW2 4355   2.823   1.150   8.385  1.0863  0.7403  0.1422
  972SOL     OW 4356   5.658   0.722   7.007 -0.3367 -0.1576 -0.2809
  972SOL    HW1 4357   5.620   0.782   6.942  0.9116  1.9464  0.8124
  972SOL    HW2 4358   5.582   0.682   7.049 -1.2378  0.7120 -1.0152
  973SOL     OW 4359   4.046   0.446  11.648  0.0306 -0.0033  0.4850
  973SOL    HW1 4360   4.125   0.453  11.701  0.4187 -0.4620 -0.0221
  973SOL    HW2 4361   3.979   0.494  11.698  0.8437  1.1972  0.4689
  974SOL     OW 4362   3.195   0.892   6.449  0.0533 -0.6002  0.4976
  974SOL    HW1 4363   3.221   0.886   6.357  1.2539  0.0057  0.7656
  974SOL    HW2 4364   3.259   0.838   6.495 -1.1195 -1.6771  0.8913
  975SOL     OW 4365   4.884   5.143  11.526 -0.3110  0.0230 -0.5119
  975SOL    HW1 4366   4.935   5.126  11.605 -1.6636  0.9869  0.6183
  975SOL    HW2 4367   4.900   5.066  11.471  0.5946 -0.7211  0.7167
  976SOL     OW 4368   6.248   1.643   9.400 -0.1271 -0.1436  0.2383
  976SOL    HW1 4369   6.265   1.675   9.489  0.0001 -0.6074  0.3784
  976SOL    HW2 4370   6.335   1.626   9.363 -0.1806  0.0250  0.0327
  977SOL     OW 4371   1.394   4.523   8.792  0.3940 -0.7208  0.1302
  977SOL    HW1 4372   1.323   4.477   8.837 -3.0153  1.5241 -2.3984
  977SOL    HW2 4373   1.388   4.613   8.825  1.1856 -0.1941 -1.1223
  978SOL     OW 4374   5.353   2.187  12.299 -0.0010  0.4254 -0.4049
  978SOL    HW1 4375   5.435   2.146  12.325  0.3090  0.0115 -1.9362
  978SOL    HW2 4376   5.286   2.121  12.317 -0.1531  1.0597  1.6152
  979SOL     OW 4377   2.664   7.351   3.715  0.0406  0.0719  0.2603
  979SOL    HW1 4378   2.642   7.383   3.803  1.0006  2.4188 -0.2651
  979SOL    HW2 4379   2.645   7.425   3.658  1.8926 -0.4840 -1.1685
  980SOL     OW 4380   7.350   2.452   0.957  0.4450  0.0669  0.0271
  980SOL    HW1 4381   7.398   2.403   1.024  0.4979 -0.7452 -0.5875
  980SOL    HW2 4382   7.287   2.390   0.922  2.2029 -0.4512 -2.5640
  981SOL     OW 4383   7.864   1.060   2.202 -0.1864 -0.2981  1.1951
  981SOL    HW1 4384   7.883   1.066   2.296  0.4351 -1.7696  1.1928
  981SOL    HW2 4385   7.939   1.102   2.160 -0.9417  1.2860  1.3369
  982SOL     OW 4386   6.162   3.146   9.254  0.1477 -0.4071  0.2410
  982SOL    HW1 4387   6.139   3.214   9.318 -1.4442  1.5125 -2.1999
  982SOL    HW2 4388   6.150   3.064   9.302 -0.0597  0.9212  2.6649
  983SOL     OW 4389   2.441   2.302   7.080  0.0754 -0.1737  0.2576
  983SOL    HW1 4390   2.422   2.389   7.047  3.4876  0.2810 -0.8816
  983SOL    HW2 4391   2.484   2.316   7.164  1.4169 -0.6669 -0.3212
  984SOL     OW 4392   0.372   1.083   0.813 -0.1195 -0.3207  0.2307
  984SOL    HW1 4393   0.344   1.174   0.802 -0.8584 -0.3792  1.4401
  984SOL    HW2 4394   0.413   1.060   0.730 -0.4854  0.9238 -0.3111
  985SOL     OW 4395   4.981   3.102  11.399 -0.3998  0.0469 -0.0826
  985SOL    HW1 4396   4.918   3.154  11.349 -0.5983  0.7279  0.8443
  985SOL    HW2 4397   5.048   3.164  11.426 -0.6608 -0.1476  1.0735
  986SOL     OW 4398   7.543   6.311  11.003  0.2143 -0.8199  0.2904
  986SOL    HW1 4399   7.521   6.404  11.011  0.3758 -0.7605  0.0464
  986SOL    HW2 4400   7.605   6.295  11.074 -1.2081 -1.1819  1.5203
  987SOL     OW 4401   1.167   5.426   9.278  0.3119  0.1517 -0.3075
  987SOL    HW1 4402   1.228   5.353   9.269  0.7508  0.7616 -2.9804
  987SOL    HW2 4403   1.123   5.433   9.193 -3.6636 -0.3120  1.4523
  988SOL     OW 4404   2.225   6.200   6.226 -0.6715  0.3692  0.0711
  988SOL    HW1 4405   2.202   6.220   6.135 -0.9966 -0.5614 -0.0619
  988SOL    HW2 4406   2.140   6.193   6.270 -0.6728 -2.0967 -0.2072
  989SOL     OW 4407   7.300   3.276   9.919 -0.0233 -0.0847  0.0241
  989SOL    HW1 4408   7.314   3.354   9.973  1.8226 -1.3695  1.5297
  989SOL    HW2 4409   7.276   3.208   9.982  0.5040 -1.2379 -1.0054
  990SOL     OW 4410   1.443   2.947  11.352 -0.2000  0.5921 -0.0844
  990SOL    HW1 4411   1.522   2.897  11.371 -1.4975 -1.3269  0.5940
  990SOL    HW2 4412   1.420   2.987  11.436 -1.9007 -1.9151  0.7899
  991SOL     OW 4413   0.467   3.482   2.927 -0.3814 -0.1117  0.1180
  991SOL    HW1 4414   0.423   3.398   2.936 -1.3096  0.3020 -0.3968
  991SOL    HW2 4415   0.517   3.493   3.008 -1.2107 -0.6027  0.7028
  992SOL     OW 4416   2.248   2.470   0.591 -0.5752  0.0029 -0.1353
  992SOL    HW1 4417   2.338   2.493   0.568 -0.1386 -1.1825  0.2681
  992SOL    HW2 4418   2.229   2.522   0.669 -1.3769  2.5799 -1.9271
  993SOL     OW 4419   2.480   3.831   4.650 -0.1570 -0.7423  0.9444
  993SOL    HW1 4420   2.413   3.816   4.584  0.4569  0.4237  0.0058
  993SOL    HW2 4421   2.453   3.911   4.694  0.5788 -0.2709  0.5714
  994SOL     OW 4422   1.502   2.144   5.091 -0.8347  0.0071  0.2562
  994SOL    HW1 4423   1.568   2.076   5.104  0.6983  1.6302  1.6613
  994SOL    HW2 4424   1.485   2.144   4.997  0.0364 -1.4833  0.0714
  995SOL     OW 4425   1.462   0.521  10.422  0.0764  0.0384 -0.0565
  995SOL    HW1 4426   1.418   0.498  10.340 -0.7365  0.5780  0.2142
  995SOL    HW2 4427   1.542   0.468  10.423 -0.1547 -0.3328 -0.9618
  996SOL     OW 4428   1.933   6.158   9.403  0.1962  0.4959  0.6030
  996SOL    HW1 4429   2.013   6.170   9.454  0.1659 -0.4569  0.8927
  996SOL    HW2 4430   1.959   6.106   9.328 -0.2751 -0.4447  1.0727
  997SOL     OW 4431   1.856   4.506  10.931 -0.3773  0.0847  0.0288
  997SOL    HW1 4432   1.846   4.597  10.902  0.4827  0.0209 -0.5319
  997SOL    HW2 4433   1.945   4.483  10.903 -0.5727 -0.9102  0.2188
  998SOL     OW 4434   2.931   7.961   0.089  0.2938 -0.0510  0.1425
  998SOL    HW1 4435   2.864   7.927   0.149  0.1094  1.4473  0.8107
  998SOL    HW2 4436   2.904   8.051   0.071  1.0572 -0.0683 -1.1836
  999SOL     OW 4437   1.518   5.565  11.479 -0.7271  0.0232 -0.1224
  999SOL    HW1 4438   1.532   5.541  11.571 -0.8069  1.4728  0.2868
  999SOL    HW2 4439   1.584   5.631  11.461  0.0460 -1.0754 -1.4845
 1000SOL     OW 4440   2.517   2.822   0.484  0.0985  0.2177  0.2500
 1000SOL    HW1 4441   2.457   2.896   0.487 -0.9443 -0.4655 -1.6667
 1000SOL    HW2 4442   2.586   2.850   0.423 -0.1081 -0.2327 -0.1996
 1001SOL     OW 4443   4.156   7.715   7.430  0.2679 -0.1090  0.0436
 1001SOL    HW1 4444   4.235   7.678   7.469  0.3972 -1.8974 -1.7730
 1001SOL    HW2 4445   4.114   7.761   7.502  0.2930 -3.4856  2.4376
 1002SOL     OW 4446   3.068   2.375   3.915 -0.1246  0.0962  0.3098
 1002SOL    HW1 4447   3.135   2.325   3.870  0.3648 -0.7834  1.9151
 1002SOL    HW2 4448   3.114   2.452   3.949 -0.2620  0.2525  0.1412
 1003SOL     OW 4449   4.680   6.461  10.990 -0.0060  0.5470 -0.0107
 1003SOL    HW1 4450   4.684   6.556  10.978 -2.1651  0.8027  0.7785
 1003SOL    HW2 4451   4.681   6.425  10.902  0.7851  1.2831 -0.3203
 1004SOL     OW 4452   1.836   5.163   4.894 -0.4780 -0.1225  0.4082
 1004SOL    HW1 4453   1.915   5.126   4.855 -1.0933  0.4189 -1.4211
 1004SOL    HW2 4454   1.869   5.225   4.960  0.6388  0.0945 -0.3224
 1005SOL     OW 4455   5.612   5.430   5.024 -0.3784  0.0386 -0.2353
 1005SOL    HW1 4456   5.647   5.440   4.936 -0.1037 -1.0384 -0.2645
 1005SOL    HW2 4457   5.523   5.465   5.019 -1.1969 -2.0305 -1.5347
 1006SOL     OW 4458   4.586   2.617  10.552  0.3731 -0.3852  0.3859
 1006SOL    HW1 4459   4.631   2.676  10.492 -1.1954  0.5398  0.0370
 1006SOL    HW2 4460   4.655   2.571  10.599  1.7195  2.4023  1.3393
 1007SOL     OW 4461   3.097   3.843   2.040 -0.4079 -0.1416 -0.5472
 1007SOL    HW1 4462   3.045   3.865   1.962 -1.1173  3.2061  0.7179
 1007SOL    HW2 4463   3.185   3.828   2.006 -0.8791  0.3631 -2.0955
 1008SOL     OW 4464   0.785   7.348  10.922  0.8378  0.3884 -0.4646
 1008SOL    HW1 4465   0.855   7.409  10.948  2.0351 -0.4671 -1.5577
 1008SOL    HW2 4466   0.783   7.354  10.827  0.4159 -0.7072 -0.5309
 1009SOL     OW 4467   6.886   5.348   6.939  0.0031  0.2665  0.1564
 1009SOL    HW1 4468   6.873   5.440   6.916 -1.5093  0.0555  0.0833
 1009SOL    HW2 4469   6.864   5.344   7.032 -2.1968 -0.4082 -0.3461
 1010SOL     OW 4470   2.549   6.674  10.735  0.2901 -0.5388 -0.5116
 1010SOL    HW1 4471   2.475   6.701  10.681  0.7340  0.3361 -0.7119
 1010SOL    HW2 4472   2.625   6.713  10.692  0.4952  1.7998  1.7020
 1011SOL     OW 4473   7.064   1.157   3.420  0.2086 -0.3439  0.7483
 1011SOL    HW1 4474   7.057   1.090   3.488  0.2545 -0.2669  0.8290
 1011SOL    HW2 4475   7.109   1.113   3.348  2.5197  0.2856  1.7152
 1012SOL     OW 4476   1.830   1.258   6.406  0.1905  0.0667 -0.3491
 1012SOL    HW1 4477   1.810   1.304   6.325  0.3108  0.4578 -0.1583
 1012SOL    HW2 4478   1.746   1.221   6.434  0.2574 -0.5448 -0.9442
 1013SOL     OW 4479   1.549   3.837   3.133  0.2217 -0.1565 -0.1513
 1013SOL    HW1 4480   1.549   3.913   3.192 -0.6778 -0.9468  0.9190
 1013SOL    HW2 4481   1.554   3.874   3.045 -1.2456  1.2074  0.2985
 1014SOL     OW 4482   1.274   3.893   4.228  0.3710 -0.0392  0.2041
 1014SOL    HW1 4483   1.339   3.830   4.258  0.0850 -0.4008  0.0708
 1014SOL    HW2 4484   1.211   3.900   4.300 -0.6856 -1.4148 -0.5294
 1015SOL     OW 4485   4.718   2.827   2.178  0.1925 -0.0902 -0.4360
 1015SOL    HW1 4486   4.783   2.897   2.171  0.7133 -0.4411  0.6089
 1015SOL    HW2 4487   4.716   2.806   2.272  0.4619 -1.8610 -0.7991
 1016SOL     OW 4488   1.169   7.366   4.656 -0.4860 -0.4007 -0.3945
 1016SOL    HW1 4489   1.234   7.314   4.704 -1.3013  0.3809  1.6656
 1016SOL    HW2 4490   1.112   7.300   4.615 -0.0765 -1.1089  0.1426
 1017SOL     OW 4491   5.610   7.395   6.600  0.3401  0.2823  0.2816
 1017SOL    HW1 4492   5.548   7.366   6.533 -0.2776  1.4273  0.3333
 1017SOL    HW2 4493   5.688   7.422   6.550 -0.2214  1.3982 -0.0224
 1018SOL     OW 4494   0.395   5.326   1.576  0.8750 -0.0179 -0.4895
 1018SOL    HW1 4495   0.311   5.320   1.531  0.6123 -2.5788  0.1938
 1018SOL    HW2 4496   0.460   5.321   1.506  0.6104  3.7322 -1.2139
 1019SOL     OW 4497   2.383   2.842   2.608 -0.2290 -0.2592  0.4274
 1019SOL    HW1 4498   2.307   2.894   2.584 -0.9539 -1.7204 -0.5970
 1019SOL    HW2 4499   2.352   2.751   2.609  1.6074 -0.9774 -0.6861
 1020SOL     OW 4500   5.011   0.528   1.316 -0.1478 -0.4898  0.4276
 1020SOL    HW1 4501   5.001   0.536   1.221 -0.1325 -0.8949  0.3932
 1020SOL    HW2 4502   5.041   0.438   1.330 -1.0310 -0.7235  0.8825
 1021SOL     OW 4503   6.739   7.892   6.786  0.2070  0.1629 -0.6304
 1021SOL    HW1 4504   6.715   7.800   6.773 -1.5275  0.2247  1.4979
 1021SOL    HW2 4505   6.660   7.940   6.759  0.3385  0.8702  0.2183
 1022SOL     OW 4506   6.670   4.817   6.770 -0.0102 -0.1987  0.0919
 1022SOL    HW1 4507   6.605   4.847   6.707  0.2964 -0.0981 -0.1796
 1022SOL    HW2 4508   6.726   4.894   6.785 -1.1719  0.3831  1.9187
 1023SOL     OW 4509   5.880   4.768   8.978  0.1395  0.3726  0.7043
 1023SOL    HW1 4510   5.786   4.748   8.986 -0.1932  1.8270  0.8105
 1023SOL    HW2 4511   5.900   4.819   9.057  0.7908  0.8720  0.2274
 1024SOL     OW 4512   7.533   5.856   1.840 -0.0842  0.1817  0.0246
 1024SOL    HW1 4513   7.488   5.898   1.768 -0.0116  1.1474  0.5307
 1024SOL    HW2 4514   7.577   5.781   1.800 -0.3669  0.4758 -0.8543
 1025SOL     OW 4515   7.074   1.273   0.164 -0.0091  0.3512 -0.2223
 1025SOL    HW1 4516   6.995   1.314   0.199 -0.8375 -1.2025 -0.1915
 1025SOL    HW2 4517   7.070   1.289   0.070 -1.8762 -2.0804 -0.6342
 1026SOL     OW 4518   2.834   6.197   5.694 -0.1398 -0.3283  0.0518
 1026SOL    HW1 4519   2.758   6.146   5.666 -0.6959  1.0376 -1.0387
 1026SOL    HW2 4520   2.900   6.180   5.627 -0.2718  0.2413 -0.2266
 1027SOL     OW 4521   0.081   5.636   8.009 -0.0096  0.0347  0.2586
 1027SOL    HW1 4522   0.070   5.550   8.048  0.3916  0.6533  1.8134
 1027SOL    HW2 4523   0.088   5.620   7.915 -0.5480 -1.5568  0.4762
 1028SOL     OW 4524   5.800   3.706   2.312 -0.1476 -0.6667 -0.5096
 1028SOL    HW1 4525   5.787   3.720   2.219  0.0750 -1.0657 -0.6014
 1028SOL    HW2 4526   5.815   3.794   2.348 -0.5498 -0.4784 -0.7941
 1029SOL     OW 4527   3.934   4.695  11.541 -0.2550 -0.2160 -0.8169
 1029SOL    HW1 4528   3.956   4.783  11.571  0.3167 -0.3255 -0.9088
 1029SOL    HW2 4529   4.017   4.648  11.539 -0.5401 -0.7323 -0.8633
 1030SOL     OW 4530   4.680   4.930  11.668 -0.1779 -0.5727 -0.0910
 1030SOL    HW1 4531   4.693   4.899  11.758 -1.2297  1.3136  0.7795
 1030SOL    HW2 4532   4.663   5.024  11.677 -1.1045 -0.4720 -2.1930
 1031SOL     OW 4533   6.250   5.221  10.463 -0.0184 -0.5188  0.2959
 1031SOL    HW1 4534   6.336   5.207  10.503 -0.1473 -1.4345  0.2810
 1031SOL    HW2 4535   6.234   5.314  10.474 -0.2438 -0.7649  2.8122
 1032SOL     OW 4536   7.434   0.045   3.707  0.0023 -0.0092 -0.1988
 1032SOL    HW1 4537   7.462  -0.012   3.635  0.9664  0.5909 -0.3099
 1032SOL    HW2 4538   7.364   0.098   3.669  0.1766 -0.0302 -0.5518
 1033SOL     OW 4539   5.619   0.313   2.234  0.3238 -0.1379 -0.1512
 1033SOL    HW1 4540   5.629   0.394   2.184  1.4973 -0.5897 -0.6837
 1033SOL    HW2 4541   5.529   0.286   2.219  0.0943  0.7732 -0.4347
 1034SOL     OW 4542   4.859   0.972  10.475  0.0643  0.4200  0.0924
 1034SOL    HW1 4543   4.869   0.913  10.400  1.3545 -1.1855  1.4636
 1034SOL    HW2 4544   4.935   1.030  10.469  0.5396 -0.1479  0.5111
 1035SOL     OW 4545   6.291   5.652   0.665 -0.2088  0.1167 -0.0321
 1035SOL    HW1 4546   6.269   5.725   0.608  2.0704 -0.4492 -1.7983
 1035SOL    HW2 4547   6.246   5.577   0.626 -1.5895  0.3252  1.0934
 1036SOL     OW 4548   3.364   4.786   1.531 -0.4500 -0.3314  0.3436
 1036SOL    HW1 4549   3.364   4.695   1.500  1.0553 -0.6633  1.2403
 1036SOL    HW2 4550   3.308   4.832   1.468 -0.7326 -1.7471 -0.4942
 1037SOL     OW 4551   2.937   0.088   5.829 -0.3159 -0.3787 -0.4729
 1037SOL    HW1 4552   2.933   0.065   5.922  2.5524  1.1528  0.1366
 1037SOL    HW2 4553   3.024   0.060   5.801 -0.8758 -0.2130 -2.5757
 1038SOL     OW 4554   4.184   5.980   9.672  0.2415 -0.3531  0.2281
 1038SOL    HW1 4555   4.161   6.019   9.588 -2.0855  0.6889  1.2728
 1038SOL    HW2 4556   4.254   5.918   9.651 -0.5248 -0.4116 -2.5221
 1039SOL     OW 4557   1.353   3.058   6.480 -0.5185  0.4545  0.0712
 1039SOL    HW1 4558   1.420   2.989   6.480  0.2680  1.1455  2.1373
 1039SOL    HW2 4559   1.296   3.036   6.406  0.4282 -1.6808 -0.0987
 1040SOL     OW 4560   7.425   1.346   3.010 -0.0422  0.4137 -0.2012
 1040SOL    HW1 4561   7.475   1.333   3.091 -0.0582  1.7580  0.0514
 1040SOL    HW2 4562   7.460   1.282   2.949 -0.4994 -1.1110  1.0730
 1041SOL     OW 4563   0.403   3.855  10.843  0.6802 -0.0457  0.0504
 1041SOL    HW1 4564   0.465   3.891  10.906 -0.9499 -1.0808  2.3981
 1041SOL    HW2 4565   0.326   3.911  10.850 -0.0324 -0.9895  0.0308
 1042SOL     OW 4566   7.344   1.903   0.344 -0.0046 -0.6765 -0.0640
 1042SOL    HW1 4567   7.312   1.833   0.287  1.8524 -1.1625 -0.6001
 1042SOL    HW2 4568   7.315   1.878   0.431 -0.7080 -1.2772 -0.4586
 1043SOL     OW 4569   2.961   0.922   0.018  0.2342 -0.1574  0.6912
 1043SOL    HW1 4570   2.895   0.903   0.086 -0.2641  2.5052  1.0548
 1043SOL    HW2 4571   3.038   0.949   0.067  1.7613 -3.2333  0.2628
 1044SOL     OW 4572   3.557   4.052   2.267  0.7722  0.3036 -0.1783
 1044SOL    HW1 4573   3.633   4.052   2.209  0.4559 -1.4991 -0.6515
 1044SOL    HW2 4574   3.541   3.959   2.286 -0.2239  0.7450  1.3628
 1045SOL     OW 4575   7.207   6.963   2.386 -0.0385 -0.0930  0.7389
 1045SOL    HW1 4576   7.288   6.913   2.376 -0.0566 -0.4342  2.0950
 1045SOL    HW2 4577   7.187   6.995   2.298 -0.8534 -3.6711 -0.5058
 1046SOL     OW 4578   3.394   2.407   7.525  0.1019 -0.3076  0.4474
 1046SOL    HW1 4579   3.367   2.496   7.550  1.1167  0.0396  0.3304
 1046SOL    HW2 4580   3.484   2.399   7.556 -0.3489 -1.7275  1.5210
 1047SOL     OW 4581   0.053   1.665   6.734  0.8488 -0.2830 -0.2815
 1047SOL    HW1 4582  -0.033   1.695   6.706 -0.4281 -2.3091  1.2308
 1047SOL    HW2 4583   0.092   1.624   6.657 -0.3856 -1.0983 -0.4879
 1048SOL     OW 4584   5.745   4.649   0.287 -0.6571  0.1708  0.7196
 1048SOL    HW1 4585   5.762   4.591   0.214 -4.1746  0.3029 -0.3758
 1048SOL    HW2 4586   5.798   4.727   0.269 -0.1608 -0.4867 -0.7680
 1049SOL     OW 4587   3.214   6.118   4.860 -0.2168 -0.3300 -0.3620
 1049SOL    HW1 4588   3.224   6.113   4.955 -0.0494  0.3803 -0.3419
 1049SOL    HW2 4589   3.126   6.085   4.843 -0.0434 -0.9959 -0.0154
 1050SOL     OW 4590   4.952   1.995  11.698  0.0284  0.0458 -0.7019
 1050SOL    HW1 4591   4.899   1.942  11.757  0.1417 -0.2091 -0.8253
 1050SOL    HW2 4592   5.031   1.942  11.683 -0.0819  0.0281 -1.2282
 1051SOL     OW 4593   1.817   6.919   3.551 -0.5437 -0.4133  0.2976
 1051SOL    HW1 4594   1.872   6.868   3.491  0.0095  0.3129  0.1728
 1051SOL    HW2 4595   1.779   6.854   3.609  1.1698 -0.8701  0.9779
 1052SOL     OW 4596   4.332   6.603   7.026 -0.0814 -0.2757  0.0288
 1052SOL    HW1 4597   4.413   6.655   7.025 -0.5404  0.4837  0.6413
 1052SOL    HW2 4598   4.335   6.552   6.945  0.1065  1.1781 -0.9275
 1053SOL     OW 4599   7.386   7.632   2.372 -0.1544 -0.6658  0.2115
 1053SOL    HW1 4600   7.413   7.602   2.459  1.1467 -0.0183  0.0551
 1053SOL    HW2 4601   7.460   7.685   2.341 -0.4184 -1.2204 -1.4628
 1054SOL     OW 4602   4.970   3.952   0.866  0.1436  0.4516  0.2969
 1054SOL    HW1 4603   4.911   3.888   0.906  1.1034 -0.8331 -0.2737
 1054SOL    HW2 4604   5.018   3.990   0.939 -0.1810  0.2685  0.6105
 1055SOL     OW 4605   6.920   3.501   5.519  0.5636 -0.2501 -0.5350
 1055SOL    HW1 4606   6.888   3.533   5.435  1.7795 -2.1349 -1.8001
 1055SOL    HW2 4607   6.841   3.477   5.567 -0.1867  1.5253 -0.8165
 1056SOL     OW 4608   7.848   3.207  10.395 -0.3424  0.2474  0.3057
 1056SOL    HW1 4609   7.832   3.184  10.303  1.5257  0.6506 -0.1646
 1056SOL    HW2 4610   7.868   3.123  10.437 -0.2819  0.1729  0.1327
 1057SOL     OW 4611   0.233   7.023   0.888 -0.0274 -0.2846  0.8972
 1057SOL    HW1 4612   0.170   7.095   0.892 -0.2063 -0.4509  1.1412
 1057SOL    HW2 4613   0.289   7.044   0.813 -1.1578 -0.7739 -0.1203
 1058SOL     OW 4614   0.733   3.213   2.752  0.0728 -0.0843  0.4133
 1058SOL    HW1 4615   0.767   3.137   2.705 -0.0400 -0.0884  0.3381
 1058SOL    HW2 4616   0.700   3.271   2.683 -0.3277 -0.2056  0.5022
 1059SOL     OW 4617   3.867   0.445   8.391  0.3834 -0.4014  0.3068
 1059SOL    HW1 4618   3.897   0.354   8.391  0.9824 -0.2033  0.0149
 1059SOL    HW2 4619   3.882   0.476   8.480 -1.1863 -1.0312  0.8172
 1060SOL     OW 4620   0.211   3.568   8.943  0.4224 -0.7499  0.5705
 1060SOL    HW1 4621   0.191   3.564   9.036 -0.8306 -1.0463  0.3162
 1060SOL    HW2 4622   0.225   3.477   8.917 -1.3616 -0.9337  0.0799
 1061SOL     OW 4623   7.729   7.221   5.436  0.0242  0.1050  0.5516
 1061SOL    HW1 4624   7.712   7.222   5.530  2.6132  0.0399  1.0984
 1061SOL    HW2 4625   7.785   7.298   5.421 -0.6888  0.3508 -1.0306
 1062SOL     OW 4626   1.967   1.434   6.874  0.6878  0.3556 -0.7033
 1062SOL    HW1 4627   1.982   1.382   6.795  0.8027 -0.9965  0.1863
 1062SOL    HW2 4628   2.045   1.421   6.928  0.5065  1.0690 -0.2491
 1063SOL     OW 4629   6.112   6.175   2.768  0.3413  0.0227  0.3389
 1063SOL    HW1 4630   6.064   6.122   2.704 -0.8194  0.8490  0.4934
 1063SOL    HW2 4631   6.204   6.163   2.744 -0.0465  0.1992 -1.4074
 1064SOL     OW 4632   2.758   1.878   3.356 -0.5240  0.0227  0.3182
 1064SOL    HW1 4633   2.760   1.889   3.451  2.3757 -0.7894  0.4259
 1064SOL    HW2 4634   2.758   1.967   3.322 -0.8342  0.3159  1.0621
 1065SOL     OW 4635   6.729   7.147  12.337 -0.2175 -0.9407 -0.1639
 1065SOL    HW1 4636   6.793   7.209  12.303  0.2759 -0.9719  0.6866
 1065SOL    HW2 4637   6.680   7.118  12.259 -0.9097  0.9931 -0.5012
 1066SOL     OW 4638   0.574   6.632   0.248  0.1469  0.5456 -0.2930
 1066SOL    HW1 4639   0.504   6.607   0.309 -1.0582  0.7151 -1.5633
 1066SOL    HW2 4640   0.637   6.560   0.252 -1.1766 -0.6760 -0.7321
 1067SOL     OW 4641   2.327   6.182   9.997  0.0579 -0.5294 -0.2988
 1067SOL    HW1 4642   2.348   6.223  10.081 -0.7921 -0.1615 -0.2546
 1067SOL    HW2 4643   2.241   6.143  10.010 -0.5788  0.4506 -1.3018
 1068SOL     OW 4644   5.950   2.881   4.540 -0.3418 -1.1394 -0.1926
 1068SOL    HW1 4645   5.913   2.945   4.600  0.8408 -0.4508 -0.1697
 1068SOL    HW2 4646   6.025   2.843   4.587 -1.0302 -2.5662 -0.1966
 1069SOL     OW 4647   7.240   0.702   7.077 -0.4869  0.0602 -0.1130
 1069SOL    HW1 4648   7.320   0.719   7.126  0.4208  0.0198 -1.5323
 1069SOL    HW2 4649   7.262   0.628   7.020 -0.7556  1.5080 -2.1984
 1070SOL     OW 4650   4.718   4.155  11.226  0.2807 -0.0289  0.2779
 1070SOL    HW1 4651   4.803   4.197  11.211  0.4201 -0.4997 -0.2548
 1070SOL    HW2 4652   4.724   4.119  11.314  0.2799  0.7708  0.6179
 1071SOL     OW 4653   1.144   7.227   4.124 -0.2768  0.1138  0.0094
 1071SOL    HW1 4654   1.064   7.207   4.075 -0.0669 -1.0589  0.1163
 1071SOL    HW2 4655   1.140   7.170   4.200  0.8838 -0.2997 -0.2298
 1072SOL     OW 4656   2.824   0.956   7.899 -0.1874 -0.1232 -0.3912
 1072SOL    HW1 4657   2.808   0.956   7.805  1.3775 -0.5757 -0.6872
 1072SOL    HW2 4658   2.819   0.864   7.925 -0.7522  0.0120  0.0022
 1073SOL     OW 4659   0.939   0.047  10.954 -0.0077  0.2234 -0.2309
 1073SOL    HW1 4660   0.932   0.081  11.043 -0.6078  2.2596 -0.9846
 1073SOL    HW2 4661   1.027   0.011  10.948  1.3700  3.1901  0.2498
 1074SOL     OW 4662   1.960   2.680   7.756  0.0926 -0.1658  0.2027
 1074SOL    HW1 4663   1.903   2.753   7.732  0.6702 -0.0376 -0.8567
 1074SOL    HW2 4664   2.046   2.704   7.722  0.2610 -1.4002 -0.3213
 1075SOL     OW 4665   2.241   0.971  11.522  0.0474 -0.3622  0.0107
 1075SOL    HW1 4666   2.167   0.925  11.483  1.2554 -0.8281 -1.8823
 1075SOL    HW2 4667   2.249   0.935  11.610 -1.5426 -0.7885 -0.0047
 1076SOL     OW 4668   0.282   4.235  11.088  0.0287  0.7300 -0.4412
 1076SOL    HW1 4669   0.344   4.209  11.157  0.7688 -2.1536 -1.9990
 1076SOL    HW2 4670   0.222   4.296  11.130  0.7940 -0.4503  2.5794
 1077SOL     OW 4671   7.871   5.918   1.803  0.6697  0.4009  0.4608
 1077SOL    HW1 4672   7.875   5.843   1.863 -0.7959 -0.3652 -0.3403
 1077SOL    HW2 4673   7.803   5.894   1.740  1.3183  1.7111 -0.7868
 1078SOL     OW 4674   6.821   0.498   6.371  0.1167 -0.8804  0.1390
 1078SOL    HW1 4675   6.759   0.570   6.366 -0.2995 -1.1707  0.9864
 1078SOL    HW2 4676   6.838   0.474   6.279  0.3045  0.3167 -0.1529
 1079SOL     OW 4677   6.843   2.024   8.184  0.0393  0.0495  0.1251
 1079SOL    HW1 4678   6.939   2.029   8.188  0.0976 -1.5091  1.7673
 1079SOL    HW2 4679   6.814   2.112   8.206  1.0937  0.3852  0.2320
 1080SOL     OW 4680   2.907   4.935   2.242  0.0402 -0.3856 -0.2470
 1080SOL    HW1 4681   2.953   4.944   2.159  0.2678  0.2506 -0.0551
 1080SOL    HW2 4682   2.971   4.895   2.301  0.5464  0.9852  0.1685
 1081SOL     OW 4683   3.384   1.390   3.649 -0.3962 -0.1678  0.0004
 1081SOL    HW1 4684   3.359   1.338   3.573 -1.5576 -1.2825  1.0966
 1081SOL    HW2 4685   3.459   1.345   3.687 -0.9732 -0.6596  0.5611
 1082SOL     OW 4686   6.828   3.524   3.301  0.2813 -0.1256 -0.0987
 1082SOL    HW1 4687   6.896   3.514   3.368 -0.8691 -0.4576  1.0517
 1082SOL    HW2 4688   6.746   3.520   3.349 -0.5694  0.4943 -1.4379
 1083SOL     OW 4689   0.686   7.427   3.539 -0.3555 -0.2978  0.3038
 1083SOL    HW1 4690   0.633   7.414   3.617 -2.0000  0.8026 -0.5606
 1083SOL    HW2 4691   0.645   7.502   3.494  2.4301  1.1620 -0.0240
 1084SOL     OW 4692   7.447   6.418  12.311 -0.0814 -0.1221 -0.7617
 1084SOL    HW1 4693   7.542   6.423  12.320 -0.2819  2.2458  0.8390
 1084SOL    HW2 4694   7.432   6.417  12.217  1.5221 -0.1263 -1.0424
 1085SOL     OW 4695   4.809   2.458   3.945  0.1792 -0.1774 -0.2391
 1085SOL    HW1 4696   4.783   2.410   3.866  0.1758  1.2438 -1.1450
 1085SOL    HW2 4697   4.905   2.465   3.937  0.0038  1.6714 -1.1820
 1086SOL     OW 4698   5.976   1.473  11.835  0.2156  0.0814 -0.1907
 1086SOL    HW1 4699   6.000   1.381  11.828  1.9688  0.3650  1.3827
 1086SOL    HW2 4700   5.972   1.504  11.744 -0.0146 -1.4292 -0.7122
 1087SOL     OW 4701   1.623   4.952   6.408  0.3180  0.0431 -0.0392
 1087SOL    HW1 4702   1.529   4.948   6.424 -0.0582 -0.8200 -2.1049
 1087SOL    HW2 4703   1.652   4.861   6.410  1.0461  0.2771  0.2696
 1088SOL     OW 4704   7.658   7.275   9.877  0.1921 -0.6438 -0.0606
 1088SOL    HW1 4705   7.635   7.195   9.829  0.0310 -0.8459  0.3502
 1088SOL    HW2 4706   7.668   7.342   9.809  1.0972 -1.1878 -0.4856
 1089SOL     OW 4707   2.695   5.445   1.558 -0.1708 -0.5744 -0.6276
 1089SOL    HW1 4708   2.762   5.514   1.556  0.4371 -1.1629 -0.7897
 1089SOL    HW2 4709   2.637   5.466   1.485 -0.2684  0.0342 -0.3841
 1090SOL     OW 4710   5.131   3.705   5.688 -0.6033  0.6904  0.0536
 1090SOL    HW1 4711   5.134   3.616   5.653 -1.3387  0.8681 -0.4867
 1090SOL    HW2 4712   5.086   3.696   5.772  0.6222  0.3540  0.7029
 1091SOL     OW 4713   2.986   7.001  12.321 -0.2842 -0.8695 -0.2982
 1091SOL    HW1 4714   2.898   6.962  12.323 -0.9017  0.4847  0.4516
 1091SOL    HW2 4715   3.043   6.929  12.294 -1.6907 -1.6366 -1.3988
 1092SOL     OW 4716   7.555   2.809   4.937  0.9253 -0.0775  0.3488
 1092SOL    HW1 4717   7.567   2.860   5.017  1.8561  1.6728 -0.8368
 1092SOL    HW2 4718   7.469   2.770   4.946  0.6535  0.7863  1.8269
 1093SOL     OW 4719   7.603   4.835   4.952 -0.2216  0.2983  0.0332
 1093SOL    HW1 4720   7.538   4.785   4.904 -0.3768 -0.3545  0.9015
 1093SOL    HW2 4721   7.646   4.889   4.885 -1.2503  0.3181 -0.6379
 1094SOL     OW 4722   5.452   3.975   7.509  0.4263 -0.1444 -0.8990
 1094SOL    HW1 4723   5.407   4.054   7.480 -0.8086  0.3599  2.0227
 1094SOL    HW2 4724   5.512   4.005   7.577  0.5759 -1.5761 -0.3573
 1095SOL     OW 4725   3.857   7.465   2.868 -0.2370  0.0685 -0.2628
 1095SOL    HW1 4726   3.885   7.480   2.778  1.3259 -1.7204 -0.1380
 1095SOL    HW2 4727   3.780   7.409   2.860 -0.4062  0.3306 -0.4861
 1096SOL     OW 4728   4.989   4.166   0.692 -0.1098 -0.4070  0.5463
 1096SOL    HW1 4729   4.901   4.204   0.689  0.4544  0.9743  0.5672
 1096SOL    HW2 4730   4.974   4.072   0.704 -1.5658 -0.0952  1.5178
 1097SOL     OW 4731   2.192   4.645   9.125  0.5859 -0.0905  1.1049
 1097SOL    HW1 4732   2.198   4.550   9.112 -0.3999 -0.2161  1.5100
 1097SOL    HW2 4733   2.181   4.681   9.037 -0.7516 -0.5066  1.0766
 1098SOL     OW 4734   6.833   7.267   8.761  0.6919  0.1319  0.1866
 1098SOL    HW1 4735   6.750   7.265   8.712 -0.8817 -0.4064  2.6672
 1098SOL    HW2 4736   6.842   7.179   8.796  2.2875  0.2231  0.0699
 1099SOL     OW 4737   1.905   4.555  12.288 -0.3695 -0.1799 -0.2857
 1099SOL    HW1 4738   1.951   4.568  12.205  0.4819  0.0357  0.1964
 1099SOL    HW2 4739   1.821   4.517  12.264 -0.9460  1.6869 -1.3950
 1100SOL     OW 4740   1.884   0.874   7.763  0.6563  0.2184  0.4978
 1100SOL    HW1 4741   1.895   0.968   7.777  0.1562  0.3226  0.2174
 1100SOL    HW2 4742   1.792   0.864   7.738  0.7471 -0.3262  0.3684
 1101SOL     OW 4743   7.332   1.477   5.205 -0.4552  0.0173  0.8405
 1101SOL    HW1 4744   7.270   1.545   5.178 -1.2172 -0.7600  0.5753
 1101SOL    HW2 4745   7.310   1.460   5.296  1.1210  1.5717  1.5754
 1102SOL     OW 4746   7.543   5.116   2.502  0.1794 -0.1009 -0.2032
 1102SOL    HW1 4747   7.467   5.088   2.452  0.5849  0.0684 -0.9239
 1102SOL    HW2 4748   7.618   5.084   2.452  0.5816 -0.7324  0.7760
 1103SOL     OW 4749   5.459   4.051   9.337 -0.3593  0.4611 -0.3916
 1103SOL    HW1 4750   5.487   4.096   9.257  0.7734 -0.5084 -0.5469
 1103SOL    HW2 4751   5.517   3.976   9.345 -0.3252  0.6366  1.4549
 1104SOL     OW 4752   0.963   1.804   2.164  0.0775  0.1659 -1.2503
 1104SOL    HW1 4753   0.936   1.881   2.216 -0.1297 -1.1551  0.7218
 1104SOL    HW2 4754   0.895   1.796   2.097 -1.0037  0.5800 -0.2487
 1105SOL     OW 4755   4.182   0.348   5.203 -0.0160  0.0072  0.1312
 1105SOL    HW1 4756   4.239   0.273   5.187  0.1479  0.1789 -0.1042
 1105SOL    HW2 4757   4.101   0.327   5.156 -0.2661 -0.3740  0.7176
 1106SOL     OW 4758   5.831   7.056  10.934 -0.4870 -0.3936  0.0127
 1106SOL    HW1 4759   5.785   7.113  10.872  0.3610  0.9533  0.5799
 1106SOL    HW2 4760   5.894   7.008  10.880  0.0097  0.5203 -0.2237
 1107SOL     OW 4761   7.898   7.224   1.406 -0.1665  0.1566  0.1208
 1107SOL    HW1 4762   7.893   7.177   1.490  0.7853 -0.6637 -0.2594
 1107SOL    HW2 4763   7.977   7.190   1.365  0.3823  1.8890 -0.3300
 1108SOL     OW 4764   5.889   1.886   7.632 -0.3736  0.0708  0.2144
 1108SOL    HW1 4765   5.823   1.945   7.668 -1.5236 -0.4932 -0.9290
 1108SOL    HW2 4766   5.841   1.826   7.576  1.0063 -0.8749 -0.0186
 1109SOL     OW 4767   2.916   0.287  10.771 -0.3576  0.7096 -0.1034
 1109SOL    HW1 4768   2.964   0.205  10.755 -0.2326  0.9260 -0.8926
 1109SOL    HW2 4769   2.906   0.291  10.866  1.0148  0.5436  0.0749
 1110SOL     OW 4770   0.145   1.262   4.738 -0.6840  0.0393 -0.4823
 1110SOL    HW1 4771   0.150   1.167   4.731 -2.6090 -0.1309 -0.2221
 1110SOL    HW2 4772   0.178   1.294   4.654 -1.7750 -0.9610 -1.3171
 1111SOL     OW 4773   0.696   1.676   4.418 -0.4077 -0.0148 -0.8476
 1111SOL    HW1 4774   0.618   1.732   4.423 -2.3418 -2.5316 -0.6596
 1111SOL    HW2 4775   0.688   1.618   4.493  1.9920 -0.0232 -0.5375
 1112SOL     OW 4776   4.021   4.632  12.426  0.2123 -0.1013  0.0282
 1112SOL    HW1 4777   4.072   4.561  12.466 -2.2813 -0.2969  3.2797
 1112SOL    HW2 4778   3.948   4.645  12.485 -1.9571  2.1484 -2.8448
 1113SOL     OW 4779   3.252   0.850   4.912 -0.0542  0.3859  0.2506
 1113SOL    HW1 4780   3.264   0.833   4.819  2.2621 -1.8380  0.8414
 1113SOL    HW2 4781   3.330   0.900   4.937 -0.6944  1.0415  0.9984
 1114SOL     OW 4782   3.121   0.989  10.251  0.0645 -0.1814  0.5827
 1114SOL    HW1 4783   3.111   0.905  10.205  0.6449 -0.3819  0.8103
 1114SOL    HW2 4784   3.036   1.032  10.242 -0.0804 -0.5776  0.0288
 1115SOL     OW 4785   3.707   5.478   3.251 -0.6828  0.0051 -0.3192
 1115SOL    HW1 4786   3.685   5.509   3.162  0.6743  0.9977 -0.3357
 1115SOL    HW2 4787   3.649   5.530   3.308 -0.8755  0.0626 -0.5617
 1116SOL     OW 4788   0.084   4.404   5.490  0.2745  0.1855 -0.4087
 1116SOL    HW1 4789   0.016   4.384   5.425  0.1584  0.5391 -0.3979
 1116SOL    HW2 4790   0.103   4.319   5.531  0.0968  0.0218 -0.6596
 1117SOL     OW 4791   7.619   0.802   6.168  0.1605  0.8878  0.4915
 1117SOL    HW1 4792   7.691   0.746   6.197  1.1259  1.3558 -0.8786
 1117SOL    HW2 4793   7.660   0.885   6.146 -1.0174  1.6261  0.9571
 1118SOL     OW 4794   4.717   1.016   1.958 -0.2932  0.2062 -0.1364
 1118SOL    HW1 4795   4.735   1.064   2.038  0.8380 -0.0400 -0.2326
 1118SOL    HW2 4796   4.778   0.942   1.960 -1.0794 -0.4791 -0.6430
 1119SOL     OW 4797   3.765   1.649   1.297 -0.5623  0.6442  0.1137
 1119SOL    HW1 4798   3.727   1.737   1.293 -0.9921  0.4141 -2.3053
 1119SOL    HW2 4799   3.816   1.641   1.216  1.4934 -0.4801  1.4342
 1120SOL     OW 4800   0.931   4.721   4.329  0.5638 -0.8085 -0.8334
 1120SOL    HW1 4801   0.945   4.790   4.394  0.5556 -1.0087 -0.6201
 1120SOL    HW2 4802   0.994   4.741   4.259 -0.1011 -0.0169 -1.2333
 1121SOL     OW 4803   2.867   5.159  11.557  0.1938 -0.2919 -0.0707
 1121SOL    HW1 4804   2.813   5.237  11.562 -0.2099 -0.5490 -0.3782
 1121SOL    HW2 4805   2.868   5.124  11.646  0.6125  0.2129  0.1334
 1122SOL     OW 4806   3.222   1.235   4.607  0.0523 -0.0389 -0.1854
 1122SOL    HW1 4807   3.242   1.301   4.673 -0.1523 -1.3118  1.2136
 1122SOL    HW2 4808   3.153   1.182   4.646 -1.3273  0.2085 -2.1734
 1123SOL     OW 4809   5.706   4.524   0.953 -0.0764 -0.6163 -0.5871
 1123SOL    HW1 4810   5.713   4.442   0.904  1.5851 -0.2565 -1.0026
 1123SOL    HW2 4811   5.740   4.590   0.893 -1.4640  0.4236 -0.2890
 1124SOL     OW 4812   3.205   6.174   6.565  0.1384 -0.1240 -0.2511
 1124SOL    HW1 4813   3.228   6.138   6.480  1.7941  0.0762  0.0715
 1124SOL    HW2 4814   3.268   6.135   6.626  0.2910  1.2600  0.5403
 1125SOL     OW 4815   6.170   2.579   2.472  0.0658 -0.3162 -0.1018
 1125SOL    HW1 4816   6.107   2.592   2.401  0.3814 -1.6762 -0.6629
 1125SOL    HW2 4817   6.255   2.586   2.429  0.3259  1.5019  0.6517
 1126SOL     OW 4818   3.101   1.635   4.299 -0.0094  0.2317  0.6755
 1126SOL    HW1 4819   3.013   1.650   4.265  0.4841  1.5126 -0.1274
 1126SOL    HW2 4820   3.090   1.637   4.394 -0.8201  0.5659  0.5870
 1127SOL     OW 4821   4.190   0.448   2.074  0.0746 -0.1625  0.0888
 1127SOL    HW1 4822   4.110   0.449   2.022 -1.5821 -0.8207  2.4600
 1127SOL    HW2 4823   4.233   0.531   2.055 -0.5668 -0.2893 -2.0846
 1128SOL     OW 4824   6.275   7.795   2.049 -0.5427  0.2808 -0.0877
 1128SOL    HW1 4825   6.347   7.735   2.031 -1.6045 -0.3974 -2.5819
 1128SOL    HW2 4826   6.240   7.816   1.962 -1.8635  2.4543  0.8957
 1129SOL     OW 4827   0.937   7.468  10.428  0.0521  0.0658 -0.2353
 1129SOL    HW1 4828   0.879   7.519  10.371 -0.3329 -0.2834 -0.1581
 1129SOL    HW2 4829   0.994   7.534  10.467 -1.0937  0.5807  0.6325
 1130SOL     OW 4830   6.327   6.559   4.115 -0.0700  0.2878  0.0031
 1130SOL    HW1 4831   6.335   6.655   4.110  1.7142  0.2089  0.8029
 1130SOL    HW2 4832   6.260   6.538   4.050  0.1383  2.0063 -0.8276
 1131SOL     OW 4833   0.806   2.588   2.617 -0.3397 -0.0065  0.0362
 1131SOL    HW1 4834   0.751   2.644   2.672 -0.4174  0.0630 -0.1107
 1131SOL    HW2 4835   0.833   2.517   2.675 -2.2602 -1.1712 -0.3922
 1132SOL     OW 4836   7.393   3.898   1.074 -0.2037  0.5287  0.0133
 1132SOL    HW1 4837   7.432   3.973   1.030  1.1092 -1.1012 -1.8191
 1132SOL    HW2 4838   7.457   3.827   1.062 -1.9592 -1.2323  0.4230
 1133SOL     OW 4839   4.951   3.327   0.710 -0.6240  0.5096  0.8257
 1133SOL    HW1 4840   4.925   3.418   0.715 -0.8091  0.5442 -0.4289
 1133SOL    HW2 4841   5.023   3.326   0.647  0.5449  0.0115  2.0988
 1134SOL     OW 4842   3.907   0.048   3.149 -0.2229  0.0188 -0.0088
 1134SOL    HW1 4843   3.849  -0.027   3.148  0.7075 -0.7506 -1.7957
 1134SOL    HW2 4844   3.850   0.123   3.130 -0.8443 -0.5356 -0.3691
 1135SOL     OW 4845   2.742   6.511  10.004  0.0470  0.4806  0.4654
 1135SOL    HW1 4846   2.826   6.472  10.032 -0.1509 -0.7700 -0.5512
 1135SOL    HW2 4847   2.767   6.576   9.939  0.2024 -0.4225 -0.3945
 1136SOL     OW 4848   5.278   7.408   8.387  0.1275  0.3295  0.7817
 1136SOL    HW1 4849   5.198   7.457   8.366 -0.5841 -1.2105 -0.2486
 1136SOL    HW2 4850   5.333   7.419   8.309 -0.8319 -2.0121 -0.3153
 1137SOL     OW 4851   6.321   4.588   9.458  0.0136 -0.6485 -0.2842
 1137SOL    HW1 4852   6.366   4.607   9.375  0.7101 -0.2497  0.1814
 1137SOL    HW2 4853   6.381   4.529   9.504 -1.5194 -3.0298 -1.1503
 1138SOL     OW 4854   3.096   5.389   3.478 -0.5830  0.1892 -0.1970
 1138SOL    HW1 4855   3.100   5.482   3.499  0.1664  0.0768  0.2178
 1138SOL    HW2 4856   3.058   5.348   3.556 -0.9203  0.1486 -0.3823
 1139SOL     OW 4857   5.390   5.359   2.831  0.2178 -0.7997 -0.2414
 1139SOL    HW1 4858   5.367   5.416   2.905  1.8313 -1.1845  0.5949
 1139SOL    HW2 4859   5.396   5.419   2.756 -2.1192 -0.5025 -0.2701
 1140SOL     OW 4860   3.270   2.559   3.990 -0.0646 -0.1542 -0.5938
 1140SOL    HW1 4861   3.275   2.643   4.036 -0.1520 -0.9177  0.8826
 1140SOL    HW2 4862   3.331   2.568   3.917  1.1513  0.6591  0.4644
 1141SOL     OW 4863   5.482   2.986   1.184  0.3277  0.0640  0.1617
 1141SOL    HW1 4864   5.414   3.054   1.188  0.5187  0.4870 -2.1327
 1141SOL    HW2 4865   5.447   2.922   1.122  1.2191 -0.6990  0.4360
 1142SOL     OW 4866   4.100   4.415   3.205 -0.5264  0.3990  0.0425
 1142SOL    HW1 4867   4.118   4.475   3.133  0.3330  0.0648 -0.0374
 1142SOL    HW2 4868   4.172   4.431   3.267  0.0057 -0.9150 -0.2214
 1143SOL     OW 4869   4.414   6.636   4.292  0.1667  0.6468  0.0336
 1143SOL    HW1 4870   4.415   6.544   4.318  0.8143  0.0165 -2.0220
 1143SOL    HW2 4871   4.357   6.679   4.356  3.2446 -0.2760  3.7922
 1144SOL     OW 4872   1.314   6.228  11.176  0.2390  0.2350 -0.3263
 1144SOL    HW1 4873   1.383   6.183  11.225 -0.5901 -1.5675 -0.7325
 1144SOL    HW2 4874   1.251   6.159  11.154  0.6553  0.8546 -4.1147
 1145SOL     OW 4875   3.895   4.625   2.581 -1.0905  0.3270 -0.3862
 1145SOL    HW1 4876   3.909   4.562   2.651 -0.4001 -1.2844 -1.8981
 1145SOL    HW2 4877   3.832   4.688   2.616 -0.4715 -0.2001  1.7756
 1146SOL     OW 4878   3.765   1.838   4.260  0.5241  0.5981 -0.1928
 1146SOL    HW1 4879   3.797   1.748   4.247  2.3608  1.0036  1.0941
 1146SOL    HW2 4880   3.696   1.829   4.325  0.9833  0.1378  0.2486
 1147SOL     OW 4881   4.635   2.950  10.194  0.0775  0.2068 -0.5928
 1147SOL    HW1 4882   4.612   2.858  10.181 -0.6204  0.2813  0.0770
 1147SOL    HW2 4883   4.572   2.982  10.259  0.2772  1.1721 -0.8572
 1148SOL     OW 4884   6.903   7.600   4.718  0.4825 -0.0990 -0.3035
 1148SOL    HW1 4885   6.950   7.523   4.686  0.6902  0.5145 -1.4823
 1148SOL    HW2 4886   6.812   7.572   4.721  0.6612 -0.6607  0.1053
 1149SOL     OW 4887   1.543   4.487   5.644 -0.3037 -0.5016 -0.3061
 1149SOL    HW1 4888   1.600   4.564   5.654 -0.8042  0.1486 -2.1395
 1149SOL    HW2 4889   1.521   4.462   5.734  1.3284  0.3840  0.3847
 1150SOL     OW 4890   2.880   4.490   8.268  0.1342  0.0618 -0.6033
 1150SOL    HW1 4891   2.871   4.478   8.174 -0.7272 -1.1291 -0.3848
 1150SOL    HW2 4892   2.801   4.537   8.294 -0.2427 -0.7293 -0.2964
 1151SOL     OW 4893   3.053   1.725   6.861  0.0923  0.0095 -0.5005
 1151SOL    HW1 4894   3.008   1.801   6.824 -0.5500  0.2781  0.7820
 1151SOL    HW2 4895   3.009   1.650   6.821 -1.2173  0.2727  0.3868
 1152SOL     OW 4896   2.446   4.916  11.612  0.2156 -0.2126 -0.3014
 1152SOL    HW1 4897   2.482   4.978  11.548  2.2599 -1.5848 -0.5677
 1152SOL    HW2 4898   2.403   4.849  11.559  1.9961 -1.4031 -0.3177
 1153SOL     OW 4899   1.602   0.616  10.121  0.1709  0.2037  0.2173
 1153SOL    HW1 4900   1.694   0.605  10.145  0.1869 -0.9467 -0.2959
 1153SOL    HW2 4901   1.598   0.594  10.028 -0.6650 -0.0425  0.3003
 1154SOL     OW 4902   5.759   3.924   7.109 -0.4681 -0.2023 -0.3420
 1154SOL    HW1 4903   5.701   3.871   7.165  0.6584  0.3192  1.4139
 1154SOL    HW2 4904   5.728   4.013   7.122  0.8094  0.1020  0.7629
 1155SOL     OW 4905   6.037   0.248   0.289 -0.0081  0.1462 -0.2728
 1155SOL    HW1 4906   6.121   0.292   0.300  0.4771 -0.9988  0.8603
 1155SOL    HW2 4907   6.060   0.156   0.274 -1.0279  0.0461 -1.4144
 1156SOL     OW 4908   4.653   0.792   7.468 -0.8618  0.4259  0.3015
 1156SOL    HW1 4909   4.627   0.746   7.548  0.2780 -1.2286 -0.2071
 1156SOL    HW2 4910   4.732   0.841   7.493 -0.3778 -0.2654  0.1713
 1157SOL     OW 4911   3.706   4.932   0.603  0.4246  0.2367  0.0483
 1157SOL    HW1 4912   3.708   4.840   0.577  3.5472  0.3197 -0.3539
 1157SOL    HW2 4913   3.771   4.939   0.672  0.3410  2.1791 -0.0140
 1158SOL     OW 4914   0.987   5.880   2.003  0.1816  0.5739 -0.3627
 1158SOL    HW1 4915   0.912   5.936   2.020 -1.0015 -1.2859  0.9250
 1158SOL    HW2 4916   0.949   5.799   1.969  1.6816 -0.0489 -0.6208
 1159SOL     OW 4917   1.193   0.223   5.679 -0.5682  0.3114  0.3004
 1159SOL    HW1 4918   1.111   0.208   5.632 -0.0075  0.0627 -0.6272
 1159SOL    HW2 4919   1.218   0.137   5.712  0.6931 -0.1714 -1.7565
 1160SOL     OW 4920   6.719   1.319  11.199  0.2933 -0.4337  0.1080
 1160SOL    HW1 4921   6.687   1.385  11.137 -4.3781 -2.7724 -0.4800
 1160SOL    HW2 4922   6.706   1.359  11.285 -4.2752 -0.8045 -0.1221
 1161SOL     OW 4923   7.506   0.737  12.442  0.4971  0.3405  0.4953
 1161SOL    HW1 4924   7.575   0.723  12.377  0.5714 -1.0813  0.8517
 1161SOL    HW2 4925   7.553   0.771  12.519  0.6294  0.4951  0.3480
 1162SOL     OW 4926   2.791   5.215   8.963 -0.5741 -0.5952  0.1575
 1162SOL    HW1 4927   2.839   5.134   8.949  0.4439  0.2751 -1.7163
 1162SOL    HW2 4928   2.810   5.269   8.886 -1.9988  1.0538  0.8722
 1163SOL     OW 4929   0.699   3.044  11.938  0.1515  0.0432  0.0015
 1163SOL    HW1 4930   0.695   3.103  11.863  0.2341  2.3675  1.7219
 1163SOL    HW2 4931   0.626   2.984  11.925  0.7311 -0.2505 -2.3825
 1164SOL     OW 4932   2.014   2.278  11.164 -0.2843 -0.3336 -0.1880
 1164SOL    HW1 4933   1.962   2.289  11.243  1.7302 -1.2472  1.3584
 1164SOL    HW2 4934   1.960   2.224  11.106 -1.1920 -0.9490  1.1980
 1165SOL     OW 4935   2.579   2.445   3.429  0.3437 -0.2052  0.7370
 1165SOL    HW1 4936   2.675   2.439   3.434  0.3355  0.3985  2.2883
 1165SOL    HW2 4937   2.548   2.385   3.496 -0.3416  0.0827  0.6809
 1166SOL     OW 4938   6.820   0.439   7.795  0.0813  0.1108 -0.1957
 1166SOL    HW1 4939   6.778   0.398   7.870  1.3727 -1.0447 -0.0603
 1166SOL    HW2 4940   6.801   0.532   7.805  0.4500  0.0263  1.7357
 1167SOL     OW 4941   3.533   6.185   4.216 -0.3405  0.6195 -0.2408
 1167SOL    HW1 4942   3.445   6.177   4.252 -0.8515  0.3143 -1.5114
 1167SOL    HW2 4943   3.521   6.178   4.121  1.2501 -1.1633 -0.3551
 1168SOL     OW 4944   5.557   7.342   8.749  0.2629  0.5695  0.0807
 1168SOL    HW1 4945   5.504   7.283   8.695 -1.0809  1.8312 -0.0475
 1168SOL    HW2 4946   5.646   7.330   8.717 -0.1474 -0.4876 -0.7543
 1169SOL     OW 4947   7.630   3.571   9.768 -0.0930  0.2006  0.0270
 1169SOL    HW1 4948   7.603   3.600   9.855  0.4432 -2.2266  1.0958
 1169SOL    HW2 4949   7.706   3.626   9.747  1.6942 -1.1266  2.5013
 1170SOL     OW 4950   1.039   5.767   9.390  0.6851 -0.2619 -0.2851
 1170SOL    HW1 4951   1.012   5.858   9.407 -1.3321 -1.0236  1.0593
 1170SOL    HW2 4952   1.030   5.757   9.295  0.3620  0.7860 -0.3803
 1171SOL     OW 4953   5.431   2.927   3.588 -0.3095 -0.1485  0.6200
 1171SOL    HW1 4954   5.347   2.895   3.621  0.5757 -2.6718  0.6677
 1171SOL    HW2 4955   5.476   2.960   3.666 -0.3167 -1.0794  1.0290
 1172SOL     OW 4956   6.083   5.933   7.644  0.5445  0.0178  0.1631
 1172SOL    HW1 4957   6.092   5.850   7.599  0.2867  0.3872 -0.5825
 1172SOL    HW2 4958   6.102   5.999   7.577 -1.4074  0.6367  0.1573
 1173SOL     OW 4959   0.515   2.243   2.808  0.2112  0.2252 -0.4096
 1173SOL    HW1 4960   0.499   2.261   2.901  2.2067  2.4629 -0.3814
 1173SOL    HW2 4961   0.437   2.277   2.763 -0.9314 -1.1984  0.3988
 1174SOL     OW 4962   4.876   3.537   1.087 -0.0091  0.6105  0.2271
 1174SOL    HW1 4963   4.942   3.473   1.062  2.0743  1.7383  2.3876
 1174SOL    HW2 4964   4.845   3.574   1.005  1.9635 -0.0925 -0.8975
 1175SOL     OW 4965   6.584   0.798   5.330  0.2122  0.2900 -0.9831
 1175SOL    HW1 4966   6.559   0.712   5.297 -0.8991  0.5601 -0.8578
 1175SOL    HW2 4967   6.642   0.779   5.404 -0.2206 -0.3501 -0.8007
 1176SOL     OW 4968   6.757   0.233  10.388 -0.5020  0.0821  0.2117
 1176SOL    HW1 4969   6.816   0.157  10.397  2.2213  1.9476 -0.6103
 1176SOL    HW2 4970   6.690   0.204  10.326  1.4986 -1.1604 -1.5350
 1177SOL     OW 4971   7.359   7.566   0.617  0.3168  0.5781 -0.0096
 1177SOL    HW1 4972   7.409   7.648   0.618 -1.0800  1.4840 -0.8348
 1177SOL    HW2 4973   7.359   7.540   0.525 -0.8101  0.6669 -0.0438
 1178SOL     OW 4974   4.125   6.401   9.514 -0.3287 -0.0022 -0.3182
 1178SOL    HW1 4975   4.187   6.434   9.578 -1.6637 -0.0159  1.0252
 1178SOL    HW2 4976   4.154   6.440   9.431  2.3433 -1.1858 -0.0635
 1179SOL     OW 4977   0.683   0.008   8.695  0.0181 -0.1005 -0.3746
 1179SOL    HW1 4978   0.776   0.000   8.715  0.2700 -0.2075 -1.5246
 1179SOL    HW2 4979   0.656  -0.082   8.673 -0.4173 -0.1145  0.2129
 1180SOL     OW 4980   7.778   5.458   0.400  0.0307  0.5358  0.0490
 1180SOL    HW1 4981   7.776   5.546   0.436  0.6777  0.6786 -0.2598
 1180SOL    HW2 4982   7.770   5.470   0.306 -0.6472  0.2185  0.0585
 1181SOL     OW 4983   3.087   4.739   3.517  0.0336  0.3899 -0.0975
 1181SOL    HW1 4984   3.041   4.667   3.474 -0.7459  1.9959 -2.1360
 1181SOL    HW2 4985   3.024   4.772   3.582 -1.0281  1.3909 -1.5793
 1182SOL     OW 4986   2.914   0.515   3.004  0.6652 -0.1186  0.2977
 1182SOL    HW1 4987   2.918   0.537   3.097 -1.4287  1.0233  0.1822
 1182SOL    HW2 4988   2.836   0.460   2.997  0.2435  0.6116 -0.9112
 1183SOL     OW 4989   4.219   6.111   3.081 -0.9119  0.3606  0.3191
 1183SOL    HW1 4990   4.140   6.161   3.102 -1.9843 -1.3702  0.6119
 1183SOL    HW2 4991   4.288   6.151   3.134 -2.2256  0.0635  2.3606
 1184SOL     OW 4992   1.179   3.649  10.892 -0.7709 -0.5610 -0.0809
 1184SOL    HW1 4993   1.258   3.610  10.928 -0.7754 -2.1279 -1.6683
 1184SOL    HW2 4994   1.205   3.685  10.808 -1.4653  0.1369 -0.0146
 1185SOL     OW 4995   3.483   3.539   9.243 -0.3986  0.3253 -0.2500
 1185SOL    HW1 4996   3.401   3.514   9.285 -1.2807 -0.9657 -2.5152
 1185SOL    HW2 4997   3.549   3.482   9.282 -0.6089  1.0829  1.2884
 1186SOL     OW 4998   7.080   4.317   5.808  0.0941 -0.7193  0.2124
 1186SOL    HW1 4999   7.022   4.256   5.762 -0.5881 -0.2177  0.3921
 1186SOL    HW2 5000   7.118   4.371   5.738  0.9731 -1.5594  0.0174
 1187SOL     OW 5001   6.367   3.935   9.525 -0.2330  0.1110  0.7030
 1187SOL    HW1 5002   6.401   3.851   9.555 -0.9785 -0.6874 -0.5757
 1187SOL    HW2 5003   6.399   3.999   9.588  2.3351 -0.7877  0.4016
 1188SOL     OW 5004   5.634   3.682   7.657 -0.2345 -0.1915 -0.5839
 1188SOL    HW1 5005   5.721   3.723   7.661  0.5485 -1.8206  1.0573
 1188SOL    HW2 5006   5.606   3.676   7.748 -1.6607 -0.5569 -1.0169
 1189SOL     OW 5007   1.804   2.600   3.958 -0.1046  0.7090 -0.0401
 1189SOL    HW1 5008   1.892   2.564   3.950  0.3884  1.7061  0.7398
 1189SOL    HW2 5009   1.747   2.530   3.926  1.0000  0.3309 -1.3038
 1190SOL     OW 5010   2.087   3.278   6.621  0.2214 -0.3595  0.0538
 1190SOL    HW1 5011   2.083   3.278   6.525  0.0822  1.8667  0.0002
 1190SOL    HW2 5012   2.172   3.238   6.641  0.0819 -1.2110 -0.9841
 1191SOL     OW 5013   3.399   1.250   4.399 -0.3420  0.6210  0.1230
 1191SOL    HW1 5014   3.366   1.257   4.489 -0.7682 -1.7990  0.2291
 1191SOL    HW2 5015   3.321   1.255   4.344 -0.1772  1.2221 -0.0586
 1192SOL     OW 5016   7.309   0.868   1.773  0.0378 -0.1278  0.1851
 1192SOL    HW1 5017   7.336   0.939   1.831  0.9198 -0.6216  0.3987
 1192SOL    HW2 5018   7.270   0.913   1.697  2.8512  0.7510 -0.8820
 1193SOL     OW 5019   6.071   3.425   9.357  0.0207 -0.3588  0.2476
 1193SOL    HW1 5020   6.003   3.477   9.312  0.1835 -1.5232 -1.4322
 1193SOL    HW2 5021   6.147   3.484   9.360 -1.1514  1.1964  2.7209
 1194SOL     OW 5022   1.134   1.660   9.446 -0.2428  0.1978  0.0173
 1194SOL    HW1 5023   1.168   1.620   9.526 -0.7480 -1.0814 -0.3899
 1194SOL    HW2 5024   1.209   1.708   9.410  0.5759 -0.8775  0.2174
 1195SOL     OW 5025   4.827   1.013   4.307  0.0794  0.4591  0.5370
 1195SOL    HW1 5026   4.776   1.041   4.384  2.3653  2.9368  1.2909
 1195SOL    HW2 5027   4.848   1.095   4.262  2.0386 -0.6104 -0.5881
 1196SOL     OW 5028   2.377   7.805   3.736 -0.4403  0.1542  0.1766
 1196SOL    HW1 5029   2.331   7.726   3.708  1.0426 -0.9181  0.6353
 1196SOL    HW2 5030   2.428   7.832   3.659  0.2783 -0.2738  0.4930
 1197SOL     OW 5031   7.843   7.958   9.757  0.4458 -0.5546 -0.9015
 1197SOL    HW1 5032   7.780   7.982   9.825  0.4073 -0.0440 -1.1143
 1197SOL    HW2 5033   7.865   7.867   9.776  1.0143 -0.2000  0.2705
 1198SOL     OW 5034   7.735   2.679  11.408 -0.6411 -0.0745 -0.3618
 1198SOL    HW1 5035   7.791   2.646  11.478 -0.1039  0.9198 -0.2965
 1198SOL    HW2 5036   7.744   2.774  11.413  1.4692  0.0457 -3.3989
 1199SOL     OW 5037   6.433   2.939   4.278  0.3823  0.4876  0.2104
 1199SOL    HW1 5038   6.495   2.870   4.302  1.1275  1.5112  1.4269
 1199SOL    HW2 5039   6.485   3.001   4.227  0.4036  1.3333  1.2033
 1200SOL     OW 5040   3.830   4.379  12.417 -0.3100  0.4132  0.1744
 1200SOL    HW1 5041   3.823   4.469  12.447 -0.4447  0.2389  0.6683
 1200SOL    HW2 5042   3.802   4.326  12.492  0.3168 -0.0606  0.0842
 1201SOL     OW 5043   5.810   0.856   3.616 -0.0672  0.0465 -0.0365
 1201SOL    HW1 5044   5.859   0.935   3.594  1.5524 -1.0463 -0.5710
 1201SOL    HW2 5045   5.839   0.833   3.704 -0.3930 -0.0535  0.0446
 1202SOL     OW 5046   5.889   5.284   7.752  0.2977  0.1757  0.1810
 1202SOL    HW1 5047   5.881   5.199   7.710 -0.3036 -0.0617  0.7599
 1202SOL    HW2 5048   5.908   5.264   7.844  0.4466  0.6735  0.2627
 1203SOL     OW 5049   1.154   4.781   0.743  0.6117  0.0242 -0.6801
 1203SOL    HW1 5050   1.199   4.841   0.802 -1.2351  1.0851 -0.3071
 1203SOL    HW2 5051   1.103   4.724   0.800 -0.3013  0.3279 -1.1655
 1204SOL     OW 5052   3.202   1.630   3.575  0.4093  0.0956 -0.2817
 1204SOL    HW1 5053   3.253   1.553   3.598  1.0645  0.4167 -0.6271
 1204SOL    HW2 5054   3.229   1.652   3.486  0.0386  0.5686 -0.2853
 1205SOL     OW 5055   2.929   5.631  11.760 -0.7251  0.1911  0.4591
 1205SOL    HW1 5056   2.989   5.594  11.695 -0.5567 -0.0257  0.7363
 1205SOL    HW2 5057   2.961   5.720  11.774 -1.6162  0.7264 -0.8135
 1206SOL     OW 5058   7.754   3.955   0.122  0.2646  0.7408  0.0729
 1206SOL    HW1 5059   7.693   3.896   0.166  0.6047  0.1598 -0.2190
 1206SOL    HW2 5060   7.750   3.930   0.030  3.1100 -1.3999  0.3785
 1207SOL     OW 5061   2.850   0.197  11.494  0.4698  0.4416  0.8140
 1207SOL    HW1 5062   2.912   0.174  11.563 -0.5535 -0.8545  1.3378
 1207SOL    HW2 5063   2.882   0.149  11.417  0.7140  0.6234  0.8010
 1208SOL     OW 5064   0.005   2.940   3.393  0.1943 -0.5324 -0.3707
 1208SOL    HW1 5065   0.075   2.878   3.374  1.3021 -1.7388  5.6003
 1208SOL    HW2 5066   0.049   3.015   3.432 -1.5948 -0.0362  0.8224
 1209SOL     OW 5067   7.604   0.754   7.178  0.3793 -0.6831 -0.5623
 1209SOL    HW1 5068   7.652   0.674   7.156 -0.2656 -0.9001 -1.2096
 1209SOL    HW2 5069   7.574   0.739   7.268  0.3445 -1.1315 -0.6449
 1210SOL     OW 5070   3.978   5.711  11.745 -0.2217 -0.3281  0.1710
 1210SOL    HW1 5071   3.999   5.620  11.727 -1.2854 -0.5238 -0.1558
 1210SOL    HW2 5072   3.892   5.708  11.786 -0.0635  0.5029  0.5931
 1211SOL     OW 5073   1.506   4.137   6.554 -0.0777  0.1646  0.4810
 1211SOL    HW1 5074   1.505   4.233   6.554 -0.7383  0.1637  0.5232
 1211SOL    HW2 5075   1.547   4.113   6.637  2.5017  0.3987 -0.6282
 1212SOL     OW 5076   5.264   4.996   9.793 -0.5785 -0.0413 -0.2648
 1212SOL    HW1 5077   5.321   4.977   9.868 -0.8924 -0.6517 -0.1759
 1212SOL    HW2 5078   5.188   4.938   9.806 -0.0493 -1.1136 -1.7270
 1213SOL     OW 5079   7.305   0.761   2.055  0.1848  0.3034  0.4725
 1213SOL    HW1 5080   7.344   0.783   1.970  1.1047  0.1433  0.8366
 1213SOL    HW2 5081   7.377   0.774   2.118 -0.7120  1.2784  1.3468
 1214SOL     OW 5082   2.594   0.121  11.523 -0.2048  0.1851  0.5525
 1214SOL    HW1 5083   2.688   0.105  11.536 -0.4241 -1.2560  0.5957
 1214SOL    HW2 5084   2.580   0.208  11.560  0.9915  0.1372  1.2136
 1215SOL     OW 5085   0.056   2.725   7.929  0.6824 -0.9668 -0.2935
 1215SOL    HW1 5086  -0.003   2.772   7.987 -1.3581 -3.0292 -0.5567
 1215SOL    HW2 5087   0.075   2.788   7.859 -0.0105  0.2288  0.5523
 1216SOL     OW 5088   2.535   0.549   7.680  0.4125  0.1498 -0.3379
 1216SOL    HW1 5089   2.455   0.599   7.693  1.2387  1.2242  0.8051
 1216SOL    HW2 5090   2.540   0.491   7.756 -0.4576 -1.6579 -1.5691
 1217SOL     OW 5091   6.913   5.834   4.181  0.1924  0.0417  0.5320
 1217SOL    HW1 5092   6.994   5.784   4.167 -0.1106 -0.2093 -0.4098
 1217SOL    HW2 5093   6.932   5.890   4.256  1.9387  1.4425 -0.8654
 1218SOL     OW 5094   4.648   2.930   1.890  0.5215  0.0459 -0.2458
 1218SOL    HW1 5095   4.662   2.912   1.983  0.9654  0.5536 -0.2059
 1218SOL    HW2 5096   4.567   2.981   1.887  1.6680  2.0333  0.1253
 1219SOL     OW 5097   5.362   2.740   9.651  0.0570 -0.0935 -0.4003
 1219SOL    HW1 5098   5.458   2.738   9.646  0.0654  1.7035 -2.0075
 1219SOL    HW2 5099   5.333   2.715   9.564 -0.8070  2.6293 -0.9744
 1220SOL     OW 5100   7.328   1.604  11.112 -0.7880  0.0439 -0.0636
 1220SOL    HW1 5101   7.248   1.572  11.154 -2.4301  0.9979 -2.2549
 1220SOL    HW2 5102   7.379   1.525  11.094 -2.1873 -0.7970 -0.4323
 1221SOL     OW 5103   3.203   4.980   1.377  0.1063  0.3609  0.2679
 1221SOL    HW1 5104   3.203   5.047   1.446 -1.4841  0.2024  0.4643
 1221SOL    HW2 5105   3.161   5.023   1.303  0.8989  0.2041 -0.2827
 1222SOL     OW 5106   3.918   4.934   2.767 -0.1973 -0.0384 -0.3161
 1222SOL    HW1 5107   3.889   4.925   2.858  1.4477  2.4110  0.5743
 1222SOL    HW2 5108   3.987   4.869   2.757  0.3670  0.4050  0.5730
 1223SOL     OW 5109   6.322   7.449   0.667 -0.3904 -0.7328 -0.2779
 1223SOL    HW1 5110   6.268   7.458   0.745 -0.2819 -0.7975 -0.1956
 1223SOL    HW2 5111   6.380   7.525   0.669 -0.5169 -0.6314 -0.3984
 1224SOL     OW 5112   4.897   4.004  12.296  0.9528 -0.0638 -0.0560
 1224SOL    HW1 5113   4.846   3.937  12.252  0.4700  0.5670 -0.4823
 1224SOL    HW2 5114   4.857   4.087  12.268  1.3990  0.3916  0.6183
 1225SOL     OW 5115   1.971   7.174   2.893  0.4933 -0.0784  0.8560
 1225SOL    HW1 5116   2.026   7.250   2.873  3.3943 -2.4340 -0.8739
 1225SOL    HW2 5117   1.904   7.175   2.825  1.8883 -0.2414 -0.5803
 1226SOL     OW 5118   0.883   7.249   3.687 -0.4095 -0.1825  0.0328
 1226SOL    HW1 5119   0.789   7.253   3.667 -0.2446  0.4544 -0.6834
 1226SOL    HW2 5120   0.925   7.285   3.609  0.2931  2.3019  1.4506
 1227SOL     OW 5121   6.425   3.316   6.180 -0.1383 -0.7264 -0.2649
 1227SOL    HW1 5122   6.346   3.308   6.234  0.1008  1.0869  0.4615
 1227SOL    HW2 5123   6.491   3.350   6.241  0.4135  0.4396 -1.4582
 1228SOL     OW 5124   6.315   6.152   6.847 -0.1388 -0.0387 -0.3894
 1228SOL    HW1 5125   6.398   6.119   6.882  0.6968  1.3090 -1.0464
 1228SOL    HW2 5126   6.319   6.133   6.754 -0.1567  0.8523 -0.5814
 1229SOL     OW 5127   6.788   7.346   7.483  0.0987  0.1660  0.5469
 1229SOL    HW1 5128   6.844   7.272   7.461 -0.4924 -0.1982  0.2435
 1229SOL    HW2 5129   6.760   7.380   7.398  0.6847  0.9961  0.6663
 1230SOL     OW 5130   6.298   5.067   6.363 -0.0603  0.4839  0.3324
 1230SOL    HW1 5131   6.256   4.999   6.310  0.9051  1.1084 -1.3096
 1230SOL    HW2 5132   6.382   5.029   6.390 -0.0781  0.5667  0.5108
 1231SOL     OW 5133   2.145   2.024   4.249 -0.1334 -0.1337  0.3686
 1231SOL    HW1 5134   2.114   2.014   4.339  0.0746  1.4102  0.6335
 1231SOL    HW2 5135   2.157   2.118   4.238  0.0936 -0.3215 -1.1993
 1232SOL     OW 5136   3.882   1.939   3.277  0.7229  0.0937  0.0547
 1232SOL    HW1 5137   3.969   1.908   3.301  0.7460 -0.0825 -0.2487
 1232SOL    HW2 5138   3.879   2.029   3.307  0.6657 -0.1910  0.9272
 1233SOL     OW 5139   5.603   3.551   2.173 -0.2811 -0.3882  0.3344
 1233SOL    HW1 5140   5.657   3.608   2.118 -0.1097 -0.7127  0.1651
 1233SOL    HW2 5141   5.626   3.576   2.262 -2.2112  1.7179  0.3140
 1234SOL     OW 5142   0.013   2.636   1.178 -0.0847 -0.2270  0.0662
 1234SOL    HW1 5143   0.048   2.552   1.208 -0.5063  0.2581  2.0576
 1234SOL    HW2 5144   0.003   2.625   1.083  0.9964 -1.9901  0.1137
 1235SOL     OW 5145   5.101   0.206   6.112  0.3289 -0.1995 -0.6104
 1235SOL    HW1 5146   5.069   0.280   6.061 -1.1298 -0.3410  0.0704
 1235SOL    HW2 5147   5.197   0.212   6.105  0.2225  1.4211 -1.0156
 1236SOL     OW 5148   2.630   1.134   4.881 -0.0053  0.8932 -0.2381
 1236SOL    HW1 5149   2.643   1.079   4.959  1.9452  2.8007  0.8902
 1236SOL    HW2 5150   2.581   1.078   4.820 -1.6178 -0.6865  2.3090
 1237SOL     OW 5151   1.180   6.622   8.124  0.5542 -0.0445 -0.4933
 1237SOL    HW1 5152   1.176   6.693   8.060  0.3565 -0.5197 -1.0210
 1237SOL    HW2 5153   1.253   6.567   8.095 -0.0478 -0.7042 -0.7890
 1238SOL     OW 5154   3.279   0.299   0.370 -0.2297 -0.6439 -0.5772
 1238SOL    HW1 5155   3.250   0.388   0.387  2.2461  0.3209 -1.0383
 1238SOL    HW2 5156   3.222   0.268   0.300 -2.3911 -0.1878  0.8887
 1239SOL     OW 5157   4.578   3.187  11.757 -0.3436 -0.6263 -0.2996
 1239SOL    HW1 5158   4.618   3.267  11.722  0.8915 -1.0732  0.0807
 1239SOL    HW2 5159   4.599   3.119  11.693 -0.2936 -0.9183  0.0274
 1240SOL     OW 5160   6.747   4.983   3.522 -0.4516 -0.2350  0.1194
 1240SOL    HW1 5161   6.798   5.023   3.453 -1.1393  0.3327 -0.0778
 1240SOL    HW2 5162   6.792   5.008   3.603  0.7191 -1.4395 -0.1326
 1241SOL     OW 5163   7.818   0.837   2.552 -0.0437  0.1453  0.2202
 1241SOL    HW1 5164   7.857   0.834   2.639  2.0912 -1.3090 -0.7023
 1241SOL    HW2 5165   7.854   0.760   2.507  1.8726  2.7504 -3.1191
 1242SOL     OW 5166   0.325   7.205   2.429 -0.1948 -0.7661 -0.4460
 1242SOL    HW1 5167   0.338   7.197   2.523 -1.3240  0.3836 -0.1640
 1242SOL    HW2 5168   0.390   7.269   2.401 -0.3318 -0.5740 -0.3243
 1243SOL     OW 5169   0.962   1.248   6.327  0.3666  0.3650  0.1779
 1243SOL    HW1 5170   1.036   1.267   6.270 -0.3515 -0.4415 -1.0819
 1243SOL    HW2 5171   0.917   1.175   6.284 -2.4581  2.2718 -0.3365
 1244SOL     OW 5172   4.554   4.460   2.669 -0.0449 -0.6170  0.1083
 1244SOL    HW1 5173   4.539   4.411   2.588  0.2091 -0.2572 -0.1640
 1244SOL    HW2 5174   4.646   4.486   2.665 -0.4179  0.7790 -0.2866
 1245SOL     OW 5175   3.401   0.810   0.526  0.3354  0.7751 -0.2753
 1245SOL    HW1 5176   3.462   0.784   0.458 -1.3105 -0.3493 -1.3777
 1245SOL    HW2 5177   3.365   0.894   0.496  1.2318  1.4060  0.3439
 1246SOL     OW 5178   1.083   3.707   7.180 -0.1966  0.0387  0.2223
 1246SOL    HW1 5179   1.109   3.794   7.151  1.4618 -0.4887  0.0516
 1246SOL    HW2 5180   1.010   3.683   7.122  0.3039  0.7074 -0.7074
 1247SOL     OW 5181   1.688   1.858   8.687  0.2910 -0.3209 -0.0795
 1247SOL    HW1 5182   1.739   1.814   8.619 -0.4598 -0.3622 -0.6355
 1247SOL    HW2 5183   1.750   1.914   8.732  0.9448 -0.8114 -0.3558
 1248SOL     OW 5184   7.422   7.621   9.375 -0.1473  0.2290  0.1196
 1248SOL    HW1 5185   7.487   7.685   9.403  1.6369 -1.7376  0.7243
 1248SOL    HW2 5186   7.422   7.555   9.444 -1.0531 -1.0184 -1.0236
 1249SOL     OW 5187   7.332   4.166   2.639 -0.4341  0.3242  0.5108
 1249SOL    HW1 5188   7.372   4.238   2.591  1.0069 -0.3574  0.6282
 1249SOL    HW2 5189   7.261   4.135   2.582  0.4277  0.3459 -0.6071
 1250SOL     OW 5190   5.054   1.441  10.523  0.4635 -0.4569 -0.2152
 1250SOL    HW1 5191   5.105   1.434  10.442  0.1059  0.2867 -0.5145
 1250SOL    HW2 5192   5.113   1.487  10.583  0.8659 -1.3318  0.0741
 1251SOL     OW 5193   1.061   6.735   9.560 -0.0625 -0.2453  0.0470
 1251SOL    HW1 5194   1.054   6.798   9.488  1.7927 -1.3393 -1.1935
 1251SOL    HW2 5195   1.011   6.659   9.531  1.6026 -1.1236 -0.6700
 1252SOL     OW 5196   5.398   6.408   0.275  0.1899 -0.3151 -0.2861
 1252SOL    HW1 5197   5.394   6.444   0.364  0.7984  1.1853 -0.8216
 1252SOL    HW2 5198   5.440   6.323   0.286  0.3822 -0.1021  0.8439
 1253SOL     OW 5199   3.842   6.181   9.654 -0.2612 -0.1047  0.0607
 1253SOL    HW1 5200   3.750   6.155   9.662 -0.7200  1.6863  1.2884
 1253SOL    HW2 5201   3.839   6.271   9.624  1.1679 -0.4168 -1.1405
 1254SOL     OW 5202   5.525   6.203   7.191 -0.2166  0.0519  0.4312
 1254SOL    HW1 5203   5.558   6.241   7.110 -0.1310  0.2046  0.5356
 1254SOL    HW2 5204   5.430   6.215   7.187 -0.2134  0.0462  0.3453
 1255SOL     OW 5205   4.042   2.879  10.287  0.2826  1.0690  0.5024
 1255SOL    HW1 5206   4.112   2.898  10.350  0.3073  1.2585  0.4188
 1255SOL    HW2 5207   3.979   2.949  10.299  0.6090  1.4888 -0.1504
 1256SOL     OW 5208   2.787   3.486   6.816  0.5290  0.5605  0.6361
 1256SOL    HW1 5209   2.816   3.575   6.837  1.0507  0.1280  1.7728
 1256SOL    HW2 5210   2.747   3.454   6.896 -0.5601  0.1151 -0.0702
 1257SOL     OW 5211   3.348   1.552   6.968 -0.1323  0.0022  0.4201
 1257SOL    HW1 5212   3.322   1.629   7.018 -0.9374  0.4256 -0.6136
 1257SOL    HW2 5213   3.442   1.562   6.954 -0.2710  0.9308  0.0977
 1258SOL     OW 5214   1.310   3.368   5.555  0.2652 -0.4653 -0.1052
 1258SOL    HW1 5215   1.250   3.368   5.630  1.2067 -1.9653  0.7076
 1258SOL    HW2 5216   1.301   3.455   5.517 -0.1825  0.3786  1.7972
 1259SOL     OW 5217   3.126   5.681   3.518 -0.4442  0.4671 -0.2011
 1259SOL    HW1 5218   3.151   5.772   3.504  1.0168 -0.0650 -1.3426
 1259SOL    HW2 5219   3.120   5.673   3.614 -0.4527  1.7171 -0.0801
 1260SOL     OW 5220   2.300   4.177   2.593 -0.0994 -0.2703  0.4393
 1260SOL    HW1 5221   2.353   4.121   2.649  4.2125  1.2395 -1.7284
 1260SOL    HW2 5222   2.311   4.140   2.505 -0.9528  1.3496 -0.3849
 1261SOL     OW 5223   4.662   7.584   4.878  0.3241 -0.3932  0.1393
 1261SOL    HW1 5224   4.678   7.497   4.841  0.4188 -0.9747  1.5028
 1261SOL    HW2 5225   4.567   7.592   4.882  0.3155 -0.6231  0.4284
 1262SOL     OW 5226   7.300   0.181   2.814 -0.0100  0.3349  0.1340
 1262SOL    HW1 5227   7.325   0.263   2.772  0.4844  0.0138 -0.2211
 1262SOL    HW2 5228   7.214   0.160   2.778  1.6703 -1.5674 -3.3127
 1263SOL     OW 5229   7.787   4.060   3.574  0.6756  0.0240  0.1679
 1263SOL    HW1 5230   7.827   4.137   3.614 -0.6926  1.8371 -1.7231
 1263SOL    HW2 5231   7.718   4.035   3.635  0.6879  0.7476  0.4899
 1264SOL     OW 5232   6.993   0.368   4.128 -0.2022  0.3977 -1.0774
 1264SOL    HW1 5233   6.917   0.311   4.120  0.2220 -0.0913 -1.6843
 1264SOL    HW2 5234   7.068   0.311   4.112  0.5013  0.3179  1.8683
 1265SOL     OW 5235   1.363   5.663   3.155 -0.5826 -0.2194  0.0223
 1265SOL    HW1 5236   1.403   5.598   3.212 -0.2553  0.5612  0.7177
 1265SOL    HW2 5237   1.437   5.716   3.124 -0.9270  0.3833  0.2104
 1266SOL     OW 5238   3.355   6.560   8.988  0.8503 -0.4517 -0.7186
 1266SOL    HW1 5239   3.336   6.601   8.903  0.5817 -0.1336 -0.5053
 1266SOL    HW2 5240   3.279   6.503   9.004  0.4230  0.2352 -0.2301
 1267SOL     OW 5241   5.752   5.843   6.435 -0.4408  0.1200 -0.1094
 1267SOL    HW1 5242   5.816   5.800   6.377  0.8599  2.1614 -0.2619
 1267SOL    HW2 5243   5.777   5.815   6.523  1.0434  1.3162 -0.1203
 1268SOL     OW 5244   4.558   1.986  10.390  0.1974 -0.2790 -0.3830
 1268SOL    HW1 5245   4.596   2.057  10.443  1.5518 -1.4043  0.2235
 1268SOL    HW2 5246   4.487   1.952  10.444  1.2024 -1.0440  0.4969
 1269SOL     OW 5247   7.649   4.927  12.006  0.5703  0.0269  0.6149
 1269SOL    HW1 5248   7.656   5.022  12.018 -0.8071  0.3205 -0.6434
 1269SOL    HW2 5249   7.598   4.897  12.081 -1.8483  0.8134 -0.6086
 1270SOL     OW 5250   2.155   4.260   4.332  0.1227  0.5293  0.0096
 1270SOL    HW1 5251   2.100   4.333   4.303  0.6988  0.6859 -0.7094
 1270SOL    HW2 5252   2.103   4.216   4.400 -2.3406 -1.2274 -2.7653
 1271SOL     OW 5253   4.563   3.006   2.470 -0.3318  0.1804 -0.3489
 1271SOL    HW1 5254   4.563   3.029   2.377  0.7009 -0.3325 -0.5017
 1271SOL    HW2 5255   4.473   2.981   2.489 -0.2860 -1.0999 -1.5951
 1272SOL     OW 5256   5.620   4.457   4.266 -0.3507 -0.0925  0.5835
 1272SOL    HW1 5257   5.551   4.524   4.265  0.8130  1.1557 -0.0360
 1272SOL    HW2 5258   5.640   4.443   4.173  1.1073  0.5438  0.7767
 1273SOL     OW 5259   1.544   5.321  11.075  0.0305  0.0016 -0.7090
 1273SOL    HW1 5260   1.504   5.336  11.161  1.1654 -0.8041 -0.0074
 1273SOL    HW2 5261   1.628   5.368  11.079 -0.9201  1.9920 -2.2940
 1274SOL     OW 5262   0.839   7.290   6.735  0.0206  0.7550  0.6572
 1274SOL    HW1 5263   0.745   7.281   6.751 -0.0185  0.6647  0.3735
 1274SOL    HW2 5264   0.850   7.270   6.642  0.6255 -1.5587  1.1502
 1275SOL     OW 5265   3.459   6.751  10.536  0.0330  0.4107  0.1496
 1275SOL    HW1 5266   3.411   6.824  10.495 -1.3574  0.4059  1.6833
 1275SOL    HW2 5267   3.474   6.690  10.464  0.0799  1.6266 -0.9079
 1276SOL     OW 5268   3.297   7.113   3.551 -0.8282 -0.1211 -0.2308
 1276SOL    HW1 5269   3.265   7.199   3.522  0.9358  0.0172 -1.9660
 1276SOL    HW2 5270   3.244   7.050   3.501  1.1432  0.1064 -2.8714
 1277SOL     OW 5271   6.073   0.946  11.223 -0.0205 -0.1159  0.2937
 1277SOL    HW1 5272   6.162   0.912  11.213 -0.4968 -1.0132 -1.3327
 1277SOL    HW2 5273   6.019   0.868  11.240 -1.0267 -0.2592 -2.8162
 1278SOL     OW 5274   2.699   4.763  10.103 -0.2456  0.5811 -0.3303
 1278SOL    HW1 5275   2.786   4.725  10.115 -0.1331  1.1542  0.7870
 1278SOL    HW2 5276   2.677   4.743  10.012  0.7369 -0.2121 -0.4186
 1279SOL     OW 5277   6.196   5.469   7.729 -0.0682  0.3834 -0.1714
 1279SOL    HW1 5278   6.115   5.512   7.704  0.7472  0.9808 -1.9273
 1279SOL    HW2 5279   6.254   5.540   7.757 -0.0127 -0.0051  0.7490
 1280SOL     OW 5280   0.270   0.251   4.175  0.3331  0.1508  0.2439
 1280SOL    HW1 5281   0.184   0.270   4.137  1.0068  1.5656 -0.6521
 1280SOL    HW2 5282   0.252   0.184   4.242 -1.7274  1.6481  1.3082
 1281SOL     OW 5283   4.395   6.039  11.414  0.6414  0.2823  0.4439
 1281SOL    HW1 5284   4.450   5.966  11.440 -1.3192 -0.7158  2.0354
 1281SOL    HW2 5285   4.345   6.006  11.340  1.5396  0.9187 -0.4783
 1282SOL     OW 5286   4.680   5.174   9.991  0.7917 -0.1546 -0.1973
 1282SOL    HW1 5287   4.589   5.168   9.963  0.9985 -1.4555 -0.6493
 1282SOL    HW2 5288   4.675   5.181  10.086  0.2009  0.8996 -0.2837
 1283SOL     OW 5289   2.747   7.410   7.878 -0.0015 -0.7589  0.1163
 1283SOL    HW1 5290   2.714   7.490   7.920 -0.4846 -1.6309  1.4590
 1283SOL    HW2 5291   2.837   7.403   7.910  0.1800 -0.5420 -0.3355
 1284SOL     OW 5292   3.038   1.589   9.042 -0.3524 -0.3615 -0.1171
 1284SOL    HW1 5293   3.057   1.664   9.097  1.2592 -0.2985 -0.7359
 1284SOL    HW2 5294   2.978   1.622   8.975 -0.5566  0.0837  0.2848
 1285SOL     OW 5295   0.045   3.701   7.984  0.1084  0.0999 -0.1627
 1285SOL    HW1 5296   0.070   3.619   8.027 -1.6180 -1.2864 -1.6559
 1285SOL    HW2 5297   0.063   3.686   7.891 -1.2128  1.0226 -0.5965
 1286SOL     OW 5298   7.945   3.959  10.511 -0.1972  0.4403 -0.5500
 1286SOL    HW1 5299   7.851   3.944  10.501 -0.0176 -0.3923 -1.0516
 1286SOL    HW2 5300   7.956   4.053  10.499 -1.5626  1.4652  4.1090
 1287SOL     OW 5301   5.811   6.002   0.704 -0.3969 -0.2004  0.3314
 1287SOL    HW1 5302   5.808   5.951   0.623 -1.3724 -2.4427  1.6786
 1287SOL    HW2 5303   5.869   6.075   0.684  0.1406 -1.1847 -2.0902
 1288SOL     OW 5304   0.122   3.285  11.616  0.9587  0.6050 -0.2456
 1288SOL    HW1 5305   0.209   3.290  11.576  0.8084  1.0520 -0.5172
 1288SOL    HW2 5306   0.117   3.362  11.672  1.4297 -0.3731  1.1771
 1289SOL     OW 5307   5.618   0.569   4.959 -0.0561  0.1534  0.1165
 1289SOL    HW1 5308   5.578   0.482   4.959  1.1095 -0.4208 -1.2977
 1289SOL    HW2 5309   5.573   0.616   5.030 -1.3242 -1.2975  0.3252
 1290SOL     OW 5310   4.802   1.691   1.697 -0.0482 -0.2330  0.2934
 1290SOL    HW1 5311   4.848   1.744   1.632  0.8134 -0.8014  0.4151
 1290SOL    HW2 5312   4.710   1.705   1.679  0.1545 -1.1469 -1.7352
 1291SOL     OW 5313   3.596   0.526   8.306 -0.0244  0.6548 -0.1422
 1291SOL    HW1 5314   3.577   0.527   8.400  0.1946 -1.7769 -0.0207
 1291SOL    HW2 5315   3.688   0.501   8.300 -0.3087 -0.2185 -1.0178
 1292SOL     OW 5316   7.693   7.053   6.758  0.3785  0.2594 -0.1845
 1292SOL    HW1 5317   7.763   7.098   6.710  0.3190 -0.5062 -1.0160
 1292SOL    HW2 5318   7.614   7.104   6.738  0.7686  1.4634  1.2201
 1293SOL     OW 5319   1.370   7.789   0.878  0.1058 -0.3386  0.1122
 1293SOL    HW1 5320   1.389   7.720   0.814 -0.2419 -1.2940  0.9975
 1293SOL    HW2 5321   1.356   7.867   0.826  1.0859 -0.8102 -0.8904
 1294SOL     OW 5322   6.282   2.148   6.409  0.1055  0.2361  0.0966
 1294SOL    HW1 5323   6.287   2.238   6.378  0.3158 -0.1949 -1.1944
 1294SOL    HW2 5324   6.279   2.155   6.504  0.9596  1.5710  0.0469
 1295SOL     OW 5325   7.070   7.860  12.298  0.6331  1.1225 -0.0712
 1295SOL    HW1 5326   7.158   7.880  12.331  1.2284 -1.3748  0.0594
 1295SOL    HW2 5327   7.031   7.945  12.282  2.7592  2.3318  0.7089
 1296SOL     OW 5328   3.145   2.199  12.438  0.2442 -0.1608  0.5612
 1296SOL    HW1 5329   3.235   2.230  12.434  0.0125  0.5367  0.7267
 1296SOL    HW2 5330   3.153   2.104  12.447  0.9519 -0.2490 -0.7926
 1297SOL     OW 5331   6.225   2.666   2.750 -0.3524 -0.1184  0.1573
 1297SOL    HW1 5332   6.314   2.676   2.782 -0.1397  0.4654 -0.5754
 1297SOL    HW2 5333   6.231   2.601   2.681 -0.0828  1.4218 -1.3439
 1298SOL     OW 5334   2.538   1.767   4.361 -0.6283 -0.1214 -0.9383
 1298SOL    HW1 5335   2.454   1.753   4.405  1.1107 -1.9846  2.0917
 1298SOL    HW2 5336   2.564   1.855   4.386 -0.8855 -0.1875 -0.4261
 1299SOL     OW 5337   1.732   4.659   7.975 -0.4062  0.0017  0.0639
 1299SOL    HW1 5338   1.671   4.604   7.926 -0.4721 -0.1623  0.3310
 1299SOL    HW2 5339   1.792   4.693   7.908 -0.5747 -0.1154 -0.1491
 1300SOL     OW 5340   3.890   7.254   3.744 -0.2446 -0.0655  0.1698
 1300SOL    HW1 5341   3.801   7.255   3.779 -0.1456  0.6133  0.4060
 1300SOL    HW2 5342   3.880   7.226   3.653 -0.7234  0.2147  0.1359
 1301SOL     OW 5343   2.866   0.597   1.718 -0.0719 -0.0879 -0.5851
 1301SOL    HW1 5344   2.801   0.531   1.694 -1.2533  1.1991 -1.1439
 1301SOL    HW2 5345   2.872   0.592   1.813 -1.3221  0.0126 -0.4760
 1302SOL     OW 5346   1.100   0.669   0.046  0.2399  0.2123 -0.4517
 1302SOL    HW1 5347   1.056   0.716   0.117 -0.1637  0.1761 -0.6814
 1302SOL    HW2 5348   1.116   0.736  -0.020  1.0568  0.3540 -0.1310
 1303SOL     OW 5349   3.064   7.671   2.391  0.0088  0.7598  0.3003
 1303SOL    HW1 5350   3.100   7.678   2.480  2.4503 -1.2153 -0.4343
 1303SOL    HW2 5351   3.111   7.738   2.342 -0.5254  1.0839  0.2170
 1304SOL     OW 5352   5.126   5.827   9.900 -0.0383 -0.2775  0.0112
 1304SOL    HW1 5353   5.184   5.903   9.904 -0.7684  0.2763  0.2298
 1304SOL    HW2 5354   5.119   5.797   9.991  0.0302 -0.4426 -0.0376
 1305SOL     OW 5355   3.288   6.919  10.013  0.2472 -0.0819 -1.1359
 1305SOL    HW1 5356   3.329   6.852   9.957 -0.8631  0.7053 -2.9707
 1305SOL    HW2 5357   3.199   6.927   9.980 -0.6174  0.1458  1.0559
 1306SOL     OW 5358   1.097   2.957   0.407  0.2130  0.1276  0.4631
 1306SOL    HW1 5359   1.080   3.049   0.385  0.0704 -0.0180 -0.0230
 1306SOL    HW2 5360   1.141   2.921   0.330 -0.7327 -0.5093  0.2087
 1307SOL     OW 5361   2.391   1.706   4.014  0.1519  0.5322 -0.0070
 1307SOL    HW1 5362   2.440   1.775   3.970  0.9338 -0.1814 -0.2714
 1307SOL    HW2 5363   2.451   1.670   4.079 -0.0837 -0.2148 -0.1880
 1308SOL     OW 5364   6.728   0.762   6.320  0.6110 -0.0659 -0.1054
 1308SOL    HW1 5365   6.768   0.848   6.309 -1.5791  1.3532  1.9783
 1308SOL    HW2 5366   6.637   0.780   6.343  0.3731 -2.8673  1.7578
 1309SOL     OW 5367   6.701   0.811  11.111  0.1275 -0.1590 -0.1961
 1309SOL    HW1 5368   6.698   0.907  11.107  0.1245 -0.1641 -0.3520
 1309SOL    HW2 5369   6.727   0.785  11.022  0.1796 -0.3006 -0.1387
 1310SOL     OW 5370   5.583   5.912  11.187  0.4151  0.2581 -0.7861
 1310SOL    HW1 5371   5.494   5.946  11.193  0.6655  0.7195  3.1777
 1310SOL    HW2 5372   5.575   5.830  11.139 -1.4647  2.0149 -3.7024
 1311SOL     OW 5373   6.809   3.715   2.146  0.0017 -0.1976  0.2226
 1311SOL    HW1 5374   6.835   3.704   2.054  0.3285  0.6924  0.2044
 1311SOL    HW2 5375   6.839   3.802   2.169 -1.8591  0.3889  0.5860
 1312SOL     OW 5376   7.324   2.819  10.127 -0.1619 -0.3150 -0.3957
 1312SOL    HW1 5377   7.318   2.749  10.193  0.6061 -0.8640 -0.8930
 1312SOL    HW2 5378   7.286   2.781  10.048  1.8540 -0.8593 -1.1845
 1313SOL     OW 5379   3.464   0.885  11.192 -0.4832 -0.2810 -0.0291
 1313SOL    HW1 5380   3.535   0.934  11.149  1.7370 -2.8448  0.4838
 1313SOL    HW2 5381   3.411   0.852  11.120 -1.0251  1.3826 -0.4397
 1314SOL     OW 5382   7.864   4.336   6.184 -0.0878  0.3832  0.0307
 1314SOL    HW1 5383   7.771   4.323   6.203 -0.0716  0.0811 -0.0875
 1314SOL    HW2 5384   7.904   4.251   6.203 -0.1234 -0.0390 -1.6964
 1315SOL     OW 5385   5.113   5.882  11.508 -0.3477 -0.2156  0.2927
 1315SOL    HW1 5386   5.198   5.850  11.539  1.0991  0.7915 -2.3269
 1315SOL    HW2 5387   5.125   5.976  11.499 -1.9434  0.0157  0.3637
 1316SOL     OW 5388   5.799   3.776   1.059  0.0226 -0.1007 -0.5397
 1316SOL    HW1 5389   5.795   3.758   0.965 -0.4584  1.9922 -0.9557
 1316SOL    HW2 5390   5.798   3.871   1.066  2.0076 -0.1351  1.5137
 1317SOL     OW 5391   2.066   2.180   8.820 -0.7425  0.2698  0.1416
 1317SOL    HW1 5392   2.093   2.268   8.796 -1.8429  0.3646 -0.8312
 1317SOL    HW2 5393   2.075   2.129   8.739 -3.9324  0.4545 -0.4590
 1318SOL     OW 5394   1.963   0.239  11.462  0.4711 -0.5407  0.6342
 1318SOL    HW1 5395   1.966   0.208  11.372 -1.0041 -0.2895  0.4777
 1318SOL    HW2 5396   1.870   0.249  11.481  0.8000  1.7890  1.3580
 1319SOL     OW 5397   0.170   0.860   0.333  0.0462 -0.1910  0.0446
 1319SOL    HW1 5398   0.250   0.860   0.385 -0.5224  0.1394  0.9334
 1319SOL    HW2 5399   0.137   0.950   0.337 -0.3384 -0.3057 -0.3646
 1320SOL     OW 5400   3.964   0.640   6.482 -0.4359 -0.1949 -0.1889
 1320SOL    HW1 5401   3.921   0.689   6.412 -2.2761 -2.0467 -0.4856
 1320SOL    HW2 5402   3.892   0.596   6.527  0.7736  0.3572  2.4444
 1321SOL     OW 5403   7.338   7.910   8.765 -0.6951  0.5092  0.4926
 1321SOL    HW1 5404   7.396   7.862   8.825  1.0863  0.6801 -0.9886
 1321SOL    HW2 5405   7.329   7.997   8.805 -1.8764 -0.2434  1.9173
 1322SOL     OW 5406   6.148   0.806   3.319  0.0059  0.3650  0.4147
 1322SOL    HW1 5407   6.098   0.885   3.300 -0.4507 -0.1534 -0.6746
 1322SOL    HW2 5408   6.181   0.777   3.234 -0.8742 -1.2684  0.5761
 1323SOL     OW 5409   5.557   6.464   2.360  0.3461 -0.0417  0.1463
 1323SOL    HW1 5410   5.554   6.552   2.399  0.1338  0.2913 -0.6092
 1323SOL    HW2 5411   5.601   6.411   2.427 -0.6542  0.3414  1.1560
 1324SOL     OW 5412   5.617   5.281   8.744  0.4580  0.0655 -0.0565
 1324SOL    HW1 5413   5.612   5.326   8.660  1.8271  0.4838  0.0660
 1324SOL    HW2 5414   5.563   5.202   8.732  1.2410 -0.2772 -1.5864
 1325SOL     OW 5415   0.092   0.484  11.730 -0.5959  0.3210 -0.1061
 1325SOL    HW1 5416   0.187   0.475  11.735 -0.4044  0.1654 -2.6212
 1325SOL    HW2 5417   0.072   0.477  11.637 -3.0453  0.8158  0.3024
 1326SOL     OW 5418   7.518   4.819   6.332  0.1170 -0.0081  0.3573
 1326SOL    HW1 5419   7.423   4.822   6.345  0.1979  1.9719  0.9284
 1326SOL    HW2 5420   7.553   4.805   6.420  0.3712 -3.3870 -0.1581
 1327SOL     OW 5421   7.369   6.872   8.417  0.5402  0.2274  0.4521
 1327SOL    HW1 5422   7.431   6.874   8.344  0.2369 -0.7739  0.1422
 1327SOL    HW2 5423   7.290   6.913   8.383  0.6762  0.5161  0.4869
 1328SOL     OW 5424   7.119   3.786   2.311 -0.2766  0.6695  0.2744
 1328SOL    HW1 5425   7.132   3.738   2.230  0.3246 -1.9918  1.8025
 1328SOL    HW2 5426   7.051   3.851   2.291 -1.5454 -1.1796 -1.8422
 1329SOL     OW 5427   1.228   3.890   5.736  0.1304  0.0406 -0.2947
 1329SOL    HW1 5428   1.148   3.942   5.740 -0.9543 -1.4906 -1.0742
 1329SOL    HW2 5429   1.282   3.934   5.670 -0.9031  0.0201 -1.1782
 1330SOL     OW 5430   1.971   1.101   0.307 -0.3713  0.4073  0.0533
 1330SOL    HW1 5431   2.046   1.105   0.365 -0.2265  2.0315 -0.1909
 1330SOL    HW2 5432   1.914   1.035   0.345  0.2912  0.5436  1.3196
 1331SOL     OW 5433   3.569   1.613   6.599 -0.3392 -0.6333 -0.1426
 1331SOL    HW1 5434   3.532   1.604   6.687 -2.1215  0.3817 -0.7399
 1331SOL    HW2 5435   3.660   1.637   6.613 -0.7937  0.2679  1.4464
 1332SOL     OW 5436   1.157   4.066   7.765 -0.3330 -0.6633 -0.5296
 1332SOL    HW1 5437   1.217   4.037   7.833  0.3299  0.6427 -0.5233
 1332SOL    HW2 5438   1.179   4.012   7.689 -0.6714 -1.7099  0.0968
 1333SOL     OW 5439   4.648   5.039   7.699 -0.1525 -0.5079  0.2632
 1333SOL    HW1 5440   4.737   5.073   7.694  0.1596 -1.1065  1.3299
 1333SOL    HW2 5441   4.657   4.955   7.745 -1.4670  0.2358  2.0180
 1334SOL     OW 5442   5.591   2.988   2.463  0.0218 -0.1824  0.1302
 1334SOL    HW1 5443   5.639   2.946   2.534 -0.0705 -0.4335  0.0476
 1334SOL    HW2 5444   5.502   2.951   2.470  0.0606 -0.3502 -0.2277
 1335SOL     OW 5445   1.834   0.431   9.659 -0.0883  1.0306 -0.1005
 1335SOL    HW1 5446   1.908   0.392   9.614 -0.3153  0.9015 -0.3611
 1335SOL    HW2 5447   1.797   0.493   9.597  0.3813  1.8080  0.3754
 1336SOL     OW 5448   4.103   2.252   6.270  0.4455 -0.4110 -0.2723
 1336SOL    HW1 5449   4.052   2.204   6.204  1.1964 -0.7060 -0.6455
 1336SOL    HW2 5450   4.101   2.343   6.239 -0.5295 -0.2727  0.1523
 1337SOL     OW 5451   2.962   2.148   5.728 -0.0850  0.3891  0.0100
 1337SOL    HW1 5452   2.932   2.060   5.750 -1.6635  0.5604 -1.2062
 1337SOL    HW2 5453   3.014   2.136   5.648  0.0065  0.5084  0.0519
 1338SOL     OW 5454   4.066   3.375   9.308 -0.0406 -0.4002 -0.2972
 1338SOL    HW1 5455   3.993   3.374   9.369  0.2129 -1.5049  0.0101
 1338SOL    HW2 5456   4.030   3.411   9.227 -0.8371 -0.6067 -0.0372
 1339SOL     OW 5457   6.201   3.206  11.954  0.0789 -0.1278  0.0363
 1339SOL    HW1 5458   6.107   3.192  11.964  0.2910 -2.2741 -0.3688
 1339SOL    HW2 5459   6.241   3.141  12.012  1.2702 -0.5405 -1.1909
 1340SOL     OW 5460   5.083   1.352  10.040 -0.0120 -0.0612 -0.2870
 1340SOL    HW1 5461   5.090   1.411  10.115  1.0105  0.4680 -0.7781
 1340SOL    HW2 5462   5.016   1.288  10.066 -0.8787  1.0870  0.3945
 1341SOL     OW 5463   6.080   5.173   0.443  0.4184 -0.4635 -0.2062
 1341SOL    HW1 5464   6.055   5.091   0.486  1.1330 -0.3096  0.5292
 1341SOL    HW2 5465   6.173   5.162   0.424  0.6133  0.3300  0.2692
 1342SOL     OW 5466   2.508   7.770   9.385 -0.0473  0.6060  0.5902
 1342SOL    HW1 5467   2.497   7.774   9.290  1.1828  0.2030  0.4086
 1342SOL    HW2 5468   2.451   7.698   9.413 -0.1381  0.4931  0.1193
 1343SOL     OW 5469   1.202   5.363   1.209  0.5910 -0.3556  0.3440
 1343SOL    HW1 5470   1.254   5.285   1.227  1.3812  0.3412  1.1690
 1343SOL    HW2 5471   1.266   5.433   1.198 -0.1497  0.5399  1.4877
 1344SOL     OW 5472   5.767   0.988   6.290  0.0180  0.5071  0.0065
 1344SOL    HW1 5473   5.855   1.024   6.293  0.1649  0.1331  0.1725
 1344SOL    HW2 5474   5.710   1.065   6.293  0.3064  0.7003  1.3670
 1345SOL     OW 5475   4.350   3.528   2.585 -0.1019  0.3213 -0.1496
 1345SOL    HW1 5476   4.326   3.546   2.675 -1.2524  1.2885 -0.6324
 1345SOL    HW2 5477   4.373   3.614   2.548  2.1600 -0.2705 -0.3009
 1346SOL     OW 5478   5.233   0.683  11.833 -0.1489  0.3206  0.0799
 1346SOL    HW1 5479   5.308   0.668  11.891  0.5128  0.8992 -0.6106
 1346SOL    HW2 5480   5.264   0.746  11.768 -0.9295 -0.1761 -0.8059
 1347SOL     OW 5481   7.092   3.315   0.823  0.3141  0.0333 -0.1685
 1347SOL    HW1 5482   7.172   3.261   0.822  0.2066 -0.1750  1.2975
 1347SOL    HW2 5483   7.057   3.306   0.734  2.0650  0.3592 -0.9359
 1348SOL     OW 5484   1.360   3.489  10.455  0.1633 -0.5940  0.3829
 1348SOL    HW1 5485   1.394   3.453  10.537  1.2017 -0.4550  0.0339
 1348SOL    HW2 5486   1.273   3.451  10.447  1.1145 -2.9343  0.1358
 1349SOL     OW 5487   5.920   0.795   7.590 -0.1609  0.0523 -0.3715
 1349SOL    HW1 5488   5.918   0.780   7.684 -0.3476  0.0587 -0.3741
 1349SOL    HW2 5489   5.857   0.866   7.575 -0.3886 -0.1849 -0.5440
 1350SOL     OW 5490   1.302   6.146   5.357 -0.2156 -0.5287  0.3230
 1350SOL    HW1 5491   1.223   6.147   5.411  0.4386 -1.3807  1.3285
 1350SOL    HW2 5492   1.281   6.084   5.287 -0.9736  0.3916 -0.2965
 1351SOL     OW 5493   5.880   2.711   8.590  0.3363  0.0449 -0.4507
 1351SOL    HW1 5494   5.808   2.766   8.620  0.0602 -0.2187 -0.6279
 1351SOL    HW2 5495   5.906   2.749   8.506  1.5193  1.1624  0.3771
 1352SOL     OW 5496   4.299   1.400  10.939  0.1959 -0.3726 -0.3364
 1352SOL    HW1 5497   4.248   1.472  10.977 -0.4619 -1.0679  0.1368
 1352SOL    HW2 5498   4.387   1.435  10.930 -0.2403  0.6829 -0.6616
 1353SOL     OW 5499   5.624   6.511   7.331  0.6984 -0.3580  0.3218
 1353SOL    HW1 5500   5.629   6.500   7.236  2.7342 -1.5002  0.5053
 1353SOL    HW2 5501   5.585   6.429   7.363 -0.8848  0.4001  0.4562
 1354SOL     OW 5502   6.291   7.141   1.558  0.0459  0.5591  0.1012
 1354SOL    HW1 5503   6.269   7.090   1.637 -1.2302 -1.3425 -1.3667
 1354SOL    HW2 5504   6.324   7.076   1.496  1.9146  2.1546 -0.6540
 1355SOL     OW 5505   3.472   5.305   4.322  0.1247  0.1192 -0.6645
 1355SOL    HW1 5506   3.435   5.389   4.293  2.0053  0.6529 -1.6224
 1355SOL    HW2 5507   3.546   5.329   4.377 -0.9126 -0.9443  1.3305
 1356SOL     OW 5508   6.170   3.401   9.986  0.4989 -0.2246 -0.2088
 1356SOL    HW1 5509   6.236   3.411  10.054  1.2494  0.2113 -0.9670
 1356SOL    HW2 5510   6.190   3.317   9.945  1.9312  0.7924 -1.7671
 1357SOL     OW 5511   5.829   4.365  10.428  0.1308 -0.3321 -0.0401
 1357SOL    HW1 5512   5.764   4.429  10.458  1.1863 -0.2862  2.3530
 1357SOL    HW2 5513   5.793   4.281  10.455  0.8885 -0.3281  1.0257
 1358SOL     OW 5514   1.928   7.349  10.007 -0.4002 -0.1743  0.3210
 1358SOL    HW1 5515   1.963   7.385  10.088  1.0752 -1.4547  0.2845
 1358SOL    HW2 5516   1.895   7.263  10.031  2.2809 -1.6441 -0.8088
 1359SOL     OW 5517   1.381   1.055  10.254  0.1223  0.0462 -0.0828
 1359SOL    HW1 5518   1.463   1.103  10.259  0.8755 -0.9913 -1.8538
 1359SOL    HW2 5519   1.364   1.027  10.344  1.5900  0.4357  0.3384
 1360SOL     OW 5520   2.659   5.757   3.037 -0.1974  0.6243 -0.4116
 1360SOL    HW1 5521   2.653   5.732   2.945  0.2870 -0.8399 -0.0759
 1360SOL    HW2 5522   2.585   5.712   3.079 -0.7580  1.7525 -0.1721
 1361SOL     OW 5523   7.020   3.659   1.591  0.4445  0.0994 -0.4423
 1361SOL    HW1 5524   6.941   3.673   1.539  1.5443 -0.5511 -2.3897
 1361SOL    HW2 5525   7.041   3.566   1.579  2.0882  0.4831 -0.8830
 1362SOL     OW 5526   7.312   1.787   1.836  0.2179 -0.0036 -0.1106
 1362SOL    HW1 5527   7.228   1.825   1.862  0.2670  0.6413 -0.8661
 1362SOL    HW2 5528   7.288   1.703   1.795  0.1634 -1.2012  2.2228
 1363SOL     OW 5529   3.091   5.769   7.164 -0.0415  0.3570 -0.1555
 1363SOL    HW1 5530   3.080   5.773   7.069 -1.2504  0.4007 -0.0247
 1363SOL    HW2 5531   3.173   5.721   7.176  1.0781  1.9016 -1.2498
 1364SOL     OW 5532   1.237   0.736   3.739  0.5179  0.2043  0.2073
 1364SOL    HW1 5533   1.237   0.728   3.835 -0.1544  1.6746  0.3519
 1364SOL    HW2 5534   1.259   0.828   3.723 -1.7225  0.5829 -0.9649
 1365SOL     OW 5535   6.388   7.918   0.594 -0.0252 -0.2398 -0.1019
 1365SOL    HW1 5536   6.424   7.989   0.542  0.2255 -0.6512 -0.4955
 1365SOL    HW2 5537   6.294   7.918   0.573  0.4991 -2.4581 -3.1304
 1366SOL     OW 5538   4.646   2.681   4.792 -0.4948 -0.2990  0.2993
 1366SOL    HW1 5539   4.582   2.672   4.863  1.7500  1.2394  2.7384
 1366SOL    HW2 5540   4.713   2.740   4.828  1.7032 -0.8749 -2.4810
 1367SOL     OW 5541   2.443   3.673   2.429 -0.2329  0.4275  0.4257
 1367SOL    HW1 5542   2.349   3.662   2.415 -0.0789 -0.6280  0.1731
 1367SOL    HW2 5543   2.483   3.600   2.383  0.7940  1.4979 -0.4236
 1368SOL     OW 5544   2.885   4.094   6.583 -0.0370  0.3052  0.4456
 1368SOL    HW1 5545   2.845   4.007   6.585  0.9787 -0.1974  3.1516
 1368SOL    HW2 5546   2.835   4.144   6.647  2.5691  0.0844  2.8381
 1369SOL     OW 5547   3.303   3.296   2.261 -0.0749 -0.0625  0.7350
 1369SOL    HW1 5548   3.327   3.219   2.208 -0.3195  0.3433  0.0138
 1369SOL    HW2 5549   3.208   3.292   2.269 -0.0267 -0.1879  1.2552
 1370SOL     OW 5550   7.663   5.321   1.105 -0.6875  0.2334 -0.6120
 1370SOL    HW1 5551   7.641   5.393   1.045  0.2505  0.5703 -0.5751
 1370SOL    HW2 5552   7.608   5.336   1.182 -0.5502  0.8711 -0.6329
 1371SOL     OW 5553   2.593   5.584   7.628  0.3277 -0.8777  0.9727
 1371SOL    HW1 5554   2.616   5.654   7.566 -0.2750 -0.5640  1.0983
 1371SOL    HW2 5555   2.611   5.503   7.580  0.2983 -0.6348  0.5481
 1372SOL     OW 5556   3.550   7.578  12.304 -0.3074  0.1365 -0.1674
 1372SOL    HW1 5557   3.465   7.534  12.297 -0.4787 -0.4269  3.4264
 1372SOL    HW2 5558   3.611   7.508  12.327  0.2767  1.1116  1.3786
 1373SOL     OW 5559   2.940   2.754  12.018 -0.3060  0.2025  0.8954
 1373SOL    HW1 5560   2.965   2.818  11.952 -0.8129 -3.3196 -3.1727
 1373SOL    HW2 5561   3.017   2.699  12.030 -1.0333 -0.8183  1.1124
 1374SOL     OW 5562   0.875   0.603   7.133 -0.2240 -0.2255  0.3675
 1374SOL    HW1 5563   0.825   0.521   7.135 -0.8949  0.1540 -0.3406
 1374SOL    HW2 5564   0.882   0.624   7.040  1.1937 -0.2173  0.4552
 1375SOL     OW 5565   2.730   3.325   1.818  0.1840 -0.1524  0.1942
 1375SOL    HW1 5566   2.649   3.303   1.863 -0.0012 -0.1008 -0.1122
 1375SOL    HW2 5567   2.711   3.407   1.772 -0.0807 -0.9443 -1.1386
 1376SOL     OW 5568   7.465   1.438   4.866 -0.5332  0.1153  0.2994
 1376SOL    HW1 5569   7.489   1.422   4.957 -0.6730 -1.1266  0.1308
 1376SOL    HW2 5570   7.540   1.407   4.816  0.1615  2.1093  0.0240
 1377SOL     OW 5571   2.703   6.811   6.243 -0.3764 -0.3925  0.8708
 1377SOL    HW1 5572   2.697   6.826   6.148 -1.6280 -0.0046  0.9987
 1377SOL    HW2 5573   2.792   6.779   6.256  1.8407  4.4544  0.1855
 1378SOL     OW 5574   3.480   3.760   1.205 -0.0275  0.1329 -0.3279
 1378SOL    HW1 5575   3.479   3.746   1.110  0.9392 -0.4379 -0.2676
 1378SOL    HW2 5576   3.404   3.815   1.222  0.1527  0.7768 -1.5180
 1379SOL     OW 5577   7.058   3.121   9.670  0.4472 -0.2264 -0.3688
 1379SOL    HW1 5578   7.116   3.082   9.605 -1.0730  0.6398 -2.3546
 1379SOL    HW2 5579   6.972   3.124   9.628 -0.8334 -0.3788  2.0067
 1380SOL     OW 5580   4.744   4.588   7.183 -0.1437  0.4399 -0.8831
 1380SOL    HW1 5581   4.745   4.680   7.210  0.4541  0.2322 -0.1525
 1380SOL    HW2 5582   4.658   4.575   7.143  0.1589  1.5801 -1.9658
 1381SOL     OW 5583   4.522   4.425   2.133 -0.1872  0.1239 -0.1226
 1381SOL    HW1 5584   4.482   4.384   2.057 -2.1153  1.1805  0.2478
 1381SOL    HW2 5585   4.557   4.508   2.100 -0.6466  0.3919  0.0685
 1382SOL     OW 5586   5.470   7.020  11.822 -0.0529 -0.5008 -0.0780
 1382SOL    HW1 5587   5.555   7.010  11.865 -0.0803 -0.4710 -0.0173
 1382SOL    HW2 5588   5.492   7.046  11.732  0.0027 -0.5013 -0.0652
 1383SOL     OW 5589   0.035   3.279   9.302 -0.0487 -0.1144  0.5511
 1383SOL    HW1 5590   0.094   3.220   9.349 -0.2670  0.0065  0.9751
 1383SOL    HW2 5591  -0.023   3.314   9.369 -1.9533 -1.7626 -0.1446
 1384SOL     OW 5592   7.092   2.664   4.291 -0.6966 -0.3537  0.2072
 1384SOL    HW1 5593   7.025   2.620   4.239 -1.5658 -0.0030  1.0048
 1384SOL    HW2 5594   7.168   2.606   4.288 -1.1807 -0.9620 -0.3490
 1385SOL     OW 5595   0.234   2.865   4.608 -0.2744  0.2964  0.6355
 1385SOL    HW1 5596   0.321   2.875   4.568  0.5681 -0.1046  2.2768
 1385SOL    HW2 5597   0.179   2.834   4.536  1.3540 -1.1420 -0.0806
 1386SOL     OW 5598   4.834   5.493  10.563 -0.1805  0.0088 -0.1587
 1386SOL    HW1 5599   4.825   5.418  10.504 -1.2180 -0.1487  0.1769
 1386SOL    HW2 5600   4.852   5.567  10.506  1.8207 -0.6258 -0.4332
 1387SOL     OW 5601   3.474   7.155  10.106 -0.1402  0.5729  0.5013
 1387SOL    HW1 5602   3.536   7.147  10.179  0.2595  0.7321  0.1845
 1387SOL    HW2 5603   3.457   7.064  10.080  1.3706  0.5491 -0.5662
 1388SOL     OW 5604   0.205   3.495   4.967  0.1121 -0.5991  0.4034
 1388SOL    HW1 5605   0.122   3.526   4.931 -0.6124 -1.3037  1.4297
 1388SOL    HW2 5606   0.210   3.536   5.054  0.4251 -1.2437  0.6915
 1389SOL     OW 5607   1.402   6.665   5.124  0.4945 -0.0146 -0.5790
 1389SOL    HW1 5608   1.444   6.689   5.207 -0.5112 -1.8267  0.5168
 1389SOL    HW2 5609   1.322   6.717   5.121  0.4852 -0.0185 -0.3866
 1390SOL     OW 5610   6.176   6.060   5.483  0.6163  0.7190 -0.5808
 1390SOL    HW1 5611   6.094   6.016   5.461 -0.6203  2.4973  0.3133
 1390SOL    HW2 5612   6.199   6.108   5.403  1.3771 -0.5383 -1.1700
 1391SOL     OW 5613   6.741   1.873   3.342  0.2706  0.0436  0.2865
 1391SOL    HW1 5614   6.679   1.801   3.331 -1.7171  1.5826  0.6052
 1391SOL    HW2 5615   6.781   1.858   3.427  0.1149 -0.8368  0.2139
 1392SOL     OW 5616   0.673   1.184  11.969  0.3877 -0.2858  0.3614
 1392SOL    HW1 5617   0.609   1.113  11.972  0.7443 -0.6060  0.4454
 1392SOL    HW2 5618   0.644   1.246  12.035 -0.0650 -0.2340  0.1174
 1393SOL     OW 5619   0.440   3.776   2.483  0.2707 -0.2504  0.1676
 1393SOL    HW1 5620   0.417   3.858   2.440 -2.0019 -1.0868 -0.3725
 1393SOL    HW2 5621   0.464   3.801   2.572  1.9349  1.1873 -0.6181
 1394SOL     OW 5622   2.993   0.595   1.979  0.0965  0.1693  0.0971
 1394SOL    HW1 5623   3.046   0.671   2.001  0.5711 -0.0677 -0.2097
 1394SOL    HW2 5624   2.954   0.568   2.063  0.5122  0.3077  0.3389
 1395SOL     OW 5625   3.049   0.297   4.110 -0.1496  0.4119 -0.3553
 1395SOL    HW1 5626   3.120   0.356   4.136 -1.9122  0.8875  4.1769
 1395SOL    HW2 5627   3.077   0.210   4.140 -0.3811  0.1186 -0.9666
 1396SOL     OW 5628   1.928   3.310   8.412  0.6282 -0.2403  0.2120
 1396SOL    HW1 5629   1.870   3.377   8.449 -1.8430 -1.5623 -1.0409
 1396SOL    HW2 5630   1.928   3.240   8.477 -2.1072 -1.7091 -1.2074
 1397SOL     OW 5631   6.533   4.846   3.210  0.0369  0.2771  0.0359
 1397SOL    HW1 5632   6.519   4.903   3.286  1.3389  0.4216  0.1921
 1397SOL    HW2 5633   6.561   4.763   3.247  1.6326  0.6390 -0.2740
 1398SOL     OW 5634   4.487   6.491   3.588 -0.2204  0.2520  0.3790
 1398SOL    HW1 5635   4.411   6.444   3.621 -0.3213 -0.0775 -0.3118
 1398SOL    HW2 5636   4.536   6.515   3.667 -1.0255  0.4651  0.8321
 1399SOL     OW 5637   0.394   6.034   8.302 -0.1806  0.1206 -0.1894
 1399SOL    HW1 5638   0.388   6.091   8.225 -0.8412 -0.9433 -0.9536
 1399SOL    HW2 5639   0.450   5.962   8.273  0.6376  0.3444  0.7640
 1400SOL     OW 5640   7.282   4.318   7.238  0.1423  0.0840  0.5555
 1400SOL    HW1 5641   7.302   4.412   7.237 -0.1325  0.2424 -3.0732
 1400SOL    HW2 5642   7.363   4.277   7.267  1.3598  1.3397 -0.8645
 1401SOL     OW 5643   7.691   4.009   4.212  0.0630  0.4839 -0.1616
 1401SOL    HW1 5644   7.701   4.044   4.300 -1.2564  0.7162 -0.0905
 1401SOL    HW2 5645   7.779   4.015   4.174  1.2289 -1.8084  1.9013
 1402SOL     OW 5646   0.650   2.959   7.567  0.5109 -0.2984  0.3123
 1402SOL    HW1 5647   0.699   2.904   7.628  1.6086  0.2583 -0.0451
 1402SOL    HW2 5648   0.593   2.898   7.521 -0.2805 -0.7375  1.8213
 1403SOL     OW 5649   2.282   5.148   9.296 -0.3179 -0.4196 -0.7825
 1403SOL    HW1 5650   2.345   5.092   9.342  0.2683 -0.5173 -1.6674
 1403SOL    HW2 5651   2.237   5.089   9.236 -1.8516 -0.5100  0.3887
 1404SOL     OW 5652   7.551   4.499   7.841 -0.2096 -0.1708 -0.1758
 1404SOL    HW1 5653   7.487   4.466   7.777  1.2284 -3.3031 -0.2122
 1404SOL    HW2 5654   7.559   4.428   7.905 -0.6917  2.3481  2.9331
 1405SOL     OW 5655   6.413   6.321   3.299 -0.4154 -0.4636  0.2427
 1405SOL    HW1 5656   6.323   6.346   3.278  0.2526  0.1658 -2.1555
 1405SOL    HW2 5657   6.431   6.247   3.240  0.4399 -1.0185  1.1811
 1406SOL     OW 5658   6.651   6.906   5.087 -0.2069 -0.2923  0.0487
 1406SOL    HW1 5659   6.606   6.866   5.161 -1.5894  2.2151  0.6583
 1406SOL    HW2 5660   6.728   6.948   5.125  0.8873 -1.7147 -0.4924
 1407SOL     OW 5661   4.351   7.580   5.707 -0.0411 -0.6237 -0.0351
 1407SOL    HW1 5662   4.435   7.536   5.716 -0.0981 -0.5179  1.0630
 1407SOL    HW2 5663   4.330   7.612   5.795  0.7201  2.9257 -0.9637
 1408SOL     OW 5664   7.115   7.191   6.592 -0.0047  0.3175  0.2126
 1408SOL    HW1 5665   7.062   7.266   6.620 -1.1187 -0.5842  0.6171
 1408SOL    HW2 5666   7.064   7.152   6.521  0.1639 -0.5067  0.5328
 1409SOL     OW 5667   7.003   1.619   1.051 -0.1248  0.6231  0.5170
 1409SOL    HW1 5668   6.949   1.695   1.030 -0.6963  0.1500  0.2229
 1409SOL    HW2 5669   6.940   1.546   1.056  0.6707 -0.3095 -1.7087
 1410SOL     OW 5670   6.133   7.032  10.937 -0.9452  0.3222 -0.0439
 1410SOL    HW1 5671   6.148   7.066  10.849  0.9090  1.9533  0.8279
 1410SOL    HW2 5672   6.083   7.100  10.982  0.5091  0.8024  0.9374
 1411SOL     OW 5673   4.674   1.934   3.885 -0.3638  0.0009 -0.0148
 1411SOL    HW1 5674   4.765   1.929   3.857 -0.4101 -1.1805 -0.0317
 1411SOL    HW2 5675   4.630   1.866   3.834 -1.6128  1.6713 -1.2739
 1412SOL     OW 5676   2.526   5.095   3.266  0.1588  0.3922 -0.0973
 1412SOL    HW1 5677   2.558   5.177   3.304 -0.3864  0.1122  1.0204
 1412SOL    HW2 5678   2.605   5.050   3.236  0.6965  0.3403  1.3179
 1413SOL     OW 5679   4.300   4.701   1.296  0.1021  0.6285 -0.4810
 1413SOL    HW1 5680   4.214   4.711   1.338  0.8272  0.8542  1.0288
 1413SOL    HW2 5681   4.343   4.633   1.347  1.2926  1.4003 -0.4212
 1414SOL     OW 5682   4.010   4.961  12.115 -0.0457  0.4142  0.6035
 1414SOL    HW1 5683   4.018   5.047  12.156  0.5512  1.0193 -0.7020
 1414SOL    HW2 5684   4.081   4.909  12.154  2.1403  1.7219 -1.3188
 1415SOL     OW 5685   3.142   1.743  11.460 -0.0112 -0.1811  0.0338
 1415SOL    HW1 5686   3.116   1.831  11.487  0.5892  0.2409 -0.7298
 1415SOL    HW2 5687   3.166   1.699  11.541 -0.8267  0.1812  0.4833
 1416SOL     OW 5688   1.515   7.875   7.549 -0.3912 -0.4500 -0.4548
 1416SOL    HW1 5689   1.443   7.882   7.612  0.5659  0.9158  0.5497
 1416SOL    HW2 5690   1.554   7.962   7.548  1.4791 -1.2615 -0.6924
 1417SOL     OW 5691   5.877   1.804   0.202 -0.2635 -0.3608 -0.2679
 1417SOL    HW1 5692   5.889   1.894   0.232 -0.9835 -0.6472  0.9474
 1417SOL    HW2 5693   5.791   1.805   0.159  0.2776 -0.2052 -1.3903
 1418SOL     OW 5694   4.417   0.858  10.635 -0.9167 -0.0518 -0.1808
 1418SOL    HW1 5695   4.502   0.900  10.647 -0.9772 -0.0421  0.2293
 1418SOL    HW2 5696   4.360   0.926  10.600 -1.4099  0.6424  1.8378
 1419SOL     OW 5697   7.804   1.638   0.758  0.1530 -0.1810 -0.2417
 1419SOL    HW1 5698   7.827   1.731   0.757  0.1607 -0.0910  2.1252
 1419SOL    HW2 5699   7.877   1.596   0.804 -0.4040 -1.1640 -0.2313
 1420SOL     OW 5700   7.583   4.104   2.275  0.2167 -0.0898 -0.4517
 1420SOL    HW1 5701   7.644   4.057   2.218 -1.1234 -3.1408  0.3704
 1420SOL    HW2 5702   7.508   4.045   2.283 -1.7568  2.3849  0.5847
 1421SOL     OW 5703   4.625   2.018   4.634 -0.3559 -0.0439  0.2574
 1421SOL    HW1 5704   4.573   2.012   4.714  0.3926 -0.7367  0.7164
 1421SOL    HW2 5705   4.561   2.031   4.565 -1.4433 -3.3944  0.4665
 1422SOL     OW 5706   7.506   0.282   9.075  0.5130 -0.6057  0.0977
 1422SOL    HW1 5707   7.564   0.310   9.146  0.1869  0.3167  0.0211
 1422SOL    HW2 5708   7.563   0.236   9.014  1.1952  0.3339 -0.0066
 1423SOL     OW 5709   6.679   3.883   8.334  0.0731  0.2201 -0.1504
 1423SOL    HW1 5710   6.653   3.974   8.328  0.9590  0.5384  0.6098
 1423SOL    HW2 5711   6.634   3.849   8.411 -2.4899 -0.7991 -1.9709
 1424SOL     OW 5712   6.784   5.022   8.298 -1.1022  0.3507  0.2988
 1424SOL    HW1 5713   6.716   4.967   8.260 -0.0473  0.1788 -1.4852
 1424SOL    HW2 5714   6.753   5.043   8.385 -3.1596 -0.1696 -0.2674
 1425SOL     OW 5715   4.124   7.627   2.674  0.1465 -0.1570  0.7821
 1425SOL    HW1 5716   4.154   7.596   2.759  2.0767 -0.7021 -0.0484
 1425SOL    HW2 5717   4.173   7.708   2.659  0.9735 -0.8431 -0.4227
 1426SOL     OW 5718   5.513   7.570  10.513  0.2578  0.1447  0.1470
 1426SOL    HW1 5719   5.499   7.481  10.480 -1.7695 -0.2214  1.7485
 1426SOL    HW2 5720   5.482   7.626  10.442  0.1636 -0.4792 -0.3204
 1427SOL     OW 5721   5.560   5.229  11.046  0.3629  0.0238  0.2444
 1427SOL    HW1 5722   5.570   5.150  10.993 -1.2792 -0.4678  0.6037
 1427SOL    HW2 5723   5.642   5.277  11.035  0.5119 -0.6335 -1.7828
 1428SOL     OW 5724   0.592   4.282   0.567  0.5683  0.5314 -0.0741
 1428SOL    HW1 5725   0.525   4.216   0.550  1.5045 -0.9249  1.5374
 1428SOL    HW2 5726   0.658   4.236   0.619  3.7641  1.3468 -3.0475
 1429SOL     OW 5727   3.487   2.749   6.179  0.2586  0.1772  0.0934
 1429SOL    HW1 5728   3.458   2.758   6.269 -1.6700  1.1869 -0.5732
 1429SOL    HW2 5729   3.499   2.655   6.167  2.9257  0.1735  2.0370
 1430SOL     OW 5730   0.344   1.979   3.100 -0.2049  0.1378  0.2912
 1430SOL    HW1 5731   0.249   1.972   3.109  0.0106 -0.6680  2.8140
 1430SOL    HW2 5732   0.358   2.060   3.052 -2.1579  0.1537 -0.3434
 1431SOL     OW 5733   4.867   2.888  11.247  0.1562 -0.0367 -0.6203
 1431SOL    HW1 5734   4.798   2.920  11.190 -0.6743 -0.3092  0.2090
 1431SOL    HW2 5735   4.876   2.956  11.314 -0.1542 -0.5425 -0.0489
 1432SOL     OW 5736   0.639   6.668   1.955  0.4387  0.0635  0.0199
 1432SOL    HW1 5737   0.580   6.659   2.030 -1.5113  0.1606 -1.4167
 1432SOL    HW2 5738   0.641   6.762   1.937  1.0337  0.0601  0.0677
 1433SOL     OW 5739   5.505   2.716   3.878  0.1917  0.0300  0.2836
 1433SOL    HW1 5740   5.415   2.741   3.855 -0.0080 -2.1268 -1.7169
 1433SOL    HW2 5741   5.515   2.741   3.970 -1.2889  3.3175 -0.3243
 1434SOL     OW 5742   7.326   3.630  12.465  0.2951 -0.2447  0.1337
 1434SOL    HW1 5743   7.351   3.557  12.521  1.1855  0.4535  0.6698
 1434SOL    HW2 5744   7.312   3.704  12.525  0.4167  0.2905 -0.4787
 1435SOL     OW 5745   4.988   5.096  10.848  0.2833  0.0157  0.2536
 1435SOL    HW1 5746   4.939   5.021  10.882  1.5752 -1.5328 -1.1284
 1435SOL    HW2 5747   4.931   5.134  10.782 -0.7676  0.8822  1.6022
 1436SOL     OW 5748   0.679   1.798   2.566 -0.0314 -0.2965 -0.0177
 1436SOL    HW1 5749   0.740   1.727   2.585 -1.1572 -1.2584  0.1089
 1436SOL    HW2 5750   0.724   1.877   2.596  0.3730 -1.1866  1.8182
 1437SOL     OW 5751   2.608   5.520   4.861  0.1862  1.1920 -0.0065
 1437SOL    HW1 5752   2.553   5.587   4.820  0.9407  0.1077 -3.0388
 1437SOL    HW2 5753   2.697   5.553   4.851  0.3666  1.4686  2.0465
 1438SOL     OW 5754   7.452   0.562   9.551  0.0503  0.4129  0.0121
 1438SOL    HW1 5755   7.428   0.551   9.459  1.7261  1.0389 -0.5455
 1438SOL    HW2 5756   7.497   0.481   9.574  1.1861  0.9362 -0.2800
 1439SOL     OW 5757   0.380   2.095   5.999 -1.0954 -0.0685 -0.2699
 1439SOL    HW1 5758   0.312   2.145   6.044 -1.1705 -0.1741 -0.2653
 1439SOL    HW2 5759   0.353   2.097   5.907 -0.1498  1.4265 -0.5421
 1440SOL     OW 5760   4.041   0.624   3.444  0.5110  0.2567 -0.1425
 1440SOL    HW1 5761   3.999   0.635   3.358  1.7178 -0.0053 -0.7848
 1440SOL    HW2 5762   3.967   0.617   3.505 -0.5074 -2.8975 -1.5239
 1441SOL     OW 5763   2.752   1.256   1.068  0.2497 -0.0199  0.0997
 1441SOL    HW1 5764   2.823   1.286   1.125  0.7221  0.1990 -0.5887
 1441SOL    HW2 5765   2.797   1.206   0.999 -0.2939 -0.1176 -0.1845
 1442SOL     OW 5766   0.090   3.076   8.930 -0.5009  0.5912 -0.5060
 1442SOL    HW1 5767   0.021   3.124   8.978  0.6244  0.0106  1.8250
 1442SOL    HW2 5768   0.148   3.043   8.998  1.8422  0.6070 -2.3614
 1443SOL     OW 5769   0.350   4.785  10.904 -0.5035  0.1212 -0.4816
 1443SOL    HW1 5770   0.337   4.776  10.999  0.5279  0.4475 -0.2857
 1443SOL    HW2 5771   0.408   4.711  10.882  0.8099  1.1153 -0.4852
 1444SOL     OW 5772   0.591   0.906   0.703  0.1897  0.3908  0.1581
 1444SOL    HW1 5773   0.662   0.931   0.644 -1.4048  1.6202 -1.3521
 1444SOL    HW2 5774   0.537   0.846   0.652 -0.0529 -0.2718  1.1681
 1445SOL     OW 5775   5.328   1.583   5.390  0.6822  0.2793 -0.1489
 1445SOL    HW1 5776   5.401   1.630   5.350  0.3879  1.4231  0.6289
 1445SOL    HW2 5777   5.270   1.651   5.424 -0.6868 -0.6031 -0.5935
 1446SOL     OW 5778   6.972   7.449   8.534  0.5515  0.5731 -0.1786
 1446SOL    HW1 5779   7.051   7.497   8.561  2.9960 -2.8109 -0.7322
 1446SOL    HW2 5780   6.954   7.390   8.607 -2.4895  2.1922  0.5629
 1447SOL     OW 5781   7.778   1.036   6.228  0.0008  0.2364 -0.3623
 1447SOL    HW1 5782   7.853   0.991   6.268  0.0054 -0.9684 -1.6543
 1447SOL    HW2 5783   7.762   1.111   6.286 -0.4742 -1.8040  2.3490
 1448SOL     OW 5784   1.045   1.810   2.705  0.0669 -0.5505  0.0272
 1448SOL    HW1 5785   0.998   1.728   2.689 -0.7476 -0.1793  0.4496
 1448SOL    HW2 5786   1.073   1.839   2.618 -2.6825  0.4909 -0.6144
 1449SOL     OW 5787   6.140   5.014   5.056 -0.0949 -0.1818 -0.3381
 1449SOL    HW1 5788   6.176   4.969   5.132 -2.3017 -0.3221  0.6971
 1449SOL    HW2 5789   6.090   5.087   5.092 -0.1964  0.4877 -1.7517
 1450SOL     OW 5790   6.699   1.902  11.532 -0.2537 -0.1554 -0.9823
 1450SOL    HW1 5791   6.622   1.881  11.478 -0.6189 -1.4270 -0.0082
 1450SOL    HW2 5792   6.727   1.988  11.501  0.2216 -1.2684 -3.9627
 1451SOL     OW 5793   6.547   3.415   7.834  0.0416  0.0155 -0.1329
 1451SOL    HW1 5794   6.605   3.486   7.805 -1.7207  0.8447 -1.9168
 1451SOL    HW2 5795   6.564   3.406   7.927  0.9513  2.2008 -0.0320
 1452SOL     OW 5796   0.820   1.911   3.659  0.0897  0.1918  0.5166
 1452SOL    HW1 5797   0.856   1.885   3.574 -1.5029  1.7323 -0.7031
 1452SOL    HW2 5798   0.772   1.992   3.641 -0.8165  0.2350  2.7787
 1453SOL     OW 5799   6.812   6.790   0.954  0.3967  0.0706  0.3256
 1453SOL    HW1 5800   6.777   6.860   1.010 -2.4283 -0.4310 -0.6553
 1453SOL    HW2 5801   6.833   6.834   0.871 -1.3326 -0.1935 -0.2744
 1454SOL     OW 5802   1.911   5.521  11.300  0.5148 -0.4967  0.3507
 1454SOL    HW1 5803   1.915   5.611  11.330  2.2262  0.1117 -1.4485
 1454SOL    HW2 5804   1.998   5.505  11.261 -0.4696 -2.1697 -1.3399
 1455SOL     OW 5805   6.573   5.915   4.368  0.5623 -0.2216 -0.2003
 1455SOL    HW1 5806   6.509   5.898   4.298  0.6948  1.0177 -0.6520
 1455SOL    HW2 5807   6.520   5.944   4.442  0.5229 -0.0551 -0.2908
 1456SOL     OW 5808   5.306   4.776   0.124  0.0931  0.2461 -0.4726
 1456SOL    HW1 5809   5.239   4.767   0.192  0.1648 -0.7378 -0.5237
 1456SOL    HW2 5810   5.290   4.863   0.087  0.3275  0.9991  1.0813
 1457SOL     OW 5811   7.654   4.274   1.937  0.0412 -0.5626  0.0974
 1457SOL    HW1 5812   7.747   4.255   1.930  0.1199  0.3591 -2.1271
 1457SOL    HW2 5813   7.650   4.352   1.992  0.5736 -0.6531  0.2667
 1458SOL     OW 5814   3.914   0.715   9.706 -0.0280 -0.0419 -0.4558
 1458SOL    HW1 5815   3.971   0.774   9.656 -0.8913  2.1532  0.9730
 1458SOL    HW2 5816   3.859   0.673   9.641  1.4612 -0.2741 -1.6340
 1459SOL     OW 5817   2.099   2.827   9.328 -0.7677 -0.4171 -0.1028
 1459SOL    HW1 5818   2.186   2.821   9.367 -0.6901 -0.7273 -0.3263
 1459SOL    HW2 5819   2.115   2.856   9.238 -0.8715 -0.8352 -0.2555
 1460SOL     OW 5820   5.793   2.303   1.230  0.0143  0.4970  0.3081
 1460SOL    HW1 5821   5.789   2.222   1.180 -0.3450  1.0296 -0.5485
 1460SOL    HW2 5822   5.877   2.342   1.207  0.7241 -0.1619  1.6104
 1461SOL     OW 5823   7.324   7.269   0.898  0.0160 -0.4034  0.0364
 1461SOL    HW1 5824   7.393   7.284   0.964 -0.7005  0.5062  0.6109
 1461SOL    HW2 5825   7.309   7.175   0.900  0.7783 -0.5256  0.3860
 1462SOL     OW 5826   7.063   6.682   8.203 -0.2754  0.3414  0.8828
 1462SOL    HW1 5827   7.056   6.749   8.272 -3.3678 -0.4913  1.5541
 1462SOL    HW2 5828   7.102   6.728   8.129  0.3501  2.0994  2.2249
 1463SOL     OW 5829   1.141   0.579   6.348 -0.0262 -0.5982 -0.1080
 1463SOL    HW1 5830   1.048   0.592   6.328  0.2195  0.1435 -0.8295
 1463SOL    HW2 5831   1.141   0.527   6.428 -1.0804  1.1357  1.0937
 1464SOL     OW 5832   3.494   7.650  11.956 -0.2355  0.4136  0.0965
 1464SOL    HW1 5833   3.589   7.645  11.940 -0.3511  0.5511 -0.7083
 1464SOL    HW2 5834   3.463   7.562  11.937 -0.0731 -0.0622  1.8854
 1465SOL     OW 5835   4.329   0.689   2.277  0.0957  0.2949 -0.1385
 1465SOL    HW1 5836   4.338   0.600   2.244 -0.6101  0.5913 -1.2006
 1465SOL    HW2 5837   4.388   0.741   2.222 -2.1815  1.0304 -2.0434
 1466SOL     OW 5838   1.899   5.113   6.347 -0.0163 -0.1035  0.3093
 1466SOL    HW1 5839   1.916   5.023   6.373  0.3868 -0.3683 -0.8213
 1466SOL    HW2 5840   1.846   5.149   6.418  2.0149 -0.4315  2.0597
 1467SOL     OW 5841   5.375   4.147   4.263  0.2857  0.6714 -0.6551
 1467SOL    HW1 5842   5.446   4.137   4.200 -0.1743  1.6119 -1.3468
 1467SOL    HW2 5843   5.363   4.242   4.271  0.2293  0.5755  0.7350
 1468SOL     OW 5844   7.106   5.729   2.024  0.4430 -0.7553 -0.2773
 1468SOL    HW1 5845   7.041   5.659   2.029 -2.4089  1.6726 -0.4172
 1468SOL    HW2 5846   7.132   5.730   1.932 -1.4786 -0.0858 -0.8784
 1469SOL     OW 5847   3.099   4.361   1.619  0.1549  0.2771  0.2081
 1469SOL    HW1 5848   3.119   4.321   1.703  0.8129  2.0207  0.9368
 1469SOL    HW2 5849   3.004   4.366   1.617  0.1526  1.3595  1.4613
 1470SOL     OW 5850   4.420   7.115   9.914  0.0018 -0.3747 -0.1954
 1470SOL    HW1 5851   4.396   7.163   9.835  2.0849  0.7963 -0.1785
 1470SOL    HW2 5852   4.338   7.075   9.944 -0.7179 -1.5410 -3.3711
 1471SOL     OW 5853   4.779   0.155  12.150  0.0021  0.2253  0.7686
 1471SOL    HW1 5854   4.792   0.159  12.245  0.9499 -1.9336  0.7996
 1471SOL    HW2 5855   4.840   0.220  12.115 -2.7982  3.6285  1.6584
 1472SOL     OW 5856   3.420   5.473   5.599 -0.2347  0.8677  0.1691
 1472SOL    HW1 5857   3.434   5.401   5.660 -0.2328  0.0181 -0.8167
 1472SOL    HW2 5858   3.456   5.550   5.644  1.1548 -0.0174  0.6227
 1473SOL     OW 5859   5.522   2.205   3.873 -0.4147  0.3876  0.3306
 1473SOL    HW1 5860   5.616   2.220   3.858 -1.0327  3.7081 -1.0041
 1473SOL    HW2 5861   5.491   2.167   3.791 -0.2653 -0.9906  0.8760
 1474SOL     OW 5862   3.621   6.104   8.673  0.7221 -0.4013  0.4613
 1474SOL    HW1 5863   3.594   6.054   8.750  0.1938  0.6151  0.9632
 1474SOL    HW2 5864   3.709   6.073   8.654  0.6997 -0.9729  1.2176
 1475SOL     OW 5865   4.576   2.892   4.581  0.0858  0.3206  0.0913
 1475SOL    HW1 5866   4.591   2.823   4.645  0.3669  1.1229  0.9258
 1475SOL    HW2 5867   4.664   2.927   4.563 -0.1339  1.0559  0.3859
 1476SOL     OW 5868   0.533   0.448   5.888  0.0801 -0.0651  0.5379
 1476SOL    HW1 5869   0.483   0.518   5.848 -0.0581 -0.2330  0.4126
 1476SOL    HW2 5870   0.513   0.371   5.835  2.9014  0.4634 -1.4432
 1477SOL     OW 5871   2.626   7.848   8.864  0.5790 -0.7222  0.2007
 1477SOL    HW1 5872   2.676   7.791   8.923  1.1611 -2.0264 -1.4535
 1477SOL    HW2 5873   2.571   7.788   8.814  0.3398  0.3034 -0.8029
 1478SOL     OW 5874   0.781   5.930   8.621  0.0047  0.5218 -0.2474
 1478SOL    HW1 5875   0.731   5.925   8.540 -1.7757  1.2628  0.7438
 1478SOL    HW2 5876   0.798   5.838   8.645 -0.6260  0.2659 -0.7679
 1479SOL     OW 5877   2.247   7.860   5.413 -0.3458  0.0304  0.1239
 1479SOL    HW1 5878   2.318   7.797   5.424 -1.3022 -0.8453  1.8566
 1479SOL    HW2 5879   2.204   7.834   5.332 -0.5322 -1.4070  0.6461
 1480SOL     OW 5880   2.759   4.847  11.433 -0.1967  0.0717  0.1382
 1480SOL    HW1 5881   2.772   4.921  11.494 -0.4863  0.4235 -0.2208
 1480SOL    HW2 5882   2.678   4.869  11.386 -0.2300 -0.4296 -0.0432
 1481SOL     OW 5883   3.596   7.074   5.572 -0.2409 -0.1121  0.1075
 1481SOL    HW1 5884   3.576   7.051   5.663 -0.3545  1.5981  0.5542
 1481SOL    HW2 5885   3.520   7.043   5.522 -0.6083 -0.2308  0.7320
 1482SOL     OW 5886   1.166   7.507   2.678 -0.3891  0.4969 -0.2746
 1482SOL    HW1 5887   1.113   7.456   2.739 -1.0821  0.4034 -0.9448
 1482SOL    HW2 5888   1.205   7.442   2.620  2.6919  0.2674  1.8288
 1483SOL     OW 5889   7.713   3.638  10.503  0.0516 -0.1226  0.4122
 1483SOL    HW1 5890   7.721   3.634  10.599 -1.5566  0.4499  0.6086
 1483SOL    HW2 5891   7.690   3.549  10.477  1.4149 -0.5000  0.4285
 1484SOL     OW 5892   2.641   2.716   6.290 -0.2010 -0.2315 -0.3481
 1484SOL    HW1 5893   2.638   2.642   6.351 -0.2368 -0.5155 -0.6877
 1484SOL    HW2 5894   2.582   2.781   6.329  1.9961  0.8150  1.4480
 1485SOL     OW 5895   3.582   7.009   5.247  0.4596  0.2336  0.0752
 1485SOL    HW1 5896   3.519   7.032   5.315  2.0863  1.3112  1.2983
 1485SOL    HW2 5897   3.664   6.993   5.295  0.8128 -2.5702 -1.3050
 1486SOL     OW 5898   4.527   0.629   6.986 -0.7004 -0.1676 -0.0119
 1486SOL    HW1 5899   4.609   0.605   7.028 -0.2836  0.0357 -0.7057
 1486SOL    HW2 5900   4.548   0.638   6.893 -1.0368  1.9017  0.0570
 1487SOL     OW 5901   5.797   5.322   9.637 -0.0905 -0.0201  0.3387
 1487SOL    HW1 5902   5.888   5.342   9.616 -0.8486  0.6744 -2.7979
 1487SOL    HW2 5903   5.765   5.402   9.680  1.1584 -0.9821  3.3747
 1488SOL     OW 5904   2.602   2.780   9.800 -0.0528 -0.3843  0.0335
 1488SOL    HW1 5905   2.633   2.806   9.713 -0.3361  0.8543  0.2806
 1488SOL    HW2 5906   2.682   2.778   9.854 -0.1369  1.0358  0.2486
 1489SOL     OW 5907   3.673   2.719   7.070  0.0514  0.1761  0.7233
 1489SOL    HW1 5908   3.618   2.725   6.992  0.0083 -0.7553  0.6715
 1489SOL    HW2 5909   3.752   2.767   7.048 -0.6524  1.3841  0.7323
 1490SOL     OW 5910   3.331   6.758   1.674  0.8310 -0.1197  0.0860
 1490SOL    HW1 5911   3.399   6.805   1.722  0.7362  1.1860 -1.0054
 1490SOL    HW2 5912   3.318   6.809   1.594  0.0987 -1.5354 -0.7439
 1491SOL     OW 5913   6.501   7.081  11.869 -0.1550 -0.5487 -0.5047
 1491SOL    HW1 5914   6.445   7.154  11.894 -0.3357 -0.8289 -0.0829
 1491SOL    HW2 5915   6.444   7.022  11.821  0.1430 -0.1122 -1.4226
 1492SOL     OW 5916   3.000   5.619   2.192 -0.4269  0.2367  0.9929
 1492SOL    HW1 5917   2.989   5.657   2.279  1.2323 -0.3455  1.5117
 1492SOL    HW2 5918   3.031   5.530   2.209  2.0028  0.7798 -0.1561
 1493SOL     OW 5919   0.843   5.814  10.408 -0.0164 -0.4423 -0.6370
 1493SOL    HW1 5920   0.846   5.735  10.354  4.1368 -0.1745 -1.1215
 1493SOL    HW2 5921   0.836   5.886  10.346 -1.7660 -0.2816 -0.3091
 1494SOL     OW 5922   5.816   3.245   8.932 -0.1233 -0.2369 -0.6870
 1494SOL    HW1 5923   5.763   3.277   8.859  1.4912 -0.2112 -1.9108
 1494SOL    HW2 5924   5.799   3.151   8.933 -0.6477 -0.1447 -0.6803
 1495SOL     OW 5925   1.621   0.547  12.212 -0.3329  0.0144 -0.7004
 1495SOL    HW1 5926   1.671   0.467  12.192 -0.2658 -0.1994  0.2633
 1495SOL    HW2 5927   1.657   0.577  12.296 -0.6624  0.8129 -0.8378
 1496SOL     OW 5928   3.283   6.452   1.602  0.5686 -0.3866  0.4612
 1496SOL    HW1 5929   3.376   6.438   1.622  0.8699  0.3514 -0.3512
 1496SOL    HW2 5930   3.268   6.543   1.625 -0.0742 -0.6186  0.9848
 1497SOL     OW 5931   7.063   7.627   5.740  0.3113 -0.5301 -0.5337
 1497SOL    HW1 5932   6.998   7.683   5.697  1.0078 -0.7559 -1.9536
 1497SOL    HW2 5933   7.019   7.595   5.819 -1.3884 -0.8372 -1.5489
 1498SOL     OW 5934   3.180   4.272   2.545  0.7094  0.7497  0.4050
 1498SOL    HW1 5935   3.222   4.192   2.514 -0.5915  1.1365 -2.7166
 1498SOL    HW2 5936   3.188   4.268   2.641  1.4878 -2.6128  0.3109
 1499SOL     OW 5937   4.626   1.206   0.122 -0.3811  0.2622 -0.0810
 1499SOL    HW1 5938   4.565   1.183   0.193 -0.9500 -1.6133 -1.0985
 1499SOL    HW2 5939   4.690   1.135   0.121 -0.8446 -0.1973 -1.9089
 1500SOL     OW 5940   6.669   5.988   3.841 -0.2808 -0.1945  0.2262
 1500SOL    HW1 5941   6.654   6.046   3.766 -1.1546  0.1061  0.6144
 1500SOL    HW2 5942   6.727   5.920   3.807  0.5872  0.7830 -0.2964
 1501SOL     OW 5943   4.278   2.016   9.651  0.2898  0.1139  0.0080
 1501SOL    HW1 5944   4.347   2.042   9.713  0.6369 -1.2395  0.2319
 1501SOL    HW2 5945   4.321   1.951   9.595 -0.5168  0.0326 -0.5167
 1502SOL     OW 5946   5.336   2.194   0.551  0.5094  0.3695 -0.2337
 1502SOL    HW1 5947   5.414   2.172   0.601  0.2337  0.0387  0.0580
 1502SOL    HW2 5948   5.345   2.144   0.470  0.5718  0.2829 -0.1731
 1503SOL     OW 5949   3.766   0.529   6.608  0.2294  0.1257  0.6275
 1503SOL    HW1 5950   3.748   0.517   6.701  0.9522 -1.3164  0.6066
 1503SOL    HW2 5951   3.707   0.469   6.563  0.6520  0.0093  0.2159
 1504SOL     OW 5952   1.820   5.845  12.270 -0.1011  0.6880  0.2908
 1504SOL    HW1 5953   1.748   5.825  12.209  0.0587  0.1167  0.2868
 1504SOL    HW2 5954   1.776   5.871  12.351 -0.3384  2.4202 -0.3383
 1505SOL     OW 5955   2.470   2.691   3.521 -0.9956 -0.1372  0.3834
 1505SOL    HW1 5956   2.525   2.762   3.488 -2.0140  0.2107 -0.6362
 1505SOL    HW2 5957   2.512   2.611   3.489 -0.2108  0.0097  0.9850
 1506SOL     OW 5958   1.712   2.339   7.340 -0.4530 -0.0826 -0.0941
 1506SOL    HW1 5959   1.807   2.337   7.353 -0.2976  0.1390 -1.1019
 1506SOL    HW2 5960   1.700   2.307   7.250 -1.4476 -1.5864  0.5364
 1507SOL     OW 5961   7.842   5.406   9.812 -0.3670  0.0552 -0.1327
 1507SOL    HW1 5962   7.798   5.414   9.728 -0.6088 -1.2015 -0.1370
 1507SOL    HW2 5963   7.935   5.407   9.790 -0.4077 -2.0036 -0.6421
 1508SOL     OW 5964   5.599   4.842   3.045  0.7621  0.4401  0.0217
 1508SOL    HW1 5965   5.557   4.759   3.068 -1.3913  1.4130 -0.1943
 1508SOL    HW2 5966   5.589   4.897   3.123  2.1094  0.5599  0.1422
 1509SOL     OW 5967   5.575   0.921  11.646  0.0488  0.0697  0.0684
 1509SOL    HW1 5968   5.627   0.920  11.566  1.0545 -0.9309  0.7081
 1509SOL    HW2 5969   5.608   0.847  11.697 -1.8137 -0.4424  0.6271
 1510SOL     OW 5970   3.134   0.525   8.506  0.2922 -0.0144  0.3833
 1510SOL    HW1 5971   3.192   0.483   8.443 -1.2353 -0.8621 -0.5220
 1510SOL    HW2 5972   3.049   0.483   8.493 -0.6824  1.5371  1.2795
 1511SOL     OW 5973   4.892   4.419   6.105 -0.2918  0.1796  0.0940
 1511SOL    HW1 5974   4.886   4.514   6.112  1.7681  0.2909  1.2562
 1511SOL    HW2 5975   4.811   4.386   6.144 -1.6746  1.4322 -1.5973
 1512SOL     OW 5976   4.132   6.768  11.840 -0.5460 -0.0039  0.0376
 1512SOL    HW1 5977   4.137   6.862  11.857  1.6055 -0.3513  1.7168
 1512SOL    HW2 5978   4.219   6.745  11.807 -0.7575 -1.5560  0.4960
 1513SOL     OW 5979   5.517   0.894   1.262  0.1856  0.3797 -0.8713
 1513SOL    HW1 5980   5.600   0.850   1.281  0.0301  0.7141  0.7517
 1513SOL    HW2 5981   5.450   0.831   1.289 -0.0494  1.8121  2.4305
 1514SOL     OW 5982   1.108   1.236   3.707 -0.0143 -0.0649  0.2390
 1514SOL    HW1 5983   1.164   1.214   3.781  0.5142 -0.9035 -0.3806
 1514SOL    HW2 5984   1.035   1.284   3.745  0.8681  0.6087  1.1334
 1515SOL     OW 5985   6.522   6.207   8.625 -0.1584  0.6853  0.7711
 1515SOL    HW1 5986   6.586   6.137   8.634  0.0267  0.7323 -0.0871
 1515SOL    HW2 5987   6.438   6.166   8.646 -0.3047 -0.3031 -1.4999
 1516SOL     OW 5988   5.120   3.853  12.115  0.8564  0.3189  0.4424
 1516SOL    HW1 5989   5.059   3.926  12.111  1.8586  1.1109 -2.7995
 1516SOL    HW2 5990   5.205   3.893  12.134  1.0666 -0.2742  0.8026
 1517SOL     OW 5991   5.637   2.166  10.557  0.0773  0.0842  0.6243
 1517SOL    HW1 5992   5.697   2.117  10.502  0.4083  0.2596  0.8250
 1517SOL    HW2 5993   5.580   2.212  10.496  0.5462  0.4052  0.4295
 1518SOL     OW 5994   7.808   7.686   2.409  0.7691 -0.0500 -0.4999
 1518SOL    HW1 5995   7.901   7.682   2.432  0.6432 -0.5429 -0.0472
 1518SOL    HW2 5996   7.762   7.670   2.491  0.2742  0.4842 -0.6609
 1519SOL     OW 5997   6.973   0.029   2.078 -0.3045  0.2972 -0.0898
 1519SOL    HW1 5998   6.937   0.101   2.129  0.7828  0.6482  0.1977
 1519SOL    HW2 5999   7.067   0.035   2.090 -0.1397 -0.6543 -0.7631
 1520SOL     OW 6000   2.655   2.675   7.193 -0.0060  0.0937 -0.6224
 1520SOL    HW1 6001   2.662   2.708   7.282 -1.5411 -1.5785  0.1794
 1520SOL    HW2 6002   2.741   2.692   7.154  0.3272  1.8762  0.7838
 1521SOL     OW 6003   5.441   4.005   2.669 -0.0856  0.2733  0.3967
 1521SOL    HW1 6004   5.386   4.073   2.709  1.1851  0.8831  1.2096
 1521SOL    HW2 6005   5.529   4.022   2.706  0.3865 -1.4248  0.1179
 1522SOL     OW 6006   1.440   6.886  12.268 -0.1623  0.0855 -0.6953
 1522SOL    HW1 6007   1.513   6.907  12.210  0.3154 -1.1778 -0.5738
 1522SOL    HW2 6008   1.362   6.914  12.219  0.3713  1.2444 -0.9126
 1523SOL     OW 6009   7.878   6.315   9.818 -0.4271 -0.0997 -0.2085
 1523SOL    HW1 6010   7.856   6.370   9.893 -0.7637 -0.8288  0.2426
 1523SOL    HW2 6011   7.849   6.227   9.843 -0.1824 -0.4308 -1.0341
 1524SOL     OW 6012   4.882   5.505   0.420  0.0588 -0.1924 -0.1297
 1524SOL    HW1 6013   4.921   5.544   0.342  0.9101 -2.3603 -0.8708
 1524SOL    HW2 6014   4.949   5.444   0.452 -0.4675  0.2802  2.0259
 1525SOL     OW 6015   2.923   6.736   7.700  0.5042  0.0956  0.0932
 1525SOL    HW1 6016   2.956   6.791   7.630  0.1131 -2.2815 -2.0867
 1525SOL    HW2 6017   2.828   6.743   7.694  0.4648  0.6895  1.1189
 1526SOL     OW 6018   4.065   5.374   3.344 -0.2904  0.0145  0.1150
 1526SOL    HW1 6019   3.970   5.382   3.334 -0.1004  1.2726 -1.0407
 1526SOL    HW2 6020   4.095   5.465   3.354  0.9142 -0.2394 -0.9597
 1527SOL     OW 6021   4.735   6.615   5.740  0.2877  0.1061  0.2802
 1527SOL    HW1 6022   4.756   6.577   5.825 -0.8801 -0.4200  0.3472
 1527SOL    HW2 6023   4.776   6.556   5.676  0.0186 -0.2590  0.4409
 1528SOL     OW 6024   4.306   3.340   6.151 -0.5259  0.1404  0.0231
 1528SOL    HW1 6025   4.317   3.255   6.193 -0.6760  0.1733  0.1301
 1528SOL    HW2 6026   4.256   3.322   6.072 -0.5331  0.1247  0.0313
 1529SOL     OW 6027   5.437   5.367   9.483 -0.6384 -0.2156 -0.0402
 1529SOL    HW1 6028   5.436   5.296   9.548 -1.5642 -1.0665 -0.9474
 1529SOL    HW2 6029   5.345   5.396   9.478 -0.1504  1.6741  0.9442
 1530SOL     OW 6030   0.220   1.341  12.112 -0.6374  0.0913 -0.0126
 1530SOL    HW1 6031   0.125   1.345  12.122 -0.6330 -0.8214  0.5106
 1530SOL    HW2 6032   0.248   1.280  12.180  0.2622 -0.0957 -0.5385
 1531SOL     OW 6033   4.093   2.453   1.311 -0.1163  0.2598 -0.5000
 1531SOL    HW1 6034   4.121   2.508   1.238  0.9884  0.4067  0.0017
 1531SOL    HW2 6035   4.143   2.486   1.386  1.6510 -2.2478 -0.4293
 1532SOL     OW 6036   3.963   2.091   9.381 -0.0140  0.2232  0.2837
 1532SOL    HW1 6037   4.044   2.099   9.330 -1.3257 -0.9772 -2.2021
 1532SOL    HW2 6038   3.921   2.177   9.374  2.1752  1.7833  3.9368
 1533SOL     OW 6039   5.173   0.323   6.361 -0.5168 -0.3609 -0.3544
 1533SOL    HW1 6040   5.146   0.279   6.281 -0.6046 -0.8069 -0.0835
 1533SOL    HW2 6041   5.092   0.336   6.410 -0.8261  2.1025 -1.3944
 1534SOL     OW 6042   0.431   3.539   0.616  0.0965  1.0058 -0.2108
 1534SOL    HW1 6043   0.516   3.559   0.576  1.0072 -0.8789  0.6564
 1534SOL    HW2 6044   0.383   3.494   0.547  0.6724  0.1013 -0.0457
 1535SOL     OW 6045   7.769   5.777   7.573  0.4217 -0.1233 -0.5511
 1535SOL    HW1 6046   7.698   5.822   7.526  0.8473 -0.7550 -1.8646
 1535SOL    HW2 6047   7.816   5.847   7.618  0.2767  0.5907 -1.4686
 1536SOL     OW 6048   7.856   1.312   9.116 -0.0331  0.5556 -0.0859
 1536SOL    HW1 6049   7.792   1.247   9.144  2.2069 -1.3852  0.9096
 1536SOL    HW2 6050   7.908   1.330   9.194  2.1844  0.0960 -1.3675
 1537SOL     OW 6051   6.902   1.238   7.373 -0.0316  0.2571  0.0248
 1537SOL    HW1 6052   6.929   1.147   7.363 -0.1130  0.4108 -2.0048
 1537SOL    HW2 6053   6.959   1.287   7.313  0.1948  1.6099  1.2602
 1538SOL     OW 6054   3.216   1.733  11.042 -0.3191  0.3113  0.4986
 1538SOL    HW1 6055   3.251   1.646  11.062 -0.9179 -0.0777 -0.0755
 1538SOL    HW2 6056   3.233   1.785  11.120 -0.7478 -0.5773  1.2010
 1539SOL     OW 6057   1.625   5.803   9.397  0.5395 -0.3290 -0.0804
 1539SOL    HW1 6058   1.593   5.891   9.377  2.6914  0.5213  0.0021
 1539SOL    HW2 6059   1.556   5.745   9.365 -1.9240  1.3893  1.7007
 1540SOL     OW 6060   6.396   7.481   9.125 -0.0732  0.1382 -0.2125
 1540SOL    HW1 6061   6.308   7.458   9.156  0.0153 -0.0522 -0.0957
 1540SOL    HW2 6062   6.382   7.547   9.058 -0.3603 -0.5894 -0.8776
 1541SOL     OW 6063   6.113   6.280  11.793  0.0120  0.0216  0.2111
 1541SOL    HW1 6064   6.056   6.353  11.817 -0.2844  0.0311 -0.5001
 1541SOL    HW2 6065   6.066   6.235  11.723  0.7059 -0.1957 -0.1237
 1542SOL     OW 6066   1.562   5.914   6.134 -0.4296 -0.1728  0.2157
 1542SOL    HW1 6067   1.525   5.993   6.094 -1.5250 -1.2590 -1.0262
 1542SOL    HW2 6068   1.557   5.848   6.065 -1.1770 -1.7980  1.7508
 1543SOL     OW 6069   6.221   0.145   6.059 -0.4989 -0.2021  0.0570
 1543SOL    HW1 6070   6.309   0.112   6.041  0.8506  2.7405  0.7028
 1543SOL    HW2 6071   6.206   0.213   5.993 -0.6328  2.0080  2.2242
 1544SOL     OW 6072   5.721   0.348   1.352  0.0746  0.4460  0.0002
 1544SOL    HW1 6073   5.794   0.367   1.293 -0.3262 -1.9884 -1.4019
 1544SOL    HW2 6074   5.748   0.269   1.399 -0.2035  1.5405  2.1571
 1545SOL     OW 6075   6.609   4.206  10.489  0.0367 -0.9360 -0.2580
 1545SOL    HW1 6076   6.619   4.224  10.396 -1.6049 -0.5773 -0.3988
 1545SOL    HW2 6077   6.687   4.244  10.530  0.3786 -0.3737 -1.3968
 1546SOL     OW 6078   7.686   2.927   6.571 -0.0323 -0.2281 -0.1420
 1546SOL    HW1 6079   7.622   2.986   6.609  0.2756  1.0098 -1.4885
 1546SOL    HW2 6080   7.763   2.981   6.556  0.7168 -1.2728 -0.2195
 1547SOL     OW 6081   7.821   6.912   5.804 -0.1088  0.4509 -0.0577
 1547SOL    HW1 6082   7.738   6.866   5.793  0.0331  0.5509 -1.9094
 1547SOL    HW2 6083   7.863   6.905   5.718  1.0494  1.8475  0.3653
 1548SOL     OW 6084   0.092   0.687  11.054  0.4224  0.8661  0.2024
 1548SOL    HW1 6085   0.001   0.716  11.061  0.9700  2.4917  0.9290
 1548SOL    HW2 6086   0.142   0.749  11.107  1.9297 -0.2090  0.1213
 1549SOL     OW 6087   5.540   1.842  10.474  0.3689 -0.2701  0.2991
 1549SOL    HW1 6088   5.460   1.893  10.462  0.0688 -0.5643  1.0193
 1549SOL    HW2 6089   5.583   1.845  10.388 -1.1183 -1.3229 -0.5330
 1550SOL     OW 6090   0.529   0.027   4.887 -0.6047 -0.0631 -0.1864
 1550SOL    HW1 6091   0.436   0.019   4.909 -0.6204  0.9655  0.1946
 1550SOL    HW2 6092   0.572   0.047   4.970 -0.2837  1.1100 -0.6037
 1551SOL     OW 6093   5.616   2.034   7.382  0.5504 -0.3058 -0.2205
 1551SOL    HW1 6094   5.623   1.982   7.302 -0.7315 -0.3776 -0.3184
 1551SOL    HW2 6095   5.543   1.994   7.430  0.6299  0.3779  0.4876
 1552SOL     OW 6096   6.101   5.870  10.559 -0.2083  0.0201 -0.6142
 1552SOL    HW1 6097   6.132   5.866  10.650 -0.9206 -0.9378 -0.3932
 1552SOL    HW2 6098   6.119   5.959  10.531 -0.3972  0.4658  0.6211
 1553SOL     OW 6099   0.576   7.490   4.060 -0.0359  0.3490 -0.1302
 1553SOL    HW1 6100   0.662   7.529   4.045 -0.1838  0.1010 -1.9423
 1553SOL    HW2 6101   0.516   7.565   4.057 -0.1539  0.2238 -1.9443
 1554SOL     OW 6102   5.189   1.724   1.349 -0.4608  0.1340  0.1842
 1554SOL    HW1 6103   5.208   1.700   1.259 -0.1439 -0.1740  0.3278
 1554SOL    HW2 6104   5.175   1.640   1.394 -0.0528  0.2540  0.5416
 1555SOL     OW 6105   7.327   7.440   7.357 -0.1120 -0.4822 -0.3142
 1555SOL    HW1 6106   7.351   7.359   7.401 -0.3888 -1.0315 -1.1564
 1555SOL    HW2 6107   7.315   7.415   7.265  0.0642  0.5618 -0.6309
 1556SOL     OW 6108   4.551   3.705   0.900 -0.2264  0.0357 -0.4442
 1556SOL    HW1 6109   4.483   3.766   0.871  0.0902  0.2648 -0.7046
 1556SOL    HW2 6110   4.516   3.619   0.879 -1.7104 -0.0620  1.9786
 1557SOL     OW 6111   7.778   6.464   3.139  0.6730 -0.1200 -0.0530
 1557SOL    HW1 6112   7.771   6.508   3.224  1.6101  1.5755 -0.7960
 1557SOL    HW2 6113   7.730   6.382   3.150  0.2866  0.3255  1.9280
 1558SOL     OW 6114   3.629   4.810   2.381  0.6737 -0.4585  0.6325
 1558SOL    HW1 6115   3.628   4.790   2.475 -2.1573 -0.3359  0.7177
 1558SOL    HW2 6116   3.644   4.904   2.376 -0.9283 -0.1390  1.1356
 1559SOL     OW 6117   0.772   2.437   4.235  0.0214  0.1419  0.0012
 1559SOL    HW1 6118   0.762   2.343   4.250 -0.6630 -0.1823 -2.1782
 1559SOL    HW2 6119   0.853   2.460   4.279 -1.6171 -0.6477  3.8227
 1560SOL     OW 6120   6.767   7.020   6.659 -0.0020  0.1382  0.2930
 1560SOL    HW1 6121   6.691   7.061   6.617 -1.1746  0.1702  2.3347
 1560SOL    HW2 6122   6.836   7.024   6.593 -1.3123  1.5589 -1.0611
 1561SOL     OW 6123   6.532   2.732   6.170 -0.3541 -0.4655  0.6285
 1561SOL    HW1 6124   6.523   2.637   6.184 -1.2384 -0.7755 -1.5839
 1561SOL    HW2 6125   6.568   2.739   6.082  1.1328  1.2847  1.3158
 1562SOL     OW 6126   5.556   6.904   3.091  0.2413  0.3701  0.3793
 1562SOL    HW1 6127   5.524   6.873   3.176 -0.0965 -1.3718 -0.3514
 1562SOL    HW2 6128   5.650   6.885   3.092 -0.1655 -1.9699 -0.5452
 1563SOL     OW 6129   6.625   3.437   6.690  0.3198 -0.0678 -0.0389
 1563SOL    HW1 6130   6.709   3.401   6.662 -0.2654 -0.5131 -1.3205
 1563SOL    HW2 6131   6.561   3.395   6.632 -0.9888 -1.0420  1.9867
 1564SOL     OW 6132   7.489   1.040   8.163 -0.5964 -0.0916 -0.6999
 1564SOL    HW1 6133   7.526   1.055   8.076  2.0371  0.9044  0.4966
 1564SOL    HW2 6134   7.554   1.076   8.224 -2.6661 -0.1135  1.6827
 1565SOL     OW 6135   2.537   2.226   1.009  0.1769  0.3117  0.0110
 1565SOL    HW1 6136   2.540   2.275   0.927  0.4976 -1.1326 -0.8861
 1565SOL    HW2 6137   2.629   2.213   1.033  0.1132 -0.2050 -0.0045
 1566SOL     OW 6138   0.046   2.430   7.197 -0.1088 -0.1848  0.6205
 1566SOL    HW1 6139   0.004   2.350   7.166 -1.0761 -0.0160  1.4550
 1566SOL    HW2 6140  -0.002   2.454   7.276  1.0322  0.4872  1.1406
 1567SOL     OW 6141   4.784   7.973   9.797  0.2698 -0.1263  0.1744
 1567SOL    HW1 6142   4.821   8.001   9.881  1.2648 -2.2505  0.5245
 1567SOL    HW2 6143   4.691   7.961   9.815 -0.0235  1.8719  0.2431
 1568SOL     OW 6144   3.419   5.469  12.240 -0.0080  0.4248 -0.0309
 1568SOL    HW1 6145   3.373   5.538  12.287 -0.6274  0.5360 -0.7788
 1568SOL    HW2 6146   3.429   5.398  12.304 -1.0284  0.4905  0.2100
 1569SOL     OW 6147   3.395   5.309   9.825 -0.1704 -0.5064 -0.0016
 1569SOL    HW1 6148   3.314   5.329   9.778 -0.2152 -0.2300  0.1906
 1569SOL    HW2 6149   3.422   5.392   9.863  0.9315 -0.2930 -1.1808
 1570SOL     OW 6150   6.574   5.432   4.141 -0.5067 -0.0712  0.1415
 1570SOL    HW1 6151   6.543   5.520   4.163  2.8578  0.6829  2.4894
 1570SOL    HW2 6152   6.610   5.441   4.052  2.6352  1.9157  1.4455
 1571SOL     OW 6153   5.646   0.540  11.652  0.0076 -0.0767  0.3487
 1571SOL    HW1 6154   5.660   0.586  11.569 -3.5434  1.6689  0.5466
 1571SOL    HW2 6155   5.579   0.475  11.633  0.5053 -0.9663  1.4954
 1572SOL     OW 6156   0.199   0.774   6.198  0.3420 -0.0430 -0.1965
 1572SOL    HW1 6157   0.257   0.822   6.139  1.9207 -0.9308  0.5724
 1572SOL    HW2 6158   0.144   0.721   6.140  1.0458 -0.0014 -0.9151
 1573SOL     OW 6159   4.929   2.796   2.677 -0.4534  0.2607 -0.2489
 1573SOL    HW1 6160   4.878   2.832   2.605  0.2308  0.6930 -0.5208
 1573SOL    HW2 6161   4.864   2.776   2.745 -0.8907  1.7964 -0.1795
 1574SOL     OW 6162   7.190   1.812   9.182  0.3399 -0.0716 -0.4173
 1574SOL    HW1 6163   7.135   1.835   9.108  1.1327 -0.2843 -1.0946
 1574SOL    HW2 6164   7.155   1.863   9.255 -0.5825 -0.0195 -0.8839
 1575SOL     OW 6165   2.174   2.656   1.264  0.6678  0.0416  0.7884
 1575SOL    HW1 6166   2.243   2.679   1.201  1.1086 -0.4380  1.0831
 1575SOL    HW2 6167   2.093   2.660   1.214  0.9445  0.3277  0.3575
 1576SOL     OW 6168   2.085   6.671   6.663 -0.3299 -0.7289  0.0245
 1576SOL    HW1 6169   2.088   6.765   6.682  0.7167 -0.0713 -2.8396
 1576SOL    HW2 6170   1.996   6.656   6.630 -0.6116 -0.8301  0.8234
 1577SOL     OW 6171   2.374   7.945   2.103  0.0290  0.9818  0.0937
 1577SOL    HW1 6172   2.309   7.875   2.096 -0.1347  1.1776 -0.3969
 1577SOL    HW2 6173   2.452   7.901   2.136  0.7836 -0.0278 -2.7304
 1578SOL     OW 6174   1.503   3.310   6.350 -0.3806 -0.2138 -0.0563
 1578SOL    HW1 6175   1.573   3.256   6.312 -0.3903 -0.2838  0.0244
 1578SOL    HW2 6176   1.452   3.249   6.403  0.6343  0.2073  1.4685
 1579SOL     OW 6177   2.271   5.444  10.285 -0.0428  0.5276 -0.0688
 1579SOL    HW1 6178   2.281   5.411  10.196  1.7395 -1.2655  0.7105
 1579SOL    HW2 6179   2.180   5.426  10.308  0.5892 -3.3784  0.0263
 1580SOL     OW 6180   0.397   7.864   8.498 -0.1168 -0.0312 -0.1124
 1580SOL    HW1 6181   0.473   7.812   8.525  0.1385 -0.3533 -1.4053
 1580SOL    HW2 6182   0.330   7.799   8.475 -0.4996  0.2415  0.2245
 1581SOL     OW 6183   5.332   5.025  10.221  0.1800  0.4315 -0.1579
 1581SOL    HW1 6184   5.402   5.080  10.185  1.6514 -1.0819  0.2632
 1581SOL    HW2 6185   5.339   5.036  10.315  1.5321 -1.5952  0.0372
 1582SOL     OW 6186   7.240   0.452   2.678  0.1603  0.6947  0.2914
 1582SOL    HW1 6187   7.196   0.533   2.702  0.8950  0.8293  1.2306
 1582SOL    HW2 6188   7.299   0.476   2.606  1.0305  1.2032  1.1507
 1583SOL     OW 6189   6.980   5.896   8.962  0.6140  0.1101 -0.5564
 1583SOL    HW1 6190   7.055   5.881   8.904 -0.5212  0.8528 -2.3297
 1583SOL    HW2 6191   6.911   5.839   8.926 -0.4068  1.3129 -0.5531
 1584SOL     OW 6192   3.599   2.615   1.669 -0.8142 -0.4496  0.0967
 1584SOL    HW1 6193   3.562   2.704   1.671  1.1824  0.4245  0.6106
 1584SOL    HW2 6194   3.609   2.592   1.762 -0.9651 -1.0686 -0.0405
 1585SOL     OW 6195   7.113   5.363  11.970  0.1785 -0.1209 -0.2538
 1585SOL    HW1 6196   7.126   5.308  11.893  1.5575  2.0343 -1.6941
 1585SOL    HW2 6197   7.027   5.402  11.958 -0.1656 -0.7863  0.0024
 1586SOL     OW 6198   1.782   1.128   2.570 -0.2329 -0.3944 -0.2302
 1586SOL    HW1 6199   1.807   1.037   2.553  1.3874 -0.2228  0.9239
 1586SOL    HW2 6200   1.801   1.173   2.488 -0.7722 -1.0395 -0.7205
 1587SOL     OW 6201   4.613   4.815  10.859  0.4514  0.8527 -0.4188
 1587SOL    HW1 6202   4.649   4.814  10.770 -2.8843  2.1316 -1.9752
 1587SOL    HW2 6203   4.577   4.727  10.870  3.2826 -0.2540  0.9317
 1588SOL     OW 6204   7.595   5.111   8.567  0.0139 -0.4415  0.2211
 1588SOL    HW1 6205   7.569   5.186   8.513 -1.6102  0.9101  2.7286
 1588SOL    HW2 6206   7.680   5.137   8.603 -0.4877  0.1864  0.9870
 1589SOL     OW 6207   4.301   2.323  11.900  0.2406 -0.5455 -0.2273
 1589SOL    HW1 6208   4.321   2.403  11.948 -0.1593 -1.1623  1.0189
 1589SOL    HW2 6209   4.213   2.299  11.929 -0.3462 -0.5151 -1.9064
 1590SOL     OW 6210   7.612   4.520   1.189 -0.4112  0.3292 -0.4020
 1590SOL    HW1 6211   7.553   4.452   1.155  0.4820 -0.0172 -1.3135
 1590SOL    HW2 6212   7.555   4.583   1.232 -1.3456 -0.5374 -0.3533
 1591SOL     OW 6213   6.921   2.069   2.695  0.6098  0.1751 -0.1756
 1591SOL    HW1 6214   6.967   2.010   2.756 -1.3651  0.0293  1.2637
 1591SOL    HW2 6215   6.877   2.010   2.634  0.6636  0.2511 -0.2877
 1592SOL     OW 6216   5.754   1.975   4.019  0.1360  0.0544  0.0146
 1592SOL    HW1 6217   5.688   1.980   4.088 -1.0300 -0.4998 -1.0072
 1592SOL    HW2 6218   5.837   1.968   4.065 -0.6242 -0.4927  1.3608
 1593SOL     OW 6219   2.162   3.793   2.506  0.0346 -0.2233 -0.3556
 1593SOL    HW1 6220   2.087   3.733   2.510  1.2574 -1.8718 -1.0388
 1593SOL    HW2 6221   2.216   3.768   2.581  1.4341 -1.2868 -1.6395
 1594SOL     OW 6222   2.506   1.588   9.025 -0.3710 -0.3330 -0.2226
 1594SOL    HW1 6223   2.462   1.667   9.059  1.7141 -0.2053  2.4937
 1594SOL    HW2 6224   2.459   1.515   9.067 -0.1370 -0.3640 -0.0148
 1595SOL     OW 6225   1.396   7.418   8.640  0.4071 -0.4252 -0.2665
 1595SOL    HW1 6226   1.460   7.347   8.630  0.1582 -0.7057  0.1070
 1595SOL    HW2 6227   1.404   7.445   8.731 -0.5172 -0.9636 -0.0097
 1596SOL     OW 6228   5.465   6.724   1.293 -0.2280 -1.0997  0.0155
 1596SOL    HW1 6229   5.545   6.738   1.343  0.2324 -1.8657 -0.4869
 1596SOL    HW2 6230   5.463   6.630   1.277 -0.3088 -0.8788 -1.4560
 1597SOL     OW 6231   3.512   6.480   3.001  0.2956 -0.0443  0.0908
 1597SOL    HW1 6232   3.445   6.425   2.960  0.4215  0.3284 -0.6390
 1597SOL    HW2 6233   3.474   6.568   3.000  1.0464  0.2902 -0.9416
 1598SOL     OW 6234   0.583   6.384   3.521  0.6411  0.1015  0.8474
 1598SOL    HW1 6235   0.628   6.449   3.468 -0.0529 -0.7035 -0.8174
 1598SOL    HW2 6236   0.650   6.347   3.578  1.2065  1.6657  1.2236
 1599SOL     OW 6237   7.650   4.545  11.466 -0.3388  0.2060  0.0258
 1599SOL    HW1 6238   7.715   4.534  11.396 -0.4007  1.1313 -0.1920
 1599SOL    HW2 6239   7.649   4.461  11.511  1.1759  0.2350  0.1744
 1600SOL     OW 6240   1.500   2.136   1.189 -0.2339  0.3687  0.0862
 1600SOL    HW1 6241   1.518   2.188   1.111 -0.5586  1.4317  0.7050
 1600SOL    HW2 6242   1.486   2.047   1.156 -0.3824  0.8048 -1.0648
 1601SOL     OW 6243   2.266   2.381  10.312  0.1768 -0.1797 -0.5979
 1601SOL    HW1 6244   2.220   2.458  10.346  1.6428  0.1435  0.7568
 1601SOL    HW2 6245   2.205   2.308  10.327  0.0284  0.2437  1.0485
 1602SOL     OW 6246   2.051   6.511   6.327 -0.0413  0.1931 -0.6740
 1602SOL    HW1 6247   2.138   6.486   6.360  0.1311  2.0547  0.4382
 1602SOL    HW2 6248   1.998   6.432   6.340  0.7655 -0.0896  1.4548
 1603SOL     OW 6249   7.729   7.696   1.814 -0.2725  0.1117 -0.3897
 1603SOL    HW1 6250   7.754   7.788   1.828 -2.5466  0.9136 -1.1213
 1603SOL    HW2 6251   7.711   7.691   1.720 -0.9489 -0.8651 -0.2236
 1604SOL     OW 6252   5.336   3.468   2.462  0.3621 -0.1222 -0.2185
 1604SOL    HW1 6253   5.416   3.441   2.507 -0.7359  0.0798  1.9815
 1604SOL    HW2 6254   5.319   3.557   2.493 -0.9962 -0.3629 -0.2083
 1605SOL     OW 6255   3.532   7.579   6.152 -0.2072  0.4411 -0.4030
 1605SOL    HW1 6256   3.619   7.613   6.131  1.0384 -2.1440  0.2007
 1605SOL    HW2 6257   3.546   7.521   6.227 -2.3250 -0.5599 -0.7139
 1606SOL     OW 6258   4.254   1.293   0.707 -0.6414  0.2509 -0.2655
 1606SOL    HW1 6259   4.313   1.347   0.760  1.0620 -1.2179 -0.5748
 1606SOL    HW2 6260   4.214   1.233   0.770  0.1645 -0.4226 -0.3634
 1607SOL     OW 6261   3.265   6.184   2.350  0.1353  0.1967  0.5261
 1607SOL    HW1 6262   3.250   6.221   2.263 -1.9254 -0.0417  0.7330
 1607SOL    HW2 6263   3.237   6.253   2.410 -1.3286 -0.7048  0.9350
 1608SOL     OW 6264   4.774   0.814   3.492  0.1521 -0.4130 -0.0772
 1608SOL    HW1 6265   4.736   0.851   3.413  0.9673  0.0682 -0.2529
 1608SOL    HW2 6266   4.716   0.741   3.514 -0.0172 -0.6306 -1.1833
 1609SOL     OW 6267   6.671   3.507   2.220 -0.4626  0.0903  0.5533
 1609SOL    HW1 6268   6.740   3.450   2.255  0.1047  0.6722  0.3975
 1609SOL    HW2 6269   6.715   3.591   2.205 -1.6669  1.1016  2.3478
 1610SOL     OW 6270   0.699   6.208  11.544  0.2204 -0.0793  1.5307
 1610SOL    HW1 6271   0.651   6.247  11.471 -0.4962 -0.9174  1.5248
 1610SOL    HW2 6272   0.786   6.189  11.508 -0.0195 -0.1800  0.9829
 1611SOL     OW 6273   3.545   7.016   8.003 -0.3561  0.0155 -0.1369
 1611SOL    HW1 6274   3.568   6.968   7.923  1.0861  0.3939  0.0360
 1611SOL    HW2 6275   3.457   6.984   8.025 -0.5974 -0.4121 -1.6221
 1612SOL     OW 6276   2.629   4.429   0.697 -0.0988 -0.3889  0.4906
 1612SOL    HW1 6277   2.634   4.431   0.602 -1.6081 -0.6091  0.3763
 1612SOL    HW2 6278   2.706   4.478   0.727  0.7157 -0.8153 -0.8113
 1613SOL     OW 6279   4.601   7.483   7.754  0.1823 -0.1373 -0.9395
 1613SOL    HW1 6280   4.568   7.393   7.764  1.0658 -0.5335 -1.4746
 1613SOL    HW2 6281   4.558   7.532   7.824 -2.1839 -0.4211 -2.1064
 1614SOL     OW 6282   2.634   1.499   1.496  0.2283 -0.1881 -0.4784
 1614SOL    HW1 6283   2.542   1.476   1.479 -0.1371  1.0618 -0.3234
 1614SOL    HW2 6284   2.684   1.423   1.466 -0.9428 -1.5254  0.7841
 1615SOL     OW 6285   2.870   0.856   1.618 -0.2316 -0.3585 -0.0283
 1615SOL    HW1 6286   2.808   0.817   1.680 -1.9455  1.3691 -0.5718
 1615SOL    HW2 6287   2.904   0.782   1.568 -0.9285 -1.4709  1.0814
 1616SOL     OW 6288   0.129   7.597  11.824  0.1132 -0.2298 -0.1154
 1616SOL    HW1 6289   0.052   7.543  11.812  0.2347 -0.9822  2.0424
 1616SOL    HW2 6290   0.116   7.672  11.766 -1.0338 -1.5517 -1.6130
 1617SOL     OW 6291   2.169   2.925   0.163  0.4514  1.4748 -0.6497
 1617SOL    HW1 6292   2.081   2.896   0.184  1.2055 -0.4689  0.0553
 1617SOL    HW2 6293   2.158   2.982   0.086 -1.0807 -1.8319 -3.1520
 1618SOL     OW 6294   5.202   0.424  11.984 -0.0912 -0.0353 -0.4603
 1618SOL    HW1 6295   5.290   0.393  11.962  0.0302  0.2372 -0.3568
 1618SOL    HW2 6296   5.214   0.476  12.064 -0.2430  0.5421 -0.8072
 1619SOL     OW 6297   4.645   3.425   3.899  0.6220  0.3624  0.0722
 1619SOL    HW1 6298   4.703   3.395   3.829 -0.8316 -0.9730 -0.5966
 1619SOL    HW2 6299   4.565   3.374   3.888 -0.1808  1.1711  1.8289
 1620SOL     OW 6300   3.656   3.400   0.464 -0.2494  0.0305  0.3888
 1620SOL    HW1 6301   3.633   3.316   0.425 -1.1931 -0.0117  1.0040
 1620SOL    HW2 6302   3.696   3.377   0.548  1.0438  0.1482 -0.1693
 1621SOL     OW 6303   6.887   6.500  11.882 -0.2679  0.4070  0.5076
 1621SOL    HW1 6304   6.949   6.494  11.809 -0.8044  0.9680  0.0004
 1621SOL    HW2 6305   6.943   6.510  11.959  0.3088 -0.2817  0.1919
 1622SOL     OW 6306   3.744   6.755   3.956  0.5182 -0.3357  0.2687
 1622SOL    HW1 6307   3.765   6.809   3.880  0.6591 -1.2984 -0.3943
 1622SOL    HW2 6308   3.649   6.766   3.967  0.6581  0.6276  0.6129
 1623SOL     OW 6309   3.302   6.640   8.692 -0.1861  0.0905 -0.0261
 1623SOL    HW1 6310   3.225   6.596   8.656  2.0129 -2.9264 -1.4945
 1623SOL    HW2 6311   3.298   6.729   8.656 -3.2553  0.2802  0.5235
 1624SOL     OW 6312   0.589   0.555  12.443  0.1017  0.2177 -0.3262
 1624SOL    HW1 6313   0.663   0.497  12.462 -0.0114 -0.0202 -0.5999
 1624SOL    HW2 6314   0.515   0.496  12.429  0.0138  0.4194 -0.7334
 1625SOL     OW 6315   5.004   0.908   6.924  0.0130  0.1279 -0.0267
 1625SOL    HW1 6316   4.974   0.900   7.015 -1.6235  0.8298 -0.4712
 1625SOL    HW2 6317   5.016   0.818   6.895 -1.4756 -0.1784  0.2564
 1626SOL     OW 6318   0.889   3.735   3.374  0.1371  0.6023 -0.6079
 1626SOL    HW1 6319   0.934   3.766   3.452 -0.1834  0.7139 -0.4630
 1626SOL    HW2 6320   0.796   3.739   3.397  0.0914 -0.7351 -0.4790
 1627SOL     OW 6321   3.977   5.827   9.051  0.2388  0.7160  0.5118
 1627SOL    HW1 6322   4.050   5.768   9.032 -0.6623 -0.6566  1.1670
 1627SOL    HW2 6323   4.019   5.909   9.077  1.6013 -0.5245  2.4680
 1628SOL     OW 6324   7.612   1.625   6.406 -0.0899  0.3637  0.2518
 1628SOL    HW1 6325   7.632   1.693   6.341  2.1188  0.5420  1.0099
 1628SOL    HW2 6326   7.617   1.543   6.357  0.8774  0.5450  0.0141
 1629SOL     OW 6327   4.587   0.418  10.518 -0.6063  0.2942  0.0201
 1629SOL    HW1 6328   4.579   0.367  10.438  3.2972 -1.2111  0.4251
 1629SOL    HW2 6329   4.557   0.360  10.587  1.1817 -0.4960  0.1727
 1630SOL     OW 6330   3.290   6.873   2.225 -0.5768  0.1378  0.7215
 1630SOL    HW1 6331   3.261   6.795   2.177  2.0439 -0.3026 -0.2924
 1630SOL    HW2 6332   3.232   6.876   2.301 -2.2155 -1.4974 -0.3539
 1631SOL     OW 6333   7.920   5.239   1.049  0.1295  0.2983 -0.3700
 1631SOL    HW1 6334   7.898   5.178   0.978  1.1216 -0.0011 -0.4312
 1631SOL    HW2 6335   7.838   5.283   1.068 -0.9850 -2.0016  0.6027
 1632SOL     OW 6336   3.959   7.572   6.775 -0.0010  1.0003  0.7670
 1632SOL    HW1 6337   4.050   7.569   6.806 -0.2264  1.3298  1.4785
 1632SOL    HW2 6338   3.964   7.541   6.685  0.5470 -0.8653  1.4028
 1633SOL     OW 6339   6.057   5.003   4.470 -0.9891 -0.3199  0.2018
 1633SOL    HW1 6340   6.099   5.013   4.385  0.0090 -1.8268  0.4839
 1633SOL    HW2 6341   5.963   5.009   4.451 -0.7551  0.1076 -0.8837
 1634SOL     OW 6342   4.344   1.731   8.786  0.3277  0.1873 -0.2331
 1634SOL    HW1 6343   4.331   1.708   8.878  2.9500  0.5830  0.3111
 1634SOL    HW2 6344   4.367   1.824   8.787  0.3971  0.1917 -1.2944
 1635SOL     OW 6345   5.602   0.179   8.009 -0.7894  0.1734  0.1256
 1635SOL    HW1 6346   5.653   0.223   7.941 -0.0450 -1.2610 -0.2968
 1635SOL    HW2 6347   5.511   0.192   7.984 -0.5467 -2.3312 -2.5974
 1636SOL     OW 6348   0.615   3.165  11.407  0.5079 -0.2672 -0.1642
 1636SOL    HW1 6349   0.635   3.079  11.444  0.3075 -0.2109  0.0744
 1636SOL    HW2 6350   0.690   3.184  11.351 -0.2638 -1.4071 -1.6730
 1637SOL     OW 6351   1.563   7.051   7.847  0.2550 -0.2136  0.1405
 1637SOL    HW1 6352   1.610   7.090   7.774  1.6325 -0.2257  0.9788
 1637SOL    HW2 6353   1.543   7.125   7.906  0.4525 -0.4018  0.4454
 1638SOL     OW 6354   5.440   4.380   0.975 -0.4016  0.1515 -0.0939
 1638SOL    HW1 6355   5.464   4.370   1.068  0.6483  0.6972 -0.2928
 1638SOL    HW2 6356   5.473   4.467   0.952 -1.0741  0.2069 -0.8629
 1639SOL     OW 6357   3.753   6.531   9.934 -0.4164  0.5778  0.1325
 1639SOL    HW1 6358   3.820   6.548  10.000 -1.4686  0.6032  1.2078
 1639SOL    HW2 6359   3.739   6.436   9.937  2.0798 -0.0610 -2.6098
 1640SOL     OW 6360   0.831   1.706   5.059  0.2589  0.1510 -0.5137
 1640SOL    HW1 6361   0.904   1.700   4.998  1.4259  0.7088  0.7706
 1640SOL    HW2 6362   0.819   1.800   5.073  0.2174  0.0226  0.3578
 1641SOL     OW 6363   4.280   4.520  12.057  0.5063 -0.0687 -0.0582
 1641SOL    HW1 6364   4.318   4.454  11.998 -0.6170 -0.6852 -0.1222
 1641SOL    HW2 6365   4.237   4.582  11.998 -0.9874 -0.9181  0.0915
 1642SOL     OW 6366   6.365   6.097   4.146 -0.4522  0.1946 -0.2485
 1642SOL    HW1 6367   6.444   6.149   4.136 -0.3669 -0.1107 -1.2101
 1642SOL    HW2 6368   6.299   6.159   4.177 -0.1682  0.7244 -0.6919
 1643SOL     OW 6369   2.423   4.453   6.245 -0.1161  0.0566 -0.1398
 1643SOL    HW1 6370   2.513   4.482   6.263  0.6526 -1.7263 -0.8548
 1643SOL    HW2 6371   2.415   4.369   6.291 -1.8766  0.7910  0.9847
 1644SOL     OW 6372   4.072   0.229   7.127  0.0527  0.3838  0.2834
 1644SOL    HW1 6373   4.142   0.258   7.185  0.4896  0.6026 -0.3329
 1644SOL    HW2 6374   4.115   0.167   7.067 -0.3681  0.2184  0.1523
 1645SOL     OW 6375   5.601   0.564   8.883  0.1407 -0.4041 -0.0731
 1645SOL    HW1 6376   5.646   0.593   8.963  0.6085  2.6073 -1.2853
 1645SOL    HW2 6377   5.647   0.484   8.857  2.7741  0.8133  0.4797
 1646SOL     OW 6378   0.304   4.898   4.895  0.6591 -0.0868 -0.7692
 1646SOL    HW1 6379   0.311   4.964   4.964  2.2925  1.4200 -2.3032
 1646SOL    HW2 6380   0.210   4.887   4.882  0.3401  1.8932 -0.4216
 1647SOL     OW 6381   3.693   3.791   2.592 -0.8842 -0.2903  0.3664
 1647SOL    HW1 6382   3.724   3.773   2.681 -1.2419 -0.7205  0.4065
 1647SOL    HW2 6383   3.713   3.711   2.544 -1.5690 -0.4214  0.2955
 1648SOL     OW 6384   6.979   7.919   0.576  0.4594  0.1129  1.0828
 1648SOL    HW1 6385   6.958   7.854   0.643 -0.6625  0.9506  1.5843
 1648SOL    HW2 6386   7.058   7.886   0.534 -1.2504 -2.7833 -0.2172
 1649SOL     OW 6387   6.813   2.770   7.652 -0.2907 -0.4163  0.0171
 1649SOL    HW1 6388   6.806   2.728   7.737 -0.7139 -0.0559  0.1652
 1649SOL    HW2 6389   6.840   2.860   7.671  1.2617 -0.7713 -0.3363
 1650SOL     OW 6390   5.159   3.819   3.549 -0.0273  0.2944  0.8303
 1650SOL    HW1 6391   5.226   3.888   3.548 -1.2853  1.5896  1.6818
 1650SOL    HW2 6392   5.203   3.743   3.585  1.9543 -0.0067 -1.8982
 1651SOL     OW 6393   0.467   2.037   3.901  0.0523  0.2506 -0.4079
 1651SOL    HW1 6394   0.484   2.041   3.806  0.8235 -0.6139 -0.3185
 1651SOL    HW2 6395   0.492   2.124   3.933  2.9985 -0.4370 -0.5314
 1652SOL     OW 6396   2.319   0.390   2.841  0.6020 -0.5303 -0.1528
 1652SOL    HW1 6397   2.301   0.483   2.859 -0.0298 -0.2529 -2.0112
 1652SOL    HW2 6398   2.414   0.387   2.830  0.7149 -0.2614  0.6395
 1653SOL     OW 6399   7.531   7.775  10.666 -0.1035  0.2320  0.4992
 1653SOL    HW1 6400   7.468   7.798  10.734 -0.8502  0.4962 -0.2617
 1653SOL    HW2 6401   7.511   7.684  10.645 -1.8589  0.9744 -1.3877
 1654SOL     OW 6402   7.898   1.737   5.150  0.3016 -0.6597  0.2453
 1654SOL    HW1 6403   7.911   1.694   5.235  1.5701  1.9733  1.4907
 1654SOL    HW2 6404   7.804   1.751   5.145  0.3653  0.9292  2.2218
 1655SOL     OW 6405   4.736   4.239  10.376  0.3926 -0.7365 -0.0086
 1655SOL    HW1 6406   4.798   4.304  10.346  0.8445  0.7939  3.7080
 1655SOL    HW2 6407   4.655   4.288  10.392 -0.0160 -1.5501  0.5207
 1656SOL     OW 6408   0.936   6.800  11.277 -0.5324 -0.4847  0.0459
 1656SOL    HW1 6409   0.907   6.725  11.328  0.4262  0.6842  2.4342
 1656SOL    HW2 6410   0.930   6.875  11.337 -0.5234  1.2229 -1.9349
 1657SOL     OW 6411   0.626   6.801   9.444 -0.6760  0.8774  0.0454
 1657SOL    HW1 6412   0.543   6.850   9.449 -1.7126 -0.9210  2.1004
 1657SOL    HW2 6413   0.687   6.854   9.495 -0.3497  2.4260 -1.8142
 1658SOL     OW 6414   3.267   3.186   5.063  0.3613  0.3399  0.1614
 1658SOL    HW1 6415   3.212   3.265   5.063  0.0491  0.1299 -0.2802
 1658SOL    HW2 6416   3.230   3.132   4.993  2.3082  1.0337 -1.5256
 1659SOL     OW 6417   2.852   2.753   2.682  0.0632 -0.2263  0.0960
 1659SOL    HW1 6418   2.880   2.719   2.767  0.9955  0.2960 -0.0013
 1659SOL    HW2 6419   2.780   2.813   2.703 -0.4385 -0.9213  0.4126
 1660SOL     OW 6420   1.408   1.698   6.150  0.1109 -0.0300 -0.2759
 1660SOL    HW1 6421   1.437   1.762   6.085 -1.2090  0.8939 -0.0031
 1660SOL    HW2 6422   1.469   1.625   6.141  0.7512  0.6344 -1.6342
 1661SOL     OW 6423   4.870   3.555   6.440  0.2296 -0.5021  0.3556
 1661SOL    HW1 6424   4.776   3.549   6.423  0.3902 -0.0477 -0.7433
 1661SOL    HW2 6425   4.876   3.607   6.520 -0.4773 -1.1706  0.8602
 1662SOL     OW 6426   7.468   0.570   7.677 -0.4603  0.4046  0.2322
 1662SOL    HW1 6427   7.435   0.620   7.752 -0.8060  1.6081 -0.6716
 1662SOL    HW2 6428   7.563   0.572   7.687 -0.5156  0.1325  0.8832
 1663SOL     OW 6429   1.130   0.902  12.338  0.3671  0.3422 -0.2677
 1663SOL    HW1 6430   1.188   0.968  12.301  0.1378  0.1150 -1.0586
 1663SOL    HW2 6431   1.047   0.947  12.352  0.5470  0.5123  0.3014
 1664SOL     OW 6432   1.081   1.549   3.349  0.6167  0.1737 -0.0416
 1664SOL    HW1 6433   1.132   1.525   3.272  1.4531  0.7615  0.3111
 1664SOL    HW2 6434   1.115   1.493   3.419 -1.4529 -1.7578 -0.4609
 1665SOL     OW 6435   6.819   3.811  10.910 -0.0197 -0.0340 -0.3362
 1665SOL    HW1 6436   6.897   3.854  10.943  0.0507  0.8254 -1.5517
 1665SOL    HW2 6437   6.819   3.829  10.816 -0.3200 -2.1861 -0.8185
 1666SOL     OW 6438   4.275   1.844  12.270  0.1302  0.3832 -0.2691
 1666SOL    HW1 6439   4.197   1.820  12.221 -0.5737  1.2754  0.3806
 1666SOL    HW2 6440   4.249   1.835  12.362  1.1865 -0.5284 -0.0246
 1667SOL     OW 6441   4.194   5.641  11.935  0.0504  0.0248 -0.4154
 1667SOL    HW1 6442   4.261   5.706  11.958  1.0686 -1.1777  0.1480
 1667SOL    HW2 6443   4.116   5.693  11.914  0.6707  1.3966  0.5469
 1668SOL     OW 6444   1.381   3.073  10.276 -0.6312  0.2227  0.6577
 1668SOL    HW1 6445   1.416   3.160  10.256  0.2900 -0.1306  0.7174
 1668SOL    HW2 6446   1.421   3.049  10.359 -0.3388 -0.5556  0.2962
 1669SOL     OW 6447   5.022   2.002   0.159 -0.0066  0.0193  0.1843
 1669SOL    HW1 6448   5.081   2.026   0.088  1.1424 -1.9884  0.3961
 1669SOL    HW2 6449   4.935   2.000   0.119  0.1684  1.9998 -0.3696
 1670SOL     OW 6450   5.663   6.385   0.669  0.2979  0.1682  0.8812
 1670SOL    HW1 6451   5.570   6.387   0.647  0.6772  0.5744 -0.7778
 1670SOL    HW2 6452   5.681   6.470   0.709  0.6429  1.5109 -1.9283
 1671SOL     OW 6453   6.828   7.891   5.118  0.3470 -0.4344 -0.0631
 1671SOL    HW1 6454   6.861   7.894   5.029 -0.4212 -1.1215 -0.3903
 1671SOL    HW2 6455   6.743   7.848   5.110 -0.0225  0.0901  0.9169
 1672SOL     OW 6456   5.913   0.893   9.071 -0.1807  0.5752  0.8990
 1672SOL    HW1 6457   5.891   0.985   9.091  1.0014  0.7524  1.4223
 1672SOL    HW2 6458   5.959   0.862   9.149  1.9769  0.4049 -0.3842
 1673SOL     OW 6459   2.971   7.397   2.379  0.4486 -0.0061 -0.3456
 1673SOL    HW1 6460   2.956   7.440   2.295 -1.2624  0.2360  0.0521
 1673SOL    HW2 6461   3.008   7.465   2.434  1.0419 -0.0112 -0.7287
 1674SOL     OW 6462   7.221   5.966   4.122  1.0008  0.5410 -0.4943
 1674SOL    HW1 6463   7.148   6.028   4.114  1.0664  0.6287 -0.4009
 1674SOL    HW2 6464   7.180   5.886   4.155  1.0859  0.8589  0.4112
 1675SOL     OW 6465   3.708   0.751   8.195  0.8424 -0.7033 -0.4139
 1675SOL    HW1 6466   3.657   0.681   8.236 -0.9883  0.8057 -0.0003
 1675SOL    HW2 6467   3.672   0.832   8.231  3.5260  0.4758 -0.1597
 1676SOL     OW 6468   5.906   3.037   2.913  0.3063 -0.2587 -0.5298
 1676SOL    HW1 6469   5.922   2.984   2.835 -2.7543  0.0351 -1.4710
 1676SOL    HW2 6470   5.928   2.979   2.986  1.0530 -1.3335 -1.5569
 1677SOL     OW 6471   0.977   3.631   8.892  0.1929 -0.0774 -0.0305
 1677SOL    HW1 6472   1.034   3.707   8.908  1.1667 -0.9832  1.0496
 1677SOL    HW2 6473   0.888   3.664   8.903  0.6288  0.7695  1.1244
 1678SOL     OW 6474   2.594   5.121  10.898 -0.1714 -0.2451 -0.5314
 1678SOL    HW1 6475   2.651   5.125  10.820  0.1716 -2.2458 -0.4502
 1678SOL    HW2 6476   2.572   5.028  10.906  1.6595 -0.5315  3.0526
 1679SOL     OW 6477   3.970   0.040   3.799 -0.2753  0.3397 -0.2654
 1679SOL    HW1 6478   3.945   0.121   3.756 -1.5526  0.6340  0.9559
 1679SOL    HW2 6479   4.063   0.029   3.777 -0.6976  0.7737 -2.5097
 1680SOL     OW 6480   2.450   2.989  12.443 -0.1033 -0.4819  0.7195
 1680SOL    HW1 6481   2.458   3.052  12.515  2.1255  0.0215  0.1159
 1680SOL    HW2 6482   2.369   3.013  12.398  0.4648  1.7145  0.7730
 1681SOL     OW 6483   1.408   3.742   7.164  0.7175 -0.1548  0.1370
 1681SOL    HW1 6484   1.367   3.804   7.103 -1.0838  0.7475  2.1319
 1681SOL    HW2 6485   1.344   3.671   7.173  0.5241  0.1750  1.6169
 1682SOL     OW 6486   3.611   6.612   0.077 -0.1178 -0.1208  0.9022
 1682SOL    HW1 6487   3.699   6.615   0.038 -0.0292  1.1907  1.1492
 1682SOL    HW2 6488   3.552   6.619   0.002 -0.0544 -1.8065  0.6597
 1683SOL     OW 6489   6.399   1.471   5.499  0.4472 -0.0558  0.1636
 1683SOL    HW1 6490   6.365   1.389   5.535  0.5312 -0.1378  0.0563
 1683SOL    HW2 6491   6.361   1.476   5.411  1.4938 -0.6374 -0.3312
 1684SOL     OW 6492   1.132   6.640   2.360  0.4310  0.3259 -0.1327
 1684SOL    HW1 6493   1.154   6.707   2.425  0.3079  0.5353 -0.3055
 1684SOL    HW2 6494   1.077   6.579   2.408 -1.1076  1.3906 -0.4565
 1685SOL     OW 6495   2.811   4.747   3.964 -0.1617 -0.3780 -0.1430
 1685SOL    HW1 6496   2.810   4.806   4.039 -0.3076  0.4715 -0.7989
 1685SOL    HW2 6497   2.722   4.714   3.958 -0.0496 -0.7671  0.2999
 1686SOL     OW 6498   5.601   7.584  10.146  0.3522 -0.2604  0.7309
 1686SOL    HW1 6499   5.679   7.639  10.133  0.0358  0.1048  0.3410
 1686SOL    HW2 6500   5.544   7.638  10.202 -0.6672  0.5294 -1.0027
 1687SOL     OW 6501   3.635   5.153  12.003 -0.0453  0.2950 -0.3810
 1687SOL    HW1 6502   3.568   5.186  11.943 -0.2221  1.9078  0.6112
 1687SOL    HW2 6503   3.592   5.082  12.051 -0.4323  0.0852 -1.0343
 1688SOL     OW 6504   6.896   7.672   7.076  0.0935 -0.1765 -0.2804
 1688SOL    HW1 6505   6.982   7.642   7.106  0.6728 -0.1042 -1.8075
 1688SOL    HW2 6506   6.898   7.767   7.092 -1.2440 -0.5846  3.3148
 1689SOL     OW 6507   7.371   5.440  10.269 -0.2190  0.0905 -0.7308
 1689SOL    HW1 6508   7.309   5.507  10.299 -0.8596 -0.7651 -0.0791
 1689SOL    HW2 6509   7.404   5.401  10.350 -1.6541 -1.9764 -1.0704
 1690SOL     OW 6510   5.654   0.858   8.979 -0.0773  0.1812  0.4442
 1690SOL    HW1 6511   5.746   0.853   9.005 -0.1811 -2.3594  0.5456
 1690SOL    HW2 6512   5.609   0.887   9.058  0.5733  1.2931  0.4412
 1691SOL     OW 6513   2.806   5.445   8.166  0.0544 -0.2487 -0.1646
 1691SOL    HW1 6514   2.736   5.490   8.212  0.9084  1.1237 -0.1641
 1691SOL    HW2 6515   2.785   5.455   8.073  0.1778  0.0544 -0.1610
 1692SOL     OW 6516   0.047   7.858   8.182 -0.8058 -0.0048 -0.2496
 1692SOL    HW1 6517   0.062   7.841   8.275  2.6363  0.0304 -0.6635
 1692SOL    HW2 6518  -0.048   7.869   8.174 -1.1740  0.3605  3.2830
 1693SOL     OW 6519   7.487   2.275   0.571  0.4185  0.0520  0.0306
 1693SOL    HW1 6520   7.569   2.289   0.524  0.2570 -0.6465 -0.4657
 1693SOL    HW2 6521   7.455   2.363   0.590  0.1253  0.3856 -1.8044
 1694SOL     OW 6522   3.963   2.553  11.456  0.2040  0.1429 -0.0938
 1694SOL    HW1 6523   3.935   2.532  11.368 -0.5112 -1.4011  0.4608
 1694SOL    HW2 6524   3.939   2.645  11.469  0.1644  0.3299 -1.4280
 1695SOL     OW 6525   4.349   7.726   6.230  0.1002 -0.7993  0.5410
 1695SOL    HW1 6526   4.341   7.818   6.255 -1.5122 -0.4104 -1.1396
 1695SOL    HW2 6527   4.406   7.687   6.296  0.2790  1.2533  1.6600
 1696SOL     OW 6528   3.400   4.836   6.997  0.2791 -0.1690  0.0840
 1696SOL    HW1 6529   3.375   4.845   7.090  0.6413 -0.1674  0.1810
 1696SOL    HW2 6530   3.464   4.766   6.996 -1.2873 -1.6524 -0.4591
 1697SOL     OW 6531   3.513   1.718  11.915  0.2791 -0.4114 -0.1876
 1697SOL    HW1 6532   3.467   1.800  11.934 -0.5724 -0.8517 -0.2665
 1697SOL    HW2 6533   3.448   1.665  11.869  0.8494 -1.0988 -0.2156
 1698SOL     OW 6534   5.774   2.979   8.975  0.0563 -0.2887 -0.4627
 1698SOL    HW1 6535   5.854   2.931   8.955 -1.0310 -2.4937  0.2006
 1698SOL    HW2 6536   5.768   2.978   9.070 -0.5228  0.3029 -0.4860
 1699SOL     OW 6537   4.183   3.289   0.523 -0.4483  0.0445 -0.3176
 1699SOL    HW1 6538   4.205   3.207   0.567 -1.5746  0.2985  0.7842
 1699SOL    HW2 6539   4.244   3.353   0.560  0.5405 -0.3126 -1.2987
 1700SOL     OW 6540   4.223   3.358   7.138  0.3769 -0.6234 -0.0812
 1700SOL    HW1 6541   4.286   3.429   7.136  0.6165 -0.6239  3.1909
 1700SOL    HW2 6542   4.269   3.285   7.179 -1.2003 -1.1854  0.7794
 1701SOL     OW 6543   4.641   0.527   0.906 -0.0354  0.1393  0.2128
 1701SOL    HW1 6544   4.666   0.619   0.918  0.7787  0.0929 -0.9274
 1701SOL    HW2 6545   4.721   0.485   0.873 -0.4737 -0.9317  0.4652
 1702SOL     OW 6546   1.968   1.707   4.895 -0.2304 -0.2518  0.3822
 1702SOL    HW1 6547   2.009   1.791   4.912  0.2947 -0.8932  2.8079
 1702SOL    HW2 6548   2.021   1.667   4.826 -0.6609  1.4632 -1.0050
 1703SOL     OW 6549   4.204   2.189   3.302  0.0852  0.1157  0.4234
 1703SOL    HW1 6550   4.147   2.156   3.232 -1.2655  0.6747  1.2330
 1703SOL    HW2 6551   4.244   2.111   3.340  0.0570 -0.2627 -0.3127
 1704SOL     OW 6552   5.399   0.364   0.497 -0.5004 -0.3202 -0.5817
 1704SOL    HW1 6553   5.472   0.400   0.446 -0.2427 -1.5429 -1.1214
 1704SOL    HW2 6554   5.321   0.395   0.453 -0.2981  0.3238 -0.4930
 1705SOL     OW 6555   4.024   4.102   6.404 -0.8228  0.3367  0.1308
 1705SOL    HW1 6556   3.968   4.097   6.482 -0.3887  1.6934  0.5625
 1705SOL    HW2 6557   4.076   4.022   6.407  0.2862  1.0483  2.1391
 1706SOL     OW 6558   7.914   7.552   5.686  0.1537  0.1329  0.0073
 1706SOL    HW1 6559   7.914   7.564   5.591  1.6654 -1.2845 -0.2140
 1706SOL    HW2 6560   7.908   7.641   5.722  0.0827  0.7154 -1.4033
 1707SOL     OW 6561   0.093   6.212   1.123  0.2774 -0.3486  0.2138
 1707SOL    HW1 6562   0.008   6.252   1.101  0.8586  0.6655 -0.2604
 1707SOL    HW2 6563   0.157   6.268   1.080  1.2919 -0.2009  1.8581
 1708SOL     OW 6564   5.855   3.203   8.047 -0.3579 -0.4296 -0.6100
 1708SOL    HW1 6565   5.851   3.143   8.122  0.7859 -1.3126 -1.2165
 1708SOL    HW2 6566   5.781   3.177   7.992 -0.9835 -0.0217  0.0277
 1709SOL     OW 6567   6.193   2.347   1.327  0.2693 -0.2028  0.8572
 1709SOL    HW1 6568   6.223   2.257   1.346 -1.2319 -0.3470  2.9042
 1709SOL    HW2 6569   6.195   2.390   1.412 -0.3257  1.3280  0.1163
 1710SOL     OW 6570   4.515   5.652   3.001 -0.6027 -0.5055  0.8138
 1710SOL    HW1 6571   4.471   5.702   3.069 -0.0641 -2.8559  3.0819
 1710SOL    HW2 6572   4.445   5.622   2.943 -1.3664 -0.2218  1.5767
 1711SOL     OW 6573   6.899   5.476   9.106  0.0736  0.5482 -0.3363
 1711SOL    HW1 6574   6.922   5.416   9.177 -0.7739  1.6826  0.9523
 1711SOL    HW2 6575   6.804   5.474   9.103 -0.1115  3.1685  1.0302
 1712SOL     OW 6576   7.215   1.271  10.510 -0.0416  0.4283 -0.9799
 1712SOL    HW1 6577   7.162   1.338  10.467  2.6317  1.6231 -2.6807
 1712SOL    HW2 6578   7.178   1.188  10.482 -0.6661  1.2205 -2.5781
 1713SOL     OW 6579   2.631   4.699   7.049 -0.5674 -0.3076 -0.2428
 1713SOL    HW1 6580   2.556   4.690   7.107  0.5126 -0.8558  1.1532
 1713SOL    HW2 6581   2.604   4.762   6.983 -2.0452 -0.0757  0.5476
 1714SOL     OW 6582   7.695   5.614   5.581 -0.3149  0.0852  0.1123
 1714SOL    HW1 6583   7.734   5.527   5.586 -0.6088 -0.0910 -0.5849
 1714SOL    HW2 6584   7.756   5.670   5.629  1.2727 -0.0229 -1.6705
 1715SOL     OW 6585   2.290   3.646   1.723 -0.1053  0.1501 -0.7121
 1715SOL    HW1 6586   2.368   3.655   1.667 -1.1499 -0.2942 -2.3140
 1715SOL    HW2 6587   2.237   3.580   1.678 -1.4565  0.5274  0.2981
 1716SOL     OW 6588   2.080   6.079   9.973  0.0371 -0.1384  0.3745
 1716SOL    HW1 6589   2.039   6.006  10.019 -0.7662  0.3454  0.4303
 1716SOL    HW2 6590   2.009   6.140   9.955  0.6225  0.4257 -0.0802
 1717SOL     OW 6591   3.250   2.398   4.403 -0.3068  0.4087 -0.0881
 1717SOL    HW1 6592   3.213   2.312   4.388 -0.4542  0.6499 -1.1649
 1717SOL    HW2 6593   3.300   2.389   4.484 -0.0949 -0.7596 -0.3364
 1718SOL     OW 6594   4.084   7.319  11.902 -0.0559 -0.1913  0.4727
 1718SOL    HW1 6595   4.006   7.331  11.848 -0.4487 -0.3515  0.9992
 1718SOL    HW2 6596   4.155   7.359  11.851 -1.0404  3.2740  1.5771
 1719SOL     OW 6597   0.632   4.456   5.717 -0.3906  0.4425  0.0090
 1719SOL    HW1 6598   0.664   4.366   5.715  0.5990  0.7842 -1.0635
 1719SOL    HW2 6599   0.564   4.458   5.649 -1.1722  0.2545  0.7732
 1720SOL     OW 6600   6.018   7.136   4.512  0.3312  0.1799  0.3737
 1720SOL    HW1 6601   6.066   7.145   4.594  0.0300 -0.2440  0.5980
 1720SOL    HW2 6602   6.046   7.211   4.459  1.1695 -0.0230  0.5297
 1721SOL     OW 6603   6.287   7.062   7.885  0.7015  0.6365 -0.4613
 1721SOL    HW1 6604   6.334   7.140   7.856  0.5488  0.5686 -0.9010
 1721SOL    HW2 6605   6.194   7.087   7.877  0.6552  0.9434  0.8650
 1722SOL     OW 6606   7.604   6.751   7.181 -0.0546  0.3921  0.1337
 1722SOL    HW1 6607   7.621   6.794   7.097 -0.3331  0.5139  0.1396
 1722SOL    HW2 6608   7.535   6.802   7.221  0.5011  0.7023  0.7221
 1723SOL     OW 6609   6.942   7.620   0.318 -0.7044  0.2239 -0.2410
 1723SOL    HW1 6610   7.023   7.668   0.337 -1.1216  0.7336  0.2525
 1723SOL    HW2 6611   6.970   7.529   0.308  0.1907  0.6249 -1.7807
 1724SOL     OW 6612   1.104   4.816   3.540 -0.1947 -0.3291 -0.8297
 1724SOL    HW1 6613   1.137   4.840   3.627 -1.2174  0.8626 -0.7547
 1724SOL    HW2 6614   1.099   4.720   3.542  1.2184 -0.4109 -0.1133
 1725SOL     OW 6615   7.744   5.732   2.196 -0.0796  0.2944  0.2608
 1725SOL    HW1 6616   7.777   5.704   2.110  0.3360 -1.3749  0.9118
 1725SOL    HW2 6617   7.669   5.675   2.212  0.5357 -0.2130  1.4763
 1726SOL     OW 6618   7.654   6.867   1.410  0.0056  0.3462 -0.0063
 1726SOL    HW1 6619   7.749   6.863   1.420 -0.0891  0.5234  1.0523
 1726SOL    HW2 6620   7.640   6.939   1.349  0.4938  1.1580  0.8292
 1727SOL     OW 6621   4.099   3.239   2.842 -0.8250 -0.1591 -0.0185
 1727SOL    HW1 6622   4.005   3.227   2.857 -0.9353  0.5660 -0.1087
 1727SOL    HW2 6623   4.139   3.226   2.928 -1.0901  0.3277  0.1810
 1728SOL     OW 6624   7.687   1.453   4.201  0.0703  0.0788 -0.0784
 1728SOL    HW1 6625   7.751   1.412   4.142  0.0416  0.6089 -0.4818
 1728SOL    HW2 6626   7.637   1.379   4.237 -0.3238 -0.2223 -1.1989
 1729SOL     OW 6627   4.912   6.567   2.780 -0.8316 -0.9519  0.4707
 1729SOL    HW1 6628   4.904   6.616   2.698 -0.8559 -1.1344  0.3618
 1729SOL    HW2 6629   4.828   6.581   2.824 -0.5715 -0.3126  0.7722
 1730SOL     OW 6630   6.321   3.837   1.347 -0.1749  0.1193  0.5479
 1730SOL    HW1 6631   6.353   3.842   1.437 -0.9383  0.5027  0.7969
 1730SOL    HW2 6632   6.385   3.887   1.296  0.2861 -0.1421  0.8586
 1731SOL     OW 6633   7.038   2.555   0.343  0.2915  0.9026  0.0626
 1731SOL    HW1 6634   6.957   2.560   0.394  0.4452 -0.5216  0.4969
 1731SOL    HW2 6635   7.103   2.600   0.397  0.3968 -0.3891  1.0598
 1732SOL     OW 6636   5.557   0.859   9.749  0.0930  0.8091 -0.1582
 1732SOL    HW1 6637   5.607   0.778   9.735 -0.2293  0.2106  1.8561
 1732SOL    HW2 6638   5.595   0.897   9.828  0.5040  2.8867 -1.2811
 1733SOL     OW 6639   7.469   0.157   8.482  0.5935 -0.4711  0.1324
 1733SOL    HW1 6640   7.510   0.100   8.546 -0.8416 -2.0576 -0.2832
 1733SOL    HW2 6641   7.410   0.212   8.534  0.7320 -0.5321  0.3569
 1734SOL     OW 6642   5.226   0.684   1.058 -0.0932  0.0111  0.1216
 1734SOL    HW1 6643   5.246   0.635   0.978  3.3349 -2.2109  2.0818
 1734SOL    HW2 6644   5.278   0.764   1.051 -2.7343  1.7457 -1.3750
 1735SOL     OW 6645   6.155   3.972  10.825  0.8464 -0.1061 -0.1078
 1735SOL    HW1 6646   6.175   3.890  10.870  0.3799 -0.3127 -0.2792
 1735SOL    HW2 6647   6.210   4.037  10.869 -0.2486 -0.1373  1.3510
 1736SOL     OW 6648   3.135   4.303   2.835  0.1556 -0.0331  0.4797
 1736SOL    HW1 6649   3.156   4.394   2.855 -0.7961  0.1406  0.7142
 1736SOL    HW2 6650   3.040   4.297   2.843  0.0077 -0.6298 -1.2582
 1737SOL     OW 6651   4.190   5.573   8.426 -0.1448  0.2802  0.1985
 1737SOL    HW1 6652   4.237   5.639   8.478  2.3329 -0.6623 -0.6807
 1737SOL    HW2 6653   4.136   5.624   8.365  1.5747  1.5602 -0.3351
 1738SOL     OW 6654   5.427   1.310   4.660 -0.5525 -0.5208  0.3236
 1738SOL    HW1 6655   5.486   1.265   4.599 -1.2748 -0.1164 -0.6946
 1738SOL    HW2 6656   5.407   1.244   4.726  1.3890 -0.5386  0.9812
 1739SOL     OW 6657   4.066   2.253   1.003 -0.5310  0.1247 -0.1839
 1739SOL    HW1 6658   4.057   2.216   0.916  1.2104  0.3835 -0.5231
 1739SOL    HW2 6659   3.985   2.302   1.018 -1.3165 -0.8453 -1.1828
 1740SOL     OW 6660   2.650   3.149   6.312 -0.4191  0.3246  0.4054
 1740SOL    HW1 6661   2.574   3.099   6.281  0.5139 -1.5787  1.0362
 1740SOL    HW2 6662   2.628   3.171   6.403 -1.3618  2.2505 -0.2302
 1741SOL     OW 6663   6.367   3.110   0.768  0.0980 -0.0072  0.1585
 1741SOL    HW1 6664   6.319   3.043   0.720  0.6478 -0.6309  0.4580
 1741SOL    HW2 6665   6.303   3.144   0.832  0.3650 -1.6952  1.3970
 1742SOL     OW 6666   7.220   7.145   9.151  0.2430 -0.4103  0.3981
 1742SOL    HW1 6667   7.313   7.166   9.142  0.0076  0.5536  0.0262
 1742SOL    HW2 6668   7.176   7.204   9.089 -0.6519 -0.5124  0.9144
 1743SOL     OW 6669   7.448   7.874  10.334 -0.1655 -0.3289  0.2948
 1743SOL    HW1 6670   7.442   7.933  10.259  1.9314 -0.4281 -0.0200
 1743SOL    HW2 6671   7.394   7.915  10.401 -1.3781  0.2154 -0.9786
 1744SOL     OW 6672   5.956   6.239  11.331 -0.0616  0.4775  0.6512
 1744SOL    HW1 6673   5.976   6.316  11.278  5.1138  0.2239  1.6655
 1744SOL    HW2 6674   5.961   6.166  11.269 -0.7327  0.6340  0.4074
 1745SOL     OW 6675   5.480   4.557   0.198  0.1077  0.2766  0.4402
 1745SOL    HW1 6676   5.568   4.595   0.207  0.6701 -1.2442  1.7444
 1745SOL    HW2 6677   5.433   4.620   0.143  1.7071  1.6193  0.5195
 1746SOL     OW 6678   0.752   0.805   3.816 -0.1278 -0.0833  0.2383
 1746SOL    HW1 6679   0.720   0.857   3.743 -1.0274 -0.9326  0.0176
 1746SOL    HW2 6680   0.834   0.766   3.784  0.6130  1.2400  0.4431
 1747SOL     OW 6681   2.011   5.967  11.704 -0.7978  0.2054  0.3080
 1747SOL    HW1 6682   2.073   5.995  11.637  0.8358  1.9548  2.3977
 1747SOL    HW2 6683   2.061   5.911  11.763 -1.5753  0.4856  1.2706
 1748SOL     OW 6684   3.104   0.628  10.338  0.3965  0.2020 -0.1193
 1748SOL    HW1 6685   3.072   0.671  10.258  1.1018 -0.3760 -0.7336
 1748SOL    HW2 6686   3.051   0.549  10.346  0.7743 -0.0859 -0.4050
 1749SOL     OW 6687   6.087   2.758  11.354  0.1547  0.3021 -0.0502
 1749SOL    HW1 6688   6.132   2.843  11.348  0.0839  0.4600  1.2541
 1749SOL    HW2 6689   6.119   2.720  11.436  0.8365 -1.3456 -1.0370
 1750SOL     OW 6690   5.453   7.336   7.893  0.0260  0.3207  0.6777
 1750SOL    HW1 6691   5.402   7.417   7.883 -0.3237 -0.0688 -0.9863
 1750SOL    HW2 6692   5.518   7.357   7.960  1.0656  2.5665 -0.8928
 1751SOL     OW 6693   5.602   5.319   8.480 -0.8076 -0.5328 -0.3400
 1751SOL    HW1 6694   5.679   5.370   8.455 -0.9405 -0.2957 -0.2671
 1751SOL    HW2 6695   5.553   5.308   8.398 -1.7399  1.0786 -0.0265
 1752SOL     OW 6696   1.116   4.548   9.640  0.1042 -0.1783 -0.7564
 1752SOL    HW1 6697   1.027   4.515   9.652  0.1517 -0.7493 -1.8669
 1752SOL    HW2 6698   1.121   4.623   9.699 -0.7248 -0.8274  0.1864
 1753SOL     OW 6699   2.188   3.115   8.778  0.8825  0.0880  0.6651
 1753SOL    HW1 6700   2.265   3.167   8.755  0.1776  0.2885 -1.5031
 1753SOL    HW2 6701   2.148   3.161   8.852  0.8603  2.0698 -0.5302
 1754SOL     OW 6702   7.085   6.735   1.223  0.1623  0.3285 -0.0743
 1754SOL    HW1 6703   7.034   6.784   1.288  0.2983 -3.3217  3.1373
 1754SOL    HW2 6704   7.174   6.734   1.259  0.3858 -1.2029 -0.5968
 1755SOL     OW 6705   7.270   1.876  10.410 -0.3044 -0.1071  0.2172
 1755SOL    HW1 6706   7.246   1.852  10.499 -1.2682 -1.4856 -0.3817
 1755SOL    HW2 6707   7.365   1.861  10.405 -0.6923 -3.0041  0.1738
 1756SOL     OW 6708   0.911   0.345   5.927 -0.3285 -0.2199  0.0691
 1756SOL    HW1 6709   0.851   0.413   5.896 -1.8996 -0.8970  1.4253
 1756SOL    HW2 6710   0.871   0.315   6.009  1.2812 -1.5318  0.4116
 1757SOL     OW 6711   6.705   5.369   0.312  0.3780 -0.2242  0.3935
 1757SOL    HW1 6712   6.710   5.464   0.304 -0.2088 -0.3174 -1.4322
 1757SOL    HW2 6713   6.794   5.338   0.295  0.3599 -0.0602  0.0029
 1758SOL     OW 6714   2.248   7.418  10.041  0.0133  0.0955 -0.1040
 1758SOL    HW1 6715   2.232   7.350   9.976 -0.3544  0.1450 -0.0701
 1758SOL    HW2 6716   2.288   7.372  10.115 -1.2562 -0.3003  0.3737
 1759SOL     OW 6717   2.962   4.249   3.673  0.0801  0.2217  0.5825
 1759SOL    HW1 6718   2.955   4.162   3.632  0.8511 -0.3656  1.6477
 1759SOL    HW2 6719   3.023   4.296   3.618  1.3264 -0.6579  1.1687
 1760SOL     OW 6720   7.700   2.483   5.013 -0.1366 -0.1685  0.4596
 1760SOL    HW1 6721   7.788   2.504   5.046 -0.3820 -0.9708  1.6791
 1760SOL    HW2 6722   7.673   2.406   5.064 -1.6539  0.2352  0.3064
 1761SOL     OW 6723   1.909   4.097   6.033 -0.6534 -0.1152  0.0770
 1761SOL    HW1 6724   1.918   4.097   6.128  0.2227 -2.1219  0.0622
 1761SOL    HW2 6725   1.989   4.136   6.000 -1.8809  2.6441  0.1191
 1762SOL     OW 6726   6.689   1.515   7.914 -0.1767 -0.2136  0.3395
 1762SOL    HW1 6727   6.752   1.445   7.925  0.1180  0.2622  1.7829
 1762SOL    HW2 6728   6.726   1.570   7.845  0.6672 -0.2775  0.7394
 1763SOL     OW 6729   6.999   6.090   5.461 -0.0442 -0.5626 -0.4380
 1763SOL    HW1 6730   6.999   6.113   5.554  0.7817 -1.2021 -0.2665
 1763SOL    HW2 6731   7.051   6.158   5.419 -2.2757  1.0399 -0.8225
 1764SOL     OW 6732   0.004   2.230   6.562 -0.4690 -0.2688 -0.1557
 1764SOL    HW1 6733   0.045   2.285   6.628 -4.8124 -0.7455  3.4739
 1764SOL    HW2 6734   0.047   2.145   6.572  2.2898  0.8463 -1.6500
 1765SOL     OW 6735   6.689   5.825   1.717 -0.1561 -0.1307 -0.3132
 1765SOL    HW1 6736   6.620   5.886   1.744 -0.6249 -0.5925 -0.4641
 1765SOL    HW2 6737   6.662   5.794   1.631 -0.5197 -1.4291  0.2450
 1766SOL     OW 6738   0.745   0.360   9.150 -0.3941  0.6147  0.1103
 1766SOL    HW1 6739   0.799   0.424   9.104 -0.2277  0.4851  0.1258
 1766SOL    HW2 6740   0.765   0.373   9.242 -0.0057  0.2226  0.0838
 1767SOL     OW 6741   3.423   6.603   9.511  0.7404  0.3701  0.0453
 1767SOL    HW1 6742   3.507   6.572   9.478 -0.5641 -1.6545 -1.6852
 1767SOL    HW2 6743   3.409   6.554   9.592  0.4565 -0.6868 -0.6215
 1768SOL     OW 6744   6.761   7.119  10.742 -0.5397  0.2343 -0.2490
 1768SOL    HW1 6745   6.777   7.211  10.760  0.0208 -0.1298  1.3749
 1768SOL    HW2 6746   6.696   7.093  10.807  1.6104 -1.1932  1.5083
 1769SOL     OW 6747   2.682   1.385  11.346 -0.0775  0.8913  0.0720
 1769SOL    HW1 6748   2.686   1.477  11.319 -0.9855  1.4008  1.5173
 1769SOL    HW2 6749   2.589   1.363  11.339 -0.0416  0.4636  0.8278
 1770SOL     OW 6750   6.778   2.437   7.675  0.5029 -0.0577 -0.2067
 1770SOL    HW1 6751   6.868   2.467   7.672  0.5493 -0.1306  0.2982
 1770SOL    HW2 6752   6.765   2.408   7.765  0.1473 -0.5726 -0.4129
 1771SOL     OW 6753   3.419   2.025   6.668 -0.5472 -0.9834 -0.3044
 1771SOL    HW1 6754   3.412   1.958   6.735 -0.1031 -0.6132  0.1146
 1771SOL    HW2 6755   3.423   1.977   6.585 -0.1937 -1.4706 -0.0042
 1772SOL     OW 6756   1.922   7.658  11.519  0.0974 -0.2108  0.3214
 1772SOL    HW1 6757   2.002   7.694  11.556  0.4680  1.2206 -1.6944
 1772SOL    HW2 6758   1.927   7.564  11.535  1.6297 -0.0000  1.2046
 1773SOL     OW 6759   3.637   2.516   2.482 -0.0182 -0.9713  0.1991
 1773SOL    HW1 6760   3.603   2.578   2.417  0.7040 -0.7498  0.0117
 1773SOL    HW2 6761   3.566   2.504   2.544 -0.3620 -0.3648 -0.0651
 1774SOL     OW 6762   1.628   7.626   9.914 -0.0718 -0.3427 -0.0812
 1774SOL    HW1 6763   1.711   7.596   9.876 -0.4591 -0.8176 -0.5668
 1774SOL    HW2 6764   1.654   7.672   9.993  0.4876 -3.2229  1.5560
 1775SOL     OW 6765   2.983   6.557   9.362  0.5141 -0.0009  0.4477
 1775SOL    HW1 6766   2.923   6.590   9.429 -1.9202  0.5029 -1.8298
 1775SOL    HW2 6767   3.055   6.621   9.360 -0.3486  1.0239  1.2390
 1776SOL     OW 6768   0.439   6.020   9.175  0.3495  0.3701  0.1506
 1776SOL    HW1 6769   0.403   6.042   9.089 -0.0793  1.3958  0.5748
 1776SOL    HW2 6770   0.534   6.026   9.164  0.2686  2.7982  0.2892
 1777SOL     OW 6771   7.174   3.530   8.471  0.2928 -0.0204  0.0726
 1777SOL    HW1 6772   7.253   3.540   8.524 -1.7418  0.2845  3.3048
 1777SOL    HW2 6773   7.184   3.445   8.429  2.5901  0.3101 -0.2013
 1778SOL     OW 6774   0.035   1.560   5.340  0.7287 -0.1284 -0.3500
 1778SOL    HW1 6775   0.065   1.627   5.401  1.8022 -1.0771  0.2156
 1778SOL    HW2 6776   0.004   1.489   5.397  2.9990 -1.5852 -0.8199
 1779SOL     OW 6777   0.816   1.979   5.232 -0.4393 -0.0960  0.9548
 1779SOL    HW1 6778   0.861   2.002   5.150 -1.1681 -0.3320  0.4737
 1779SOL    HW2 6779   0.880   1.999   5.301  0.4104 -0.4612  0.2964
 1780SOL     OW 6780   4.674   5.127   3.751  0.2144 -0.4473  0.2353
 1780SOL    HW1 6781   4.733   5.139   3.825  0.1723 -0.2142  0.2308
 1780SOL    HW2 6782   4.610   5.198   3.759  1.1366  0.5577 -0.9242
 1781SOL     OW 6783   4.669   1.150   3.990 -0.4196  0.3744 -0.2688
 1781SOL    HW1 6784   4.713   1.107   3.917 -1.3386 -0.0265 -0.6009
 1781SOL    HW2 6785   4.610   1.084   4.025 -1.1571  1.0623 -0.1765
 1782SOL     OW 6786   3.626   3.918   8.256 -0.1506  0.0921  0.1965
 1782SOL    HW1 6787   3.685   3.863   8.307  1.5128 -1.5917 -3.2291
 1782SOL    HW2 6788   3.547   3.866   8.246 -0.5003  0.4468  1.0106
 1783SOL     OW 6789   6.308   3.418   4.131 -0.0560 -0.1800 -0.0676
 1783SOL    HW1 6790   6.340   3.364   4.059 -2.8526  0.3031 -1.7994
 1783SOL    HW2 6791   6.356   3.501   4.122  0.4650 -0.5347 -0.6275
 1784SOL     OW 6792   2.370   7.554  11.147 -0.3460  0.8542 -0.0262
 1784SOL    HW1 6793   2.402   7.491  11.211  0.4854  0.8653 -0.4113
 1784SOL    HW2 6794   2.332   7.625  11.198 -1.8470 -0.2264  0.4086
 1785SOL     OW 6795   7.213   0.131   3.562 -0.2073  0.1152  0.1482
 1785SOL    HW1 6796   7.258   0.109   3.480 -0.2779  0.4385  0.0211
 1785SOL    HW2 6797   7.134   0.176   3.534 -0.5828 -0.3956  0.3724
 1786SOL     OW 6798   6.623   1.578   5.539 -0.1974  0.1993  0.2290
 1786SOL    HW1 6799   6.542   1.528   5.532 -1.2842  1.9971 -0.7232
 1786SOL    HW2 6800   6.677   1.527   5.599 -1.6068 -1.5844  0.0687
 1787SOL     OW 6801   3.728   0.578   1.401 -0.1550 -0.1595  0.3673
 1787SOL    HW1 6802   3.671   0.505   1.379  1.9082 -1.5360 -0.7799
 1787SOL    HW2 6803   3.767   0.604   1.318  0.6542  0.9050  1.0464
 1788SOL     OW 6804   1.856   0.252   6.662  0.0277  0.2746  0.4412
 1788SOL    HW1 6805   1.785   0.194   6.636 -1.1842  1.5659  0.7443
 1788SOL    HW2 6806   1.813   0.336   6.680  1.6648  1.1624  0.3971
 1789SOL     OW 6807   3.502   5.710   0.771 -0.0624 -0.1032  0.1788
 1789SOL    HW1 6808   3.468   5.742   0.688 -0.6095 -1.6989 -0.2415
 1789SOL    HW2 6809   3.597   5.712   0.760 -0.1154  0.2418 -0.2606
 1790SOL     OW 6810   1.869   7.138   4.535  0.2939 -0.2068 -0.0027
 1790SOL    HW1 6811   1.936   7.076   4.504  0.2894 -0.1017 -0.2250
 1790SOL    HW2 6812   1.791   7.116   4.483 -0.2795 -1.3032  1.2723
 1791SOL     OW 6813   3.679   4.227   2.051 -0.7443 -0.1184  0.0993
 1791SOL    HW1 6814   3.661   4.149   1.998 -1.5131 -0.1364  0.3758
 1791SOL    HW2 6815   3.663   4.301   1.993  0.1849 -0.1555 -0.2255
 1792SOL     OW 6816   5.719   7.497   5.404 -0.1908  0.6169 -0.3774
 1792SOL    HW1 6817   5.708   7.403   5.398 -0.2630  0.5705  0.3714
 1792SOL    HW2 6818   5.727   7.515   5.498  0.4300  1.2874 -0.5407
 1793SOL     OW 6819   1.157   1.818   0.485 -0.2887  0.2412 -0.4980
 1793SOL    HW1 6820   1.105   1.784   0.412  0.5080  2.1335 -2.0519
 1793SOL    HW2 6821   1.111   1.897   0.513  1.2118  1.4712 -1.3313
 1794SOL     OW 6822   4.331   7.701  11.663 -0.2913 -0.0807 -0.3373
 1794SOL    HW1 6823   4.333   7.793  11.636  0.8909  0.3228  0.9636
 1794SOL    HW2 6824   4.312   7.705  11.757  2.5014 -0.9343  0.3635
 1795SOL     OW 6825   3.791   4.743   1.113 -0.4193  0.6709  0.4989
 1795SOL    HW1 6826   3.773   4.659   1.072  0.4999  0.5657  0.2925
 1795SOL    HW2 6827   3.724   4.751   1.181  0.5042 -1.0176  1.6691
 1796SOL     OW 6828   2.649   3.985   7.908 -0.9786 -0.1965 -0.2480
 1796SOL    HW1 6829   2.674   3.895   7.885  0.5177 -0.3068  1.5943
 1796SOL    HW2 6830   2.615   4.022   7.826  1.3129 -1.4478 -1.8825
 1797SOL     OW 6831   6.622   1.100   8.341  0.5107 -0.0580 -0.1820
 1797SOL    HW1 6832   6.649   1.016   8.379  2.7277  0.4910 -0.4184
 1797SOL    HW2 6833   6.542   1.123   8.388 -0.5808 -2.6058 -0.5902
 1798SOL     OW 6834   7.651   0.116   4.451  0.2818  0.2229 -0.3405
 1798SOL    HW1 6835   7.698   0.163   4.521 -0.0538 -0.5320  0.4056
 1798SOL    HW2 6836   7.670   0.024   4.467 -0.5610 -0.0195 -0.6962
 1799SOL     OW 6837   4.563   4.236   7.347  0.2436  0.5857  0.2500
 1799SOL    HW1 6838   4.605   4.319   7.328  0.7249  0.3943  0.4509
 1799SOL    HW2 6839   4.623   4.170   7.311  0.3250  0.2916  0.9068
 1800SOL     OW 6840   5.557   1.826   8.867  0.2636 -0.5288  0.0005
 1800SOL    HW1 6841   5.608   1.816   8.948 -2.4536  4.8715  2.9033
 1800SOL    HW2 6842   5.602   1.895   8.818 -0.2496 -0.9996 -1.1781
 1801SOL     OW 6843   7.524   3.659   1.131  0.0895  0.4491  0.2785
 1801SOL    HW1 6844   7.482   3.599   1.068 -1.4207  1.9583 -0.2381
 1801SOL    HW2 6845   7.480   3.641   1.214  0.9381 -0.4144  0.5521
 1802SOL     OW 6846   4.128   1.291   4.252 -0.0158 -0.0960 -0.0932
 1802SOL    HW1 6847   4.084   1.363   4.205 -1.0924 -0.5208  0.2268
 1802SOL    HW2 6848   4.065   1.265   4.319  0.9713 -0.3701  0.7485
 1803SOL     OW 6849   2.532   6.182   8.033  0.2166 -0.0191 -0.2972
 1803SOL    HW1 6850   2.597   6.147   7.972  1.1606  1.0060  0.0870
 1803SOL    HW2 6851   2.490   6.253   7.986 -1.9628 -1.7971 -1.2125
 1804SOL     OW 6852   3.611   6.059   0.876  0.0390  0.1623  0.2584
 1804SOL    HW1 6853   3.562   6.059   0.794  1.3342  2.0827 -0.6146
 1804SOL    HW2 6854   3.595   6.146   0.914  2.8286  0.9903 -0.1938
 1805SOL     OW 6855   4.095   1.196  10.996  0.2212  0.0206 -0.1058
 1805SOL    HW1 6856   4.153   1.256  10.949  0.2742 -1.5392 -2.1708
 1805SOL    HW2 6857   4.138   1.183  11.081  1.7690  0.5712 -0.7713
 1806SOL     OW 6858   1.800   5.270   8.693  0.1462 -0.0332 -0.2682
 1806SOL    HW1 6859   1.894   5.257   8.680  0.5539  1.5944  0.8479
 1806SOL    HW2 6860   1.786   5.363   8.678 -1.5843 -0.5119 -1.9434
 1807SOL     OW 6861   7.033   6.635   4.752  0.2991 -0.2485  0.1593
 1807SOL    HW1 6862   7.097   6.573   4.786  0.8739 -0.3599 -1.0622
 1807SOL    HW2 6863   6.973   6.582   4.700  1.3018  0.2796 -1.6150
 1808SOL     OW 6864   1.673   3.718  12.299  0.0214 -0.4541  0.2074
 1808SOL    HW1 6865   1.734   3.789  12.317 -0.8587  0.0908  1.1435
 1808SOL    HW2 6866   1.704   3.679  12.217  0.9931  0.4755  0.1197
 1809SOL     OW 6867   6.849   1.088   3.202 -0.1047 -0.2902 -0.1287
 1809SOL    HW1 6868   6.938   1.069   3.232 -0.0127 -0.6843 -0.6350
 1809SOL    HW2 6869   6.820   1.006   3.161 -0.7937 -0.2426  0.2645
 1810SOL     OW 6870   2.318   6.065  10.725  0.0954 -0.1931  0.2712
 1810SOL    HW1 6871   2.369   6.031  10.799 -1.4067 -0.0337  1.4275
 1810SOL    HW2 6872   2.330   6.160  10.730 -0.7179 -0.1096  0.8886
 1811SOL     OW 6873   2.756   0.057   8.433  0.5878  0.0749 -0.3653
 1811SOL    HW1 6874   2.770   0.057   8.528 -1.4093  1.7255 -0.0206
 1811SOL    HW2 6875   2.748  -0.036   8.411  0.2988 -0.3166  1.2094
 1812SOL     OW 6876   5.395   7.713   5.915 -0.0425  0.4995 -0.2009
 1812SOL    HW1 6877   5.471   7.696   5.859  0.9871 -0.8899  1.5217
 1812SOL    HW2 6878   5.427   7.696   6.004 -2.4609 -0.4748  0.5441
 1813SOL     OW 6879   0.375   0.501   4.179 -0.0313  0.1973  0.1519
 1813SOL    HW1 6880   0.347   0.412   4.160  0.2903  0.3005 -0.8909
 1813SOL    HW2 6881   0.391   0.502   4.273 -1.4341 -0.4404  0.4222
 1814SOL     OW 6882   2.938   0.642   5.804  0.0166 -0.0722  0.2627
 1814SOL    HW1 6883   2.957   0.683   5.719 -1.3181  0.5066  0.2070
 1814SOL    HW2 6884   2.982   0.698   5.868  0.3603 -0.0433 -0.0007
 1815SOL     OW 6885   4.023   0.245   5.972 -0.3768  0.2419 -0.1040
 1815SOL    HW1 6886   4.098   0.248   6.031  0.3091  0.5069 -0.9704
 1815SOL    HW2 6887   3.973   0.324   5.992  0.0688  0.5372 -0.1507
 1816SOL     OW 6888   0.413   7.575   0.937 -0.0842 -0.3378  0.5694
 1816SOL    HW1 6889   0.500   7.533   0.940 -0.8054 -1.9736 -0.0110
 1816SOL    HW2 6890   0.355   7.512   0.980 -1.2665 -0.0217 -0.5071
 1817SOL     OW 6891   7.499   5.561   8.284 -0.3769  0.1760  0.0247
 1817SOL    HW1 6892   7.531   5.651   8.291  2.3742 -0.7400  0.2762
 1817SOL    HW2 6893   7.562   5.518   8.227 -0.4449 -2.0918  1.5506
 1818SOL     OW 6894   0.398   3.713   0.826  0.1035  0.0261  0.3222
 1818SOL    HW1 6895   0.442   3.643   0.776  1.7643 -0.5384  2.4066
 1818SOL    HW2 6896   0.442   3.793   0.798  0.9837 -0.2800  0.7665
 1819SOL     OW 6897   7.516   4.675   9.165  0.0033 -0.0241 -0.1670
 1819SOL    HW1 6898   7.487   4.724   9.088 -3.5067 -1.6465 -0.0592
 1819SOL    HW2 6899   7.509   4.737   9.237  2.3863  1.2152 -0.8823
 1820SOL     OW 6900   4.268   1.479   9.334 -0.4065  0.2955  0.3803
 1820SOL    HW1 6901   4.282   1.485   9.239  0.1062 -2.1807  0.2201
 1820SOL    HW2 6902   4.195   1.538   9.352 -0.9604  0.3014 -1.6730
 1821SOL     OW 6903   3.597   2.907   4.759  0.3452 -0.5933  0.5157
 1821SOL    HW1 6904   3.630   2.956   4.684 -1.5341 -0.9263 -0.5990
 1821SOL    HW2 6905   3.568   2.974   4.821 -2.1359 -0.1751 -0.9651
 1822SOL     OW 6906   7.014   2.019   1.026  0.6921 -0.4383  0.3321
 1822SOL    HW1 6907   6.967   2.093   0.989  0.0281 -0.8174  0.3942
 1822SOL    HW2 6908   7.044   1.968   0.951  0.9741 -0.2141  0.2928
 1823SOL     OW 6909   3.852   4.551   1.889 -0.3919 -0.2042  0.0724
 1823SOL    HW1 6910   3.870   4.571   1.981 -0.8234  1.3791 -0.1465
 1823SOL    HW2 6911   3.758   4.565   1.879 -0.1265  1.0736 -0.9092
 1824SOL     OW 6912   6.159   5.588   5.152  0.2788  0.1824 -0.1774
 1824SOL    HW1 6913   6.093   5.612   5.216 -0.5547 -2.8825  0.2597
 1824SOL    HW2 6914   6.130   5.630   5.071 -0.4002  1.5059  0.7206
 1825SOL     OW 6915   5.465   4.914   5.682 -0.1060  0.4138 -0.0083
 1825SOL    HW1 6916   5.383   4.956   5.657  0.4764  1.1080 -0.8119
 1825SOL    HW2 6917   5.439   4.827   5.712 -1.1319  0.6285 -0.2381
 1826SOL     OW 6918   5.080   7.571   8.940  0.2102 -0.2667  0.4145
 1826SOL    HW1 6919   5.133   7.491   8.940  0.3028 -0.2527 -1.8025
 1826SOL    HW2 6920   5.099   7.613   8.856 -0.4659  1.6833  1.1782
 1827SOL     OW 6921   5.676   2.198   7.048  0.6018  0.1152 -0.3916
 1827SOL    HW1 6922   5.598   2.197   7.104  0.0754  2.8930 -0.9259
 1827SOL    HW2 6923   5.735   2.134   7.088 -1.6116 -1.4965  0.4807
 1828SOL     OW 6924   2.026   0.789  10.365 -0.2389 -0.0292 -0.7942
 1828SOL    HW1 6925   2.086   0.747  10.303 -1.5374 -0.8687 -1.5267
 1828SOL    HW2 6926   2.014   0.877  10.331  0.4493  0.0964 -0.7259
 1829SOL     OW 6927   2.628   5.938   7.719 -0.3417  0.2304  0.2322
 1829SOL    HW1 6928   2.543   5.898   7.739  0.1903 -0.9540  0.1813
 1829SOL    HW2 6929   2.615   5.982   7.635 -0.3454 -1.7782 -0.8812
 1830SOL     OW 6930   3.126   4.841   7.540 -0.1534 -0.1359  0.3222
 1830SOL    HW1 6931   3.161   4.802   7.460 -0.9224  1.4585 -0.8471
 1830SOL    HW2 6932   3.190   4.818   7.608  0.1956 -2.0639 -0.5864
 1831SOL     OW 6933   1.610   2.026   7.887 -0.0750  0.1499  0.2283
 1831SOL    HW1 6934   1.564   2.099   7.846 -1.3056 -0.3989  0.5814
 1831SOL    HW2 6935   1.618   1.960   7.817  0.1990  0.2553  0.1602
 1832SOL     OW 6936   2.154   1.942   4.838  0.1616  0.0223  0.6354
 1832SOL    HW1 6937   2.232   1.908   4.794 -0.6097 -1.1434  0.1412
 1832SOL    HW2 6938   2.179   2.031   4.865  0.9756  0.4261 -1.2882
 1833SOL     OW 6939   5.934   0.613   2.452 -0.1489  0.4043  0.2030
 1833SOL    HW1 6940   5.980   0.548   2.505 -1.7340 -0.5056  0.5349
 1833SOL    HW2 6941   5.978   0.612   2.368  1.3406  0.6310  0.9514
 1834SOL     OW 6942   6.085   1.574   2.030 -0.5556  0.1418 -0.4436
 1834SOL    HW1 6943   6.110   1.607   2.116 -1.2581  2.1987 -0.9722
 1834SOL    HW2 6944   6.040   1.491   2.049 -0.9504  0.6914  1.1949
 1835SOL     OW 6945   1.371   2.236   2.372 -0.2127  0.2717  0.0555
 1835SOL    HW1 6946   1.330   2.290   2.439  0.1211  3.7212 -2.2673
 1835SOL    HW2 6947   1.298   2.186   2.335 -0.7716  0.0089  1.4278
 1836SOL     OW 6948   6.990   5.944   2.672  0.2589  0.2316 -0.1208
 1836SOL    HW1 6949   6.940   5.905   2.600  1.4970  0.7659 -1.3126
 1836SOL    HW2 6950   6.925   5.963   2.740 -0.7828 -1.2815 -0.6423
 1837SOL     OW 6951   3.126   2.615  10.010 -0.2794  0.1498 -0.4764
 1837SOL    HW1 6952   3.217   2.642  10.002 -1.0148  3.0351 -0.1232
 1837SOL    HW2 6953   3.127   2.544  10.074  1.8668 -1.1842 -1.8595
 1838SOL     OW 6954   0.837   5.832   3.890  0.5097 -0.0161  0.0337
 1838SOL    HW1 6955   0.929   5.820   3.867  0.5191  0.8440 -0.4324
 1838SOL    HW2 6956   0.838   5.881   3.972  0.4895  0.7837 -0.4233
 1839SOL     OW 6957   0.102   6.557   8.568  0.2428 -0.0510  0.7549
 1839SOL    HW1 6958   0.197   6.545   8.572  0.0753 -1.1192  2.5368
 1839SOL    HW2 6959   0.082   6.613   8.644 -0.5788 -0.0018  0.5158
 1840SOL     OW 6960   4.056   5.079   1.168 -0.6688 -0.4653  0.2516
 1840SOL    HW1 6961   3.966   5.065   1.196 -0.0166  0.2703  3.0443
 1840SOL    HW2 6962   4.069   5.174   1.177  0.2839 -0.5219 -0.4217
 1841SOL     OW 6963   4.844   6.127   6.996  0.2980  0.1066 -0.4221
 1841SOL    HW1 6964   4.808   6.215   6.999  0.2862  0.0901  0.0274
 1841SOL    HW2 6965   4.795   6.083   6.926 -1.8995 -0.4734  1.3475
 1842SOL     OW 6966   3.542   1.935  10.946  0.5813  0.0632  0.5730
 1842SOL    HW1 6967   3.447   1.935  10.936  0.6938  0.6161 -0.5868
 1842SOL    HW2 6968   3.569   2.025  10.928  1.3417 -0.1030  0.8057
 1843SOL     OW 6969   0.504   6.870   4.157  0.6938 -0.6752 -0.8016
 1843SOL    HW1 6970   0.494   6.965   4.154 -0.5836 -0.6946  1.1276
 1843SOL    HW2 6971   0.420   6.836   4.127  0.8616 -1.1962 -0.6928
 1844SOL     OW 6972   3.007   5.405   5.370 -0.3909 -0.3041  0.6883
 1844SOL    HW1 6973   3.101   5.426   5.363 -0.9522  2.0313 -1.4765
 1844SOL    HW2 6974   2.988   5.355   5.291 -0.9408 -0.9365  1.2146
 1845SOL     OW 6975   5.625   5.216  10.578 -0.4185  0.0292 -0.0002
 1845SOL    HW1 6976   5.565   5.185  10.510 -2.1048  2.0124  0.4703
 1845SOL    HW2 6977   5.584   5.191  10.660 -1.2069  2.2668  0.3573
 1846SOL     OW 6978   0.157   5.602   6.425 -0.2613  0.3771  0.4746
 1846SOL    HW1 6979   0.063   5.583   6.426 -0.3158  0.6403  0.8323
 1846SOL    HW2 6980   0.188   5.574   6.511  0.0018  0.2296  0.3341
 1847SOL     OW 6981   3.677   1.539   3.438  0.3734  0.1806  0.0597
 1847SOL    HW1 6982   3.727   1.618   3.460  1.6494 -0.2764 -1.0339
 1847SOL    HW2 6983   3.622   1.566   3.364  0.7438  0.0779 -0.2564
 1848SOL     OW 6984   2.407   2.344   9.367 -0.2323  0.5955 -0.1160
 1848SOL    HW1 6985   2.378   2.254   9.385 -0.3925  0.8346  0.8369
 1848SOL    HW2 6986   2.464   2.335   9.290  2.1307 -0.7450  1.6494
 1849SOL     OW 6987   0.580   7.006   8.957 -0.2091 -0.1916 -0.0218
 1849SOL    HW1 6988   0.657   6.950   8.945 -0.0154  0.1252 -0.2901
 1849SOL    HW2 6989   0.516   6.950   9.001 -0.4833 -1.0298 -1.4019
 1850SOL     OW 6990   0.279   0.430   7.838  0.0771  0.3507 -0.0919
 1850SOL    HW1 6991   0.246   0.359   7.893  0.3559  0.5738  0.3624
 1850SOL    HW2 6992   0.242   0.412   7.751 -1.2838  0.6318  0.4116
 1851SOL     OW 6993   2.519   3.464   7.860  0.4496 -0.0215  0.1666
 1851SOL    HW1 6994   2.480   3.425   7.938 -0.2206 -1.3381 -0.7855
 1851SOL    HW2 6995   2.613   3.451   7.871  0.3695 -0.0619  0.8300
 1852SOL     OW 6996   7.858   2.464   5.622 -0.2144 -0.7267 -0.0650
 1852SOL    HW1 6997   7.825   2.469   5.711 -0.8726  0.9976 -0.3537
 1852SOL    HW2 6998   7.837   2.550   5.584  2.8382 -0.2325 -0.9178
 1853SOL     OW 6999   0.479   3.992   0.725  0.0495 -0.5178 -0.6354
 1853SOL    HW1 7000   0.431   4.017   0.646 -0.9624  1.2061  0.4540
 1853SOL    HW2 7001   0.571   4.006   0.703 -0.0060 -2.2558 -2.2072
 1854SOL     OW 7002   7.090   3.783   4.802 -0.7945 -0.2599 -0.2095
 1854SOL    HW1 7003   7.115   3.690   4.797  0.6104 -0.0563  1.7115
 1854SOL    HW2 7004   7.031   3.787   4.877 -0.6916  0.4089 -0.1644
 1855SOL     OW 7005   5.668   1.168  10.051  0.5268 -0.6734 -0.5141
 1855SOL    HW1 7006   5.697   1.204   9.967  0.0377 -1.9386 -1.2512
 1855SOL    HW2 7007   5.610   1.235  10.087  1.2181  0.1432 -0.8898
 1856SOL     OW 7008   7.360   4.090   6.993 -0.0203  0.4290 -0.7429
 1856SOL    HW1 7009   7.417   4.163   6.969  0.0461  0.8072  0.4789
 1856SOL    HW2 7010   7.322   4.116   7.077 -0.7144 -0.5418 -0.7424
 1857SOL     OW 7011   2.178   1.079  10.366 -0.2748 -0.7485 -0.4972
 1857SOL    HW1 7012   2.084   1.067  10.353 -0.2477 -2.2391  0.5231
 1857SOL    HW2 7013   2.203   1.142  10.298 -2.2313  0.7305  0.0298
 1858SOL     OW 7014   6.401   6.915   2.707  0.3832 -0.5621 -0.1931
 1858SOL    HW1 7015   6.337   6.851   2.740  0.3551 -0.5373 -0.1985
 1858SOL    HW2 7016   6.455   6.866   2.646  0.6216 -0.6826  0.1087
 1859SOL     OW 7017   0.021   2.402   8.221  0.0042  0.0564 -0.6421
 1859SOL    HW1 7018   0.085   2.334   8.240 -1.4795 -1.1044  0.5138
 1859SOL    HW2 7019  -0.042   2.396   8.293 -0.2829  2.5632 -0.6062
 1860SOL     OW 7020   3.198   0.702   7.617 -0.0931 -0.5335  0.0974
 1860SOL    HW1 7021   3.203   0.620   7.569 -0.1942 -0.3559 -0.2226
 1860SOL    HW2 7022   3.198   0.770   7.549 -1.1196 -0.3095  0.3057
 1861SOL     OW 7023   2.991   5.686   8.172 -0.0558  0.1874  0.9731
 1861SOL    HW1 7024   3.055   5.670   8.103  1.2058  1.4370  1.7963
 1861SOL    HW2 7025   2.943   5.603   8.180  1.2065 -0.6720  0.0826
 1862SOL     OW 7026   1.395   0.985   9.066 -0.4451 -0.1235 -0.6271
 1862SOL    HW1 7027   1.390   0.905   9.120  1.2186  0.2115  0.0849
 1862SOL    HW2 7028   1.361   1.054   9.123 -2.3598 -0.3353 -1.4142
 1863SOL     OW 7029   1.903   0.572   9.384  0.6028  0.2224  0.2357
 1863SOL    HW1 7030   1.862   0.505   9.330  1.1240 -0.3421  0.5307
 1863SOL    HW2 7031   1.960   0.620   9.324 -0.3856  0.9480 -0.1555
 1864SOL     OW 7032   6.370   3.623  12.190  0.6506  0.0485 -0.0845
 1864SOL    HW1 7033   6.316   3.702  12.190  0.6249  0.0304 -0.1740
 1864SOL    HW2 7034   6.451   3.649  12.146  0.7510  0.0999  0.1273
 1865SOL     OW 7035   4.390   4.969   7.645 -0.1795 -0.1917 -0.3232
 1865SOL    HW1 7036   4.471   5.013   7.619 -0.4858  0.2378 -0.5615
 1865SOL    HW2 7037   4.411   4.929   7.730 -0.7506  3.0042  1.4940
 1866SOL     OW 7038   4.193   1.787  11.829  0.9402  0.1038 -0.0509
 1866SOL    HW1 7039   4.274   1.746  11.799  0.7831  0.5884 -1.1824
 1866SOL    HW2 7040   4.177   1.857  11.766 -0.4223 -0.0575  0.0947
 1867SOL     OW 7041   4.750   2.883   3.125  0.4329  0.1617  0.2855
 1867SOL    HW1 7042   4.692   2.958   3.114 -0.5884 -0.2900  2.1507
 1867SOL    HW2 7043   4.838   2.921   3.122  0.0455  1.0401 -1.2832
 1868SOL     OW 7044   7.661   1.658  10.982 -0.0538  0.4406 -0.7621
 1868SOL    HW1 7045   7.589   1.696  10.932 -1.4578 -0.4404  0.5024
 1868SOL    HW2 7046   7.663   1.566  10.956 -0.5266  0.0668  0.4261
 1869SOL     OW 7047   5.748   3.614   8.408 -0.5807  0.5622  0.4325
 1869SOL    HW1 7048   5.671   3.569   8.444 -0.2378 -2.0257 -1.6990
 1869SOL    HW2 7049   5.723   3.636   8.319 -0.0097  2.9743  0.8179
 1870SOL     OW 7050   7.400   5.544   3.376  0.7856  0.2371 -0.3850
 1870SOL    HW1 7051   7.452   5.559   3.298  0.3835  1.6651 -0.4123
 1870SOL    HW2 7052   7.322   5.598   3.364  0.4909  0.1094  0.7691
 1871SOL     OW 7053   2.663   6.969   9.127 -0.4199  0.3360 -0.2726
 1871SOL    HW1 7054   2.694   6.914   9.199  2.5056  1.4425 -0.5287
 1871SOL    HW2 7055   2.593   7.022   9.164  0.6578  0.4984  1.6424
 1872SOL     OW 7056   5.034   1.191  10.374  0.7385  0.4797 -0.4439
 1872SOL    HW1 7057   4.982   1.196  10.294  1.2241 -0.9596 -0.8727
 1872SOL    HW2 7058   4.994   1.256  10.432 -0.3740  0.6976 -1.4149
 1873SOL     OW 7059   6.757   5.295   6.196 -0.4661  0.0150  1.0029
 1873SOL    HW1 7060   6.787   5.205   6.211 -1.4259 -0.3157  1.0030
 1873SOL    HW2 7061   6.829   5.337   6.149 -0.0633 -0.7968  0.8848
 1874SOL     OW 7062   3.678   0.271   8.161  0.2654  0.1113 -0.3043
 1874SOL    HW1 7063   3.636   0.337   8.216  1.4052 -0.3500  1.1909
 1874SOL    HW2 7064   3.623   0.266   8.083 -2.4694 -0.4693  1.5217
 1875SOL     OW 7065   1.451   4.130   2.790  0.2374  0.1002 -0.3443
 1875SOL    HW1 7066   1.383   4.172   2.842  0.6119 -1.3692  1.4212
 1875SOL    HW2 7067   1.519   4.196   2.781 -0.4615  0.8450 -0.2165
 1876SOL     OW 7068   0.942   5.590   6.644 -0.3118 -0.0495 -0.0816
 1876SOL    HW1 7069   0.952   5.685   6.645 -1.4853  0.1056 -0.8719
 1876SOL    HW2 7070   1.012   5.558   6.701  1.1211  1.1736 -1.0951
 1877SOL     OW 7071   0.022   7.335   8.169  0.0860 -0.4498 -0.0483
 1877SOL    HW1 7072   0.031   7.419   8.124  0.1045 -0.7680 -0.6548
 1877SOL    HW2 7073   0.075   7.344   8.248 -2.0307  1.0530  1.2926
 1878SOL     OW 7074   1.683   2.316   1.310  0.5497  0.5122  0.5033
 1878SOL    HW1 7075   1.688   2.302   1.405 -0.4257 -0.3013  0.4558
 1878SOL    HW2 7076   1.633   2.241   1.278  1.4413  0.4343 -0.7484
 1879SOL     OW 7077   5.364   0.991  11.368  0.0800 -0.1884  0.0360
 1879SOL    HW1 7078   5.412   0.924  11.319  0.5150 -0.6947  1.1287
 1879SOL    HW2 7079   5.279   0.950  11.386  0.2654 -0.3662  0.5119
 1880SOL     OW 7080   4.541   5.963   4.271 -0.2182  0.1432 -0.4204
 1880SOL    HW1 7081   4.560   6.028   4.204  0.6797  0.7600  0.4178
 1880SOL    HW2 7082   4.480   5.902   4.228  0.8053  0.1625 -2.0060
 1881SOL     OW 7083   2.515   1.997   0.654  0.0955 -0.3313 -0.2597
 1881SOL    HW1 7084   2.436   1.944   0.670  0.9515 -0.8340  3.2376
 1881SOL    HW2 7085   2.481   2.083   0.629 -1.5713 -0.6568  0.6934
 1882SOL     OW 7086   3.081   1.643   7.157  0.1943 -0.2014 -0.4081
 1882SOL    HW1 7087   3.076   1.657   7.062  2.1647 -1.3489 -0.7508
 1882SOL    HW2 7088   3.074   1.730   7.195  0.5246  0.4052 -1.6986
 1883SOL     OW 7089   5.412   4.454   9.125 -0.6864 -0.1747  0.0871
 1883SOL    HW1 7090   5.425   4.460   9.220 -3.1971  1.8660  0.4125
 1883SOL    HW2 7091   5.380   4.541   9.100  2.1208  0.1345 -3.0840
 1884SOL     OW 7092   5.286   7.477   1.611 -0.3704 -0.1142  0.6603
 1884SOL    HW1 7093   5.245   7.503   1.529  1.9320  1.6124 -0.0401
 1884SOL    HW2 7094   5.380   7.482   1.594  0.1747 -0.7948  3.0821
 1885SOL     OW 7095   3.390   3.511   9.714 -0.1467 -0.5389  0.1968
 1885SOL    HW1 7096   3.355   3.555   9.637 -1.5470 -0.1022  1.0327
 1885SOL    HW2 7097   3.386   3.418   9.693 -3.6731 -0.6930  0.8625
 1886SOL     OW 7098   3.634   3.894   3.813  0.3916 -0.1971 -0.2279
 1886SOL    HW1 7099   3.661   3.818   3.762 -1.1758  0.0716 -1.5464
 1886SOL    HW2 7100   3.702   3.960   3.796  1.4529 -1.0804  0.4674
 1887SOL     OW 7101   1.448   5.226   5.848  0.1612  0.6617  0.9512
 1887SOL    HW1 7102   1.493   5.142   5.844  2.7503  1.8929  1.7767
 1887SOL    HW2 7103   1.466   5.268   5.764 -1.7941  0.1505  0.2201
 1888SOL     OW 7104   6.248   4.140  11.041 -0.2749  0.0319  0.2577
 1888SOL    HW1 7105   6.276   4.221  10.998 -2.5334  0.5635 -0.3328
 1888SOL    HW2 7106   6.267   4.154  11.133 -0.1090  1.0186  0.0874
 1889SOL     OW 7107   6.353   1.794   8.134  0.7181 -0.0186 -0.0340
 1889SOL    HW1 7108   6.440   1.825   8.158  1.5225 -1.5940 -0.6957
 1889SOL    HW2 7109   6.305   1.790   8.216  1.0180  1.5383  0.2490
 1890SOL     OW 7110   0.153   5.611   9.495 -0.3643  0.0740  0.0781
 1890SOL    HW1 7111   0.096   5.635   9.422 -0.9687 -0.8036  0.2488
 1890SOL    HW2 7112   0.165   5.517   9.486  3.7757  0.5558 -1.8882
 1891SOL     OW 7113   0.706   6.669   6.365  0.1791 -0.6398  0.1373
 1891SOL    HW1 7114   0.696   6.574   6.358 -1.2382 -0.5853  1.0662
 1891SOL    HW2 7115   0.779   6.681   6.426 -0.9948 -1.1703  1.7048
 1892SOL     OW 7116   7.950   7.331   3.898  0.2685 -0.3028 -0.0479
 1892SOL    HW1 7117   7.907   7.309   3.815 -0.2179 -2.2795  0.6836
 1892SOL    HW2 7118   7.882   7.372   3.950  0.0253 -0.8515  0.0744
 1893SOL     OW 7119   4.757   0.240  11.605  0.3861  0.0312  0.6967
 1893SOL    HW1 7120   4.708   0.181  11.662  1.2986 -0.4974  0.9516
 1893SOL    HW2 7121   4.820   0.283  11.662  0.4507  0.4544  0.3156
 1894SOL     OW 7122   4.979   2.371   9.958 -0.4524  0.3108 -0.0392
 1894SOL    HW1 7123   4.956   2.458   9.992  1.4993  0.6242  0.6605
 1894SOL    HW2 7124   5.012   2.387   9.870 -1.9007 -0.0092 -0.6701
 1895SOL     OW 7125   0.591   4.904   8.667 -0.4265 -0.6294 -0.1291
 1895SOL    HW1 7126   0.590   4.990   8.709 -2.5248 -0.8403  0.3464
 1895SOL    HW2 7127   0.605   4.843   8.739  1.3598 -0.7197 -0.5017
 1896SOL     OW 7128   0.737   2.823   4.736  0.2130  0.4504  0.0202
 1896SOL    HW1 7129   0.649   2.807   4.771 -1.1136  0.4674 -3.0192
 1896SOL    HW2 7130   0.744   2.918   4.732  0.2036  0.4486 -0.0480
 1897SOL     OW 7131   5.306   3.684  10.257  0.1171  0.2985 -0.1691
 1897SOL    HW1 7132   5.217   3.710  10.234 -0.3456 -1.0459 -0.0335
 1897SOL    HW2 7133   5.362   3.726  10.192 -0.7979 -0.3395 -1.4026
 1898SOL     OW 7134   6.591   3.767  10.121  0.5592 -0.0161  0.3445
 1898SOL    HW1 7135   6.549   3.846  10.153  0.3166  0.0610 -0.1559
 1898SOL    HW2 7136   6.577   3.702  10.190  1.2531  0.5279  1.0098
 1899SOL     OW 7137   7.981   5.359  10.976 -0.5454  0.9258  0.1723
 1899SOL    HW1 7138   8.048   5.322  11.033  0.7185 -0.6286 -2.1280
 1899SOL    HW2 7139   7.985   5.453  10.990  0.4562  0.6738  1.7901
 1900SOL     OW 7140   6.554   0.968   6.275 -0.0620  0.5849  0.0296
 1900SOL    HW1 7141   6.509   0.920   6.205  0.7756  1.1811 -0.9566
 1900SOL    HW2 7142   6.583   1.049   6.233 -0.3739  1.4013  1.3365
 1901SOL     OW 7143   5.886   7.583   0.622  0.1371  0.1262  0.2416
 1901SOL    HW1 7144   5.924   7.592   0.534  1.7175 -0.3639  0.8270
 1901SOL    HW2 7145   5.952   7.621   0.680  0.4881 -2.1655  1.4690
 1902SOL     OW 7146   3.139   3.449   6.231 -0.0849  0.5360  0.1187
 1902SOL    HW1 7147   3.134   3.399   6.312  0.5095  0.6336  0.2178
 1902SOL    HW2 7148   3.172   3.535   6.257  1.5219  0.1100 -0.3986
 1903SOL     OW 7149   5.918   5.612  12.146  0.2029  0.0989 -0.0957
 1903SOL    HW1 7150   5.936   5.671  12.219 -0.3399  0.5738 -0.3385
 1903SOL    HW2 7151   5.936   5.525  12.181  0.7210  0.3827  0.3597
 1904SOL     OW 7152   7.389   1.079   1.922  0.0962 -0.3573 -0.4314
 1904SOL    HW1 7153   7.321   1.106   1.983 -0.4228  1.8648 -1.8936
 1904SOL    HW2 7154   7.469   1.119   1.955  0.3586 -1.3585  0.2042
 1905SOL     OW 7155   4.224   0.683   4.530  0.3219  0.5673  0.2220
 1905SOL    HW1 7156   4.181   0.627   4.594 -2.1364  0.1858 -1.5965
 1905SOL    HW2 7157   4.160   0.753   4.514  1.3885  1.3193 -0.9117
 1906SOL     OW 7158   2.480   1.348   2.773 -0.9703  0.3897  0.3817
 1906SOL    HW1 7159   2.416   1.289   2.813  0.1607 -0.1216  1.5174
 1906SOL    HW2 7160   2.552   1.350   2.835  0.2221  0.7736 -0.9609
 1907SOL     OW 7161   0.127   2.525   4.035  0.3480 -0.7401  0.2573
 1907SOL    HW1 7162   0.206   2.539   3.983  0.3034 -1.5323 -0.0396
 1907SOL    HW2 7163   0.059   2.575   3.990  0.9951  1.2825  1.4103
 1908SOL     OW 7164   1.484   1.648   9.790  0.2740  0.3358  0.0066
 1908SOL    HW1 7165   1.515   1.584   9.726  0.4417  0.1585  0.2599
 1908SOL    HW2 7166   1.520   1.731   9.760  1.5976  0.0400  0.6577
 1909SOL     OW 7167   4.449   2.825   8.298  0.3396  0.1461  0.5628
 1909SOL    HW1 7168   4.418   2.746   8.342  2.8202 -0.8425  0.7069
 1909SOL    HW2 7169   4.492   2.876   8.367  1.0205  0.3786 -0.0234
 1910SOL     OW 7170   2.643   7.631   8.081  0.1503 -0.1457 -0.1634
 1910SOL    HW1 7171   2.727   7.677   8.077  1.0841 -1.8377 -0.6281
 1910SOL    HW2 7172   2.631   7.610   8.173  0.2761  0.0247 -0.1075
 1911SOL     OW 7173   7.757   5.015  12.405  0.2535  0.0645 -0.2948
 1911SOL    HW1 7174   7.822   5.084  12.415  0.7979 -0.5329  0.4120
 1911SOL    HW2 7175   7.704   5.020  12.484 -1.3427  1.3014 -1.3694
 1912SOL     OW 7176   2.296   6.982   0.703 -0.3318  0.7852  0.1962
 1912SOL    HW1 7177   2.209   6.955   0.676 -0.7507  2.8064 -0.6380
 1912SOL    HW2 7178   2.337   6.902   0.737 -0.6759 -1.4666 -3.9967
 1913SOL     OW 7179   5.523   7.860   6.412  0.8096 -0.3746 -0.1093
 1913SOL    HW1 7180   5.547   7.918   6.485 -1.8058 -0.9801  1.3407
 1913SOL    HW2 7181   5.489   7.782   6.454 -1.0767 -0.6230 -1.9637
 1914SOL     OW 7182   5.801   1.638   4.831 -0.0142  0.1959  0.4194
 1914SOL    HW1 7183   5.767   1.562   4.785  1.9237 -0.7577  0.4498
 1914SOL    HW2 7184   5.726   1.674   4.878 -1.1621 -1.1570 -0.3121
 1915SOL     OW 7185   2.725   1.754   0.041  0.2724  0.6211 -0.0573
 1915SOL    HW1 7186   2.755   1.679   0.094  0.8934  0.9315  0.0358
 1915SOL    HW2 7187   2.651   1.719  -0.009  1.6210 -0.5565 -1.3266
 1916SOL     OW 7188   3.617   0.383   0.966  0.7229  0.1658 -0.0974
 1916SOL    HW1 7189   3.703   0.424   0.955  1.1860 -0.9364 -0.8073
 1916SOL    HW2 7190   3.584   0.375   0.877  1.0082 -1.6947 -0.0760
 1917SOL     OW 7191   1.348   3.317  10.113  0.2804  0.5811 -0.2170
 1917SOL    HW1 7192   1.434   3.357  10.104  0.9487 -1.1245 -2.3024
 1917SOL    HW2 7193   1.304   3.335  10.029 -0.7881  0.1239  0.2253
 1918SOL     OW 7194   6.843   0.232   7.304 -0.4667  0.3861  1.0201
 1918SOL    HW1 7195   6.750   0.242   7.285 -0.0288  2.8649 -0.2467
 1918SOL    HW2 7196   6.887   0.263   7.224  1.4731 -1.1186  1.4202
 1919SOL     OW 7197   4.557   5.503   6.842 -0.5346 -0.1260  0.2758
 1919SOL    HW1 7198   4.491   5.571   6.847 -0.0745  0.2601  4.4496
 1919SOL    HW2 7199   4.521   5.430   6.893  1.6104 -0.3992  1.5279
 1920SOL     OW 7200   7.820   1.238   0.207 -0.3437  0.2563  0.4511
 1920SOL    HW1 7201   7.727   1.237   0.230 -1.0614  1.3082 -2.0363
 1920SOL    HW2 7202   7.821   1.243   0.112  2.2957  0.4967  0.4104
 1921SOL     OW 7203   4.133   5.589   9.030 -0.0545 -0.0930 -0.4972
 1921SOL    HW1 7204   4.068   5.531   8.992  2.8357 -3.8898 -0.3091
 1921SOL    HW2 7205   4.125   5.574   9.125 -1.0491  2.0651 -0.1906
 1922SOL     OW 7206   4.657   3.148  12.010 -0.3994 -0.0377  0.0755
 1922SOL    HW1 7207   4.727   3.115  11.953 -0.3247  2.7036 -1.6091
 1922SOL    HW2 7208   4.590   3.179  11.949 -0.5638  2.5015  1.4251
 1923SOL     OW 7209   0.225   0.825   8.663 -0.0102 -0.0931 -0.2103
 1923SOL    HW1 7210   0.168   0.843   8.588  1.3827  0.3499 -1.2080
 1923SOL    HW2 7211   0.288   0.761   8.630  0.8022  0.3181  0.5067
 1924SOL     OW 7212   1.965   3.363  11.731 -0.3379 -0.4844 -0.7223
 1924SOL    HW1 7213   2.045   3.368  11.782 -1.6983  0.1005  1.5228
 1924SOL    HW2 7214   1.964   3.443  11.679  0.2702 -0.2194 -0.3396
 1925SOL     OW 7215   5.334   6.662  10.350  0.2097 -0.1222  0.2451
 1925SOL    HW1 7216   5.417   6.709  10.360 -0.1294  0.5830 -0.2282
 1925SOL    HW2 7217   5.360   6.573  10.326  0.8434 -0.0811  0.7532
 1926SOL     OW 7218   6.227   0.216   8.093  0.2678 -0.1194  0.2777
 1926SOL    HW1 7219   6.234   0.302   8.135 -0.1903  0.3964 -0.6697
 1926SOL    HW2 7220   6.153   0.225   8.033  0.2514 -1.1664  0.1354
 1927SOL     OW 7221   7.368   2.522   8.918 -0.0674  0.1381  0.4320
 1927SOL    HW1 7222   7.353   2.499   8.827  0.1739  1.1551  0.1196
 1927SOL    HW2 7223   7.463   2.533   8.925 -0.0489 -0.2379  0.8929
 1928SOL     OW 7224   1.254   6.051   4.492  0.2101 -0.4979 -0.3895
 1928SOL    HW1 7225   1.181   6.089   4.444  0.9537 -1.5905 -2.4885
 1928SOL    HW2 7226   1.302   5.999   4.428  1.5018 -1.7418  1.4492
 1929SOL     OW 7227   2.442   5.123   0.068 -0.1297  0.3167  0.5009
 1929SOL    HW1 7228   2.461   5.184   0.139  0.7821  0.0931  0.4624
 1929SOL    HW2 7229   2.359   5.083   0.092  1.3377 -1.6320  2.8133
 1930SOL     OW 7230   6.880   1.221   5.569  0.3584 -0.1177  0.1668
 1930SOL    HW1 7231   6.836   1.148   5.524 -1.5465  1.6951 -1.0647
 1930SOL    HW2 7232   6.894   1.188   5.658 -2.3808 -1.2893  0.2730
 1931SOL     OW 7233   7.156   2.369   6.829 -0.0644 -0.3979  0.0962
 1931SOL    HW1 7234   7.190   2.280   6.833 -1.7576 -1.0569  2.0033
 1931SOL    HW2 7235   7.193   2.412   6.906  0.1512  0.3004 -0.3982
 1932SOL     OW 7236   5.793   6.606   2.919  0.5874  0.3198 -0.0814
 1932SOL    HW1 7237   5.704   6.635   2.903 -0.0201 -0.7748  1.0950
 1932SOL    HW2 7238   5.829   6.590   2.831 -1.2447 -1.6605 -0.5788
 1933SOL     OW 7239   3.314   4.755   5.630  0.2487  0.3038  0.7811
 1933SOL    HW1 7240   3.324   4.845   5.598 -0.2291  0.3247  0.6837
 1933SOL    HW2 7241   3.404   4.726   5.649  0.4132  0.7610  0.7080
 1934SOL     OW 7242   1.129   6.874   9.850 -0.0544 -0.1432  0.1605
 1934SOL    HW1 7243   1.224   6.866   9.854 -0.0488  0.2173  1.2955
 1934SOL    HW2 7244   1.104   6.831   9.768  1.0099 -0.9193  0.2210
 1935SOL     OW 7245   4.199   6.401   1.308 -0.0294 -0.3966  0.4856
 1935SOL    HW1 7246   4.161   6.465   1.368 -2.3490 -0.9640 -0.2873
 1935SOL    HW2 7247   4.139   6.326   1.311  2.5827 -2.6602  1.3936
 1936SOL     OW 7248   5.804   6.934   1.931 -0.8028 -0.1410 -0.4844
 1936SOL    HW1 7249   5.780   6.903   2.018 -1.1697 -2.0398 -1.2056
 1936SOL    HW2 7250   5.723   6.968   1.894 -0.7504  0.2222 -0.2697
 1937SOL     OW 7251   5.884   7.819  11.423 -0.3600 -0.2981 -0.0732
 1937SOL    HW1 7252   5.840   7.903  11.413 -0.6530 -0.6436 -1.9780
 1937SOL    HW2 7253   5.976   7.842  11.438 -0.3454  0.3783 -1.0732
 1938SOL     OW 7254   3.200   2.594   0.334 -0.2093  0.5570  0.5160
 1938SOL    HW1 7255   3.165   2.633   0.255 -1.3517  2.3169  1.8097
 1938SOL    HW2 7256   3.124   2.560   0.381  0.1951  1.2255  1.7091
 1939SOL     OW 7257   0.747   2.925   0.234 -0.2668 -0.0857 -0.3516
 1939SOL    HW1 7258   0.827   2.897   0.191 -0.7700 -1.1742 -0.6154
 1939SOL    HW2 7259   0.720   3.004   0.186  1.3950  1.1840  0.6764
 1940SOL     OW 7260   1.120   1.345  11.206  0.0425  0.0095 -0.5347
 1940SOL    HW1 7261   1.084   1.433  11.193  1.0091  0.3461 -0.9732
 1940SOL    HW2 7262   1.211   1.359  11.232  0.2138 -0.8603 -0.6224
 1941SOL     OW 7263   5.576   5.038   6.551  0.1696  0.1564 -0.4815
 1941SOL    HW1 7264   5.509   5.080   6.498  1.3228  0.6170 -1.6100
 1941SOL    HW2 7265   5.594   4.955   6.507  1.3229  0.6601 -0.9881
 1942SOL     OW 7266   7.729   1.280   2.876  0.2944  0.5700  0.0219
 1942SOL    HW1 7267   7.751   1.239   2.792  1.7405  1.4787 -0.0898
 1942SOL    HW2 7268   7.711   1.372   2.854 -1.5159  0.3593  0.4448
 1943SOL     OW 7269   3.925   0.197   5.272  0.3111  0.5348 -0.1088
 1943SOL    HW1 7270   3.830   0.195   5.267  0.3911 -0.3192 -2.2523
 1943SOL    HW2 7271   3.953   0.112   5.239  1.8580  1.7225 -2.0626
 1944SOL     OW 7272   7.459   0.858  11.090 -0.2058  0.0815  0.3624
 1944SOL    HW1 7273   7.486   0.847  11.181 -0.7069 -0.2909  0.4679
 1944SOL    HW2 7274   7.386   0.798  11.079 -0.3167  0.3153 -0.2153
 1945SOL     OW 7275   4.100   1.029  12.000 -0.0313 -0.2891 -0.1175
 1945SOL    HW1 7276   4.116   1.122  11.983 -1.0281 -0.0067  0.4397
 1945SOL    HW2 7277   4.184   0.987  11.979 -0.1650  0.4346 -2.4187
 1946SOL     OW 7278   5.726   6.005  11.395 -0.1250 -0.1914  0.1244
 1946SOL    HW1 7279   5.668   5.992  11.320 -0.6979 -0.5740  0.6130
 1946SOL    HW2 7280   5.756   5.917  11.417 -3.7021 -0.9080  3.2087
 1947SOL     OW 7281   7.616   7.082   1.246  0.0687  0.0245 -0.0978
 1947SOL    HW1 7282   7.631   7.175   1.261  0.5571 -0.2213  1.0779
 1947SOL    HW2 7283   7.675   7.059   1.173 -0.7157  0.8033 -0.9999
 1948SOL     OW 7284   7.453   0.004   6.818  0.3626 -0.5093  0.0427
 1948SOL    HW1 7285   7.383   0.016   6.882 -2.0870 -0.2869 -2.5229
 1948SOL    HW2 7286   7.494  -0.079   6.843  0.3795  0.1823  2.5849
 1949SOL     OW 7287   0.915   5.862   1.308 -0.6893 -0.2903 -0.0767
 1949SOL    HW1 7288   0.864   5.781   1.308 -1.8535  0.4178  0.0702
 1949SOL    HW2 7289   0.890   5.907   1.389 -0.0777  0.2328 -0.1666
 1950SOL     OW 7290   4.050   1.583   3.552  0.1106  0.2452 -0.2901
 1950SOL    HW1 7291   4.029   1.671   3.521 -0.7808  0.5220  1.0266
 1950SOL    HW2 7292   4.030   1.526   3.479 -2.9287  0.7652  0.0272
 1951SOL     OW 7293   5.151   3.175   4.478  0.3524 -0.1730 -0.1859
 1951SOL    HW1 7294   5.237   3.212   4.457 -0.3496 -0.0498 -3.1617
 1951SOL    HW2 7295   5.098   3.250   4.505  0.8855 -0.1398  0.8565
 1952SOL     OW 7296   7.139   6.342   1.248  0.0719  0.2649 -0.0275
 1952SOL    HW1 7297   7.096   6.416   1.206 -0.0101  0.8352  1.0179
 1952SOL    HW2 7298   7.185   6.380   1.323 -1.9203 -1.0065  1.9808
 1953SOL     OW 7299   2.896   4.171  11.616 -0.0999 -0.4602 -0.3127
 1953SOL    HW1 7300   2.879   4.239  11.552  0.4282 -1.3909 -1.4863
 1953SOL    HW2 7301   2.821   4.112  11.608  0.5031 -1.1685 -0.9010
 1954SOL     OW 7302   7.440   3.498   9.578 -0.0842  0.3449 -0.1242
 1954SOL    HW1 7303   7.362   3.536   9.618  0.2003  1.6870 -0.8130
 1954SOL    HW2 7304   7.509   3.512   9.643 -0.2263 -0.1106  0.1348
 1955SOL     OW 7305   4.438   5.352   2.584 -0.5131  1.0978  0.5099
 1955SOL    HW1 7306   4.449   5.262   2.615  1.3192  1.1243  0.0457
 1955SOL    HW2 7307   4.524   5.393   2.599  0.2725  1.3856 -3.6326
 1956SOL     OW 7308   6.910   1.710  10.933 -0.8409  0.2960  0.2548
 1956SOL    HW1 7309   6.860   1.662  10.867 -1.6196 -0.2934  1.2368
 1956SOL    HW2 7310   6.949   1.642  10.988 -0.8141  0.7743  0.8404
 1957SOL     OW 7311   6.807   4.028   3.766 -0.2842  0.3112  0.1283
 1957SOL    HW1 7312   6.764   4.034   3.852 -2.3895 -0.7289 -0.7781
 1957SOL    HW2 7313   6.899   4.047   3.784 -0.7450  0.6201  2.5278
 1958SOL     OW 7314   0.545   5.434   9.378 -0.3081 -0.5560  0.2911
 1958SOL    HW1 7315   0.615   5.375   9.348 -0.3290 -0.9755  1.0533
 1958SOL    HW2 7316   0.506   5.467   9.297  0.5356 -0.5955 -0.1496
 1959SOL     OW 7317   0.187   1.591   9.772  0.0468 -0.1131  0.1801
 1959SOL    HW1 7318   0.107   1.571   9.820  0.4224 -0.4188  0.6850
 1959SOL    HW2 7319   0.235   1.650   9.830 -0.0897  0.5764 -0.3905
 1960SOL     OW 7320   7.143   0.106   8.889 -0.6378  0.6011 -0.2669
 1960SOL    HW1 7321   7.094   0.151   8.957 -0.0001  0.9840 -0.0519
 1960SOL    HW2 7322   7.133   0.013   8.909 -1.7397  0.6438 -0.5574
 1961SOL     OW 7323   5.645   2.902  11.436 -0.3484  0.0391  0.1077
 1961SOL    HW1 7324   5.609   2.979  11.392  1.9547  0.3784 -1.3361
 1961SOL    HW2 7325   5.569   2.843  11.446 -1.7532  1.6462 -0.5807
 1962SOL     OW 7326   3.482   7.591   3.339  0.5134 -0.3385 -0.1821
 1962SOL    HW1 7327   3.504   7.651   3.410  0.7162 -0.5909 -0.0335
 1962SOL    HW2 7328   3.387   7.602   3.327  0.1284 -1.6569  1.3774
 1963SOL     OW 7329   5.259   6.302   1.413 -0.0397 -0.0683 -0.3211
 1963SOL    HW1 7330   5.234   6.389   1.444  0.0883  0.0141 -0.4451
 1963SOL    HW2 7331   5.186   6.245   1.438  0.2272 -0.0762  0.4528
 1964SOL     OW 7332   5.359   2.368   9.170 -0.1452  0.1180  0.2318
 1964SOL    HW1 7333   5.341   2.462   9.158 -0.3165 -0.0125 -0.5710
 1964SOL    HW2 7334   5.455   2.362   9.168 -0.1289  0.2825  0.4109
 1965SOL     OW 7335   1.117   2.414  11.230 -0.2894  0.1471 -0.3737
 1965SOL    HW1 7336   1.025   2.390  11.229 -0.8430  2.1357 -1.0179
 1965SOL    HW2 7337   1.128   2.472  11.155  0.9617  1.7703  0.9750
 1966SOL     OW 7338   6.312   7.678   5.722 -0.1275  0.7999  0.9357
 1966SOL    HW1 7339   6.330   7.638   5.637 -1.1553 -0.8287  1.4487
 1966SOL    HW2 7340   6.218   7.696   5.722 -0.3587 -0.2441  2.1200
 1967SOL     OW 7341   0.234   7.814   6.205 -0.3561 -0.1959  0.0465
 1967SOL    HW1 7342   0.207   7.743   6.263 -0.4032  2.1439  3.1197
 1967SOL    HW2 7343   0.162   7.822   6.142 -1.5337 -1.2338  1.1995
 1968SOL     OW 7344   0.435   0.812   7.202  0.3488  0.2657  0.1916
 1968SOL    HW1 7345   0.358   0.835   7.255  0.1623  1.3799 -0.5441
 1968SOL    HW2 7346   0.497   0.884   7.217  2.3754 -1.7910  2.8060
 1969SOL     OW 7347   5.507   3.324   1.741  0.2359 -0.4271 -0.0855
 1969SOL    HW1 7348   5.482   3.310   1.833  0.4624  0.0730  0.0543
 1969SOL    HW2 7349   5.448   3.267   1.692 -1.8981  1.3757  0.1729
 1970SOL     OW 7350   7.585   0.524   3.914  0.2210 -0.0783  0.0260
 1970SOL    HW1 7351   7.490   0.518   3.904  0.3507  1.3047 -3.8723
 1970SOL    HW2 7352   7.618   0.445   3.872  0.7265  1.2758 -2.3636
 1971SOL     OW 7353   7.568   5.657  10.433  0.5278  0.4959 -0.2200
 1971SOL    HW1 7354   7.570   5.562  10.443 -0.1110  0.5372  0.3706
 1971SOL    HW2 7355   7.506   5.687  10.499  0.6744  1.3217 -0.4428
 1972SOL     OW 7356   3.234   0.042   5.170 -0.1012 -0.2075 -0.1533
 1972SOL    HW1 7357   3.182   0.121   5.181 -0.2990 -0.2146 -1.0112
 1972SOL    HW2 7358   3.170  -0.026   5.147  0.2771 -0.2026 -1.2725
 1973SOL     OW 7359   2.029   5.912   5.532 -0.1985 -0.3858  0.1706
 1973SOL    HW1 7360   2.009   5.996   5.490 -0.5646  0.2569  1.5475
 1973SOL    HW2 7361   2.097   5.873   5.478  0.2866  1.0122 -0.2646
 1974SOL     OW 7362   3.924   4.336   8.734  0.1388  0.0381 -0.3382
 1974SOL    HW1 7363   3.882   4.421   8.743 -1.3829 -0.5869 -1.1149
 1974SOL    HW2 7364   3.942   4.327   8.640 -0.4099 -0.7987 -0.3729
 1975SOL     OW 7365   0.503   4.182   4.728 -0.0517  0.1108  0.6501
 1975SOL    HW1 7366   0.468   4.264   4.695  0.4934 -0.2225 -0.8586
 1975SOL    HW2 7367   0.593   4.202   4.753  0.2319 -0.0886 -0.1486
 1976SOL     OW 7368   7.153   3.243   8.379 -0.2565  0.3477 -0.1599
 1976SOL    HW1 7369   7.192   3.164   8.419  1.0177  0.6418 -0.7590
 1976SOL    HW2 7370   7.223   3.278   8.323 -1.1754  1.3086 -0.7354
 1977SOL     OW 7371   3.877   2.421   2.374  0.3293  0.2302  0.2883
 1977SOL    HW1 7372   3.788   2.449   2.397  0.0905 -0.1919 -0.1063
 1977SOL    HW2 7373   3.867   2.378   2.289  0.6271 -1.3920  1.0452
 1978SOL     OW 7374   2.673   3.051   5.063  0.0291  0.1082 -0.2762
 1978SOL    HW1 7375   2.696   2.998   5.140 -0.1280 -1.2347 -1.1343
 1978SOL    HW2 7376   2.592   3.095   5.088 -0.4864 -0.9926  0.0283
 1979SOL     OW 7377   7.758   7.479   5.179 -0.0208 -0.3160  0.2918
 1979SOL    HW1 7378   7.816   7.508   5.108 -0.1655 -0.1040  0.2579
 1979SOL    HW2 7379   7.670   7.493   5.144 -0.1127  1.0609  1.0159
 1980SOL     OW 7380   1.519   6.483   6.623 -0.1268  0.1517 -0.3025
 1980SOL    HW1 7381   1.508   6.557   6.682  0.7859  1.8986 -2.1956
 1980SOL    HW2 7382   1.578   6.423   6.669  0.8063  1.6067  0.4456
 1981SOL     OW 7383   7.235   5.093   1.267  0.0888 -0.3225  0.0710
 1981SOL    HW1 7384   7.243   5.124   1.177 -1.6676 -1.0214 -0.3828
 1981SOL    HW2 7385   7.318   5.049   1.285  1.0097  1.0400 -0.6969
 1982SOL     OW 7386   1.504   3.612   4.582  0.0027 -0.2504 -0.4976
 1982SOL    HW1 7387   1.588   3.618   4.537 -0.0318 -0.1230 -0.5448
 1982SOL    HW2 7388   1.480   3.520   4.575  0.4130 -0.4030  0.0160
 1983SOL     OW 7389   7.470   0.025   4.793  0.0068 -0.5129 -0.0502
 1983SOL    HW1 7390   7.454  -0.009   4.705 -0.3938 -0.4725  0.0045
 1983SOL    HW2 7391   7.463   0.120   4.783 -2.6850 -0.5774  0.5075
 1984SOL     OW 7392   2.240   3.558   4.874  0.2793 -0.3513 -0.8762
 1984SOL    HW1 7393   2.244   3.495   4.946  1.4240  0.5592 -0.1023
 1984SOL    HW2 7394   2.169   3.617   4.897  2.0475  1.2924  0.7375
 1985SOL     OW 7395   7.390   7.168   4.404 -0.6048 -0.1137  0.1236
 1985SOL    HW1 7396   7.340   7.159   4.486 -3.1160  0.5095 -1.2251
 1985SOL    HW2 7397   7.328   7.143   4.336  1.1191  0.3000 -1.6752
 1986SOL     OW 7398   7.183   6.260   5.387  0.0054 -0.3502  0.3486
 1986SOL    HW1 7399   7.270   6.222   5.369 -0.1902 -0.2563 -0.8915
 1986SOL    HW2 7400   7.149   6.283   5.301  0.0502  2.5611  0.9979
 1987SOL     OW 7401   2.119   5.868   9.559  0.3771 -0.4163 -0.2471
 1987SOL    HW1 7402   2.104   5.795   9.499 -0.0979 -0.8354  0.3640
 1987SOL    HW2 7403   2.038   5.873   9.610  1.1403 -0.7323  1.0449
 1988SOL     OW 7404   3.553   6.944  10.950  0.1320 -0.3694 -0.1225
 1988SOL    HW1 7405   3.469   6.902  10.965  0.1514 -0.4212 -0.1576
 1988SOL    HW2 7406   3.551   7.024  11.002  0.4578 -0.8874  0.7034
 1989SOL     OW 7407   7.038   6.426   5.097  0.2198 -0.4251  0.6271
 1989SOL    HW1 7408   7.049   6.478   5.177 -0.2581  0.0242  0.4064
 1989SOL    HW2 7409   6.962   6.465   5.054  0.8721 -0.2374 -0.3813
 1990SOL     OW 7410   7.505   0.665   7.416 -0.0362 -0.4233 -0.0785
 1990SOL    HW1 7411   7.449   0.599   7.375 -0.7986 -0.5570  1.1323
 1990SOL    HW2 7412   7.476   0.668   7.507  1.7242 -0.2638  0.5156
 1991SOL     OW 7413   2.921   0.949   7.614  0.1753  0.3657 -0.1617
 1991SOL    HW1 7414   3.012   0.946   7.587  0.1323 -0.3483 -0.2347
 1991SOL    HW2 7415   2.902   1.042   7.624  0.4956  0.5915 -1.5336
 1992SOL     OW 7416   1.427   0.399   5.654  0.3897  0.2194 -0.3695
 1992SOL    HW1 7417   1.392   0.338   5.719 -1.5320  2.1111  0.4989
 1992SOL    HW2 7418   1.350   0.447   5.622  1.7446  1.8688 -1.3386
 1993SOL     OW 7419   0.734   0.019   7.884  0.6164 -0.7489  0.2584
 1993SOL    HW1 7420   0.788  -0.058   7.899 -0.2359 -1.0456  2.1634
 1993SOL    HW2 7421   0.648  -0.005   7.920  0.2021  0.8947  0.4393
 1994SOL     OW 7422   0.014   5.213   0.458  0.1146 -0.5335  0.2123
 1994SOL    HW1 7423  -0.017   5.238   0.545 -0.5779 -1.7922  0.3614
 1994SOL    HW2 7424   0.107   5.234   0.459  0.4898 -1.9839  1.8667
 1995SOL     OW 7425   5.762   5.869   9.693  0.3420 -0.0114 -0.0348
 1995SOL    HW1 7426   5.740   5.961   9.708 -1.9640 -0.2535 -1.3338
 1995SOL    HW2 7427   5.747   5.857   9.599 -0.5941 -1.9829  0.3358
 1996SOL     OW 7428   4.656   6.144  10.883  0.1359  0.7695 -0.4314
 1996SOL    HW1 7429   4.723   6.138  10.815  1.6241  1.9185  0.8592
 1996SOL    HW2 7430   4.644   6.054  10.913  2.4664  0.7405  0.5500
 1997SOL     OW 7431   2.621   2.888   4.041  0.5677 -0.1693  0.0944
 1997SOL    HW1 7432   2.653   2.968   4.083  0.6015  1.0033 -2.0375
 1997SOL    HW2 7433   2.533   2.877   4.076 -0.1658  1.9022 -0.9213
 1998SOL     OW 7434   6.555   3.014   7.737  0.0606  0.4235  0.4017
 1998SOL    HW1 7435   6.462   3.014   7.759 -0.0395  2.0731  0.0929
 1998SOL    HW2 7436   6.577   2.921   7.728 -2.0704  0.0100 -1.6197
 1999SOL     OW 7437   7.642   4.386   8.251  0.5508 -0.1805  0.2831
 1999SOL    HW1 7438   7.555   4.404   8.216  0.4153  1.2025  1.2447
 1999SOL    HW2 7439   7.635   4.301   8.293 -0.9623  0.8327  2.2203
 2000SOL     OW 7440   2.315   5.923   8.072 -0.3436 -0.0632  0.2812
 2000SOL    HW1 7441   2.366   5.873   8.136 -0.8174 -1.1912 -0.1951
 2000SOL    HW2 7442   2.350   6.011   8.077  2.0783 -0.9151 -0.4650
 2001SOL     OW 7443   7.155   6.031  10.409  0.1452 -0.3117 -0.1207
 2001SOL    HW1 7444   7.062   6.046  10.423 -0.1765 -2.4040  0.3907
 2001SOL    HW2 7445   7.197   6.066  10.488 -0.3442 -0.3462  0.1601
 2002SOL     OW 7446   3.904   4.879   6.688  0.3501  0.0888  0.4892
 2002SOL    HW1 7447   3.831   4.902   6.745 -0.4693  0.6489 -0.7422
 2002SOL    HW2 7448   3.921   4.787   6.706  0.2609  0.3176  1.7875
 2003SOL     OW 7449   7.750   3.785   7.199 -0.1268 -0.3428 -0.5515
 2003SOL    HW1 7450   7.790   3.792   7.112  1.4275  0.7211  0.1995
 2003SOL    HW2 7451   7.756   3.874   7.235  0.8990 -1.1103  1.3244
 2004SOL     OW 7452   6.894   6.693   7.155 -0.0302  0.2092  0.4723
 2004SOL    HW1 7453   6.812   6.652   7.127 -0.4329  0.9536  0.5554
 2004SOL    HW2 7454   6.899   6.774   7.105  0.5325  0.2960  0.6568
 2005SOL     OW 7455   2.180   1.988   6.468  0.6600  0.2564 -0.2075
 2005SOL    HW1 7456   2.144   2.053   6.528  1.3118  0.5857 -0.1615
 2005SOL    HW2 7457   2.173   2.028   6.382  1.5175  0.6085 -0.1240
 2006SOL     OW 7458   5.729   7.287   5.873  0.0678 -0.8909  0.5826
 2006SOL    HW1 7459   5.719   7.193   5.865  1.9731 -1.2486  1.8263
 2006SOL    HW2 7460   5.746   7.302   5.966  2.6191  0.3182  0.0094
 2007SOL     OW 7461   0.246   5.698   4.112  0.0113 -0.2158 -0.2824
 2007SOL    HW1 7462   0.176   5.748   4.070 -0.1247 -0.2404 -0.0852
 2007SOL    HW2 7463   0.271   5.633   4.046  0.2849  0.1949 -0.5947
 2008SOL     OW 7464   5.216   7.049   5.564  0.1644 -1.0115 -0.4029
 2008SOL    HW1 7465   5.306   7.033   5.594 -0.2499 -0.2539  1.3715
 2008SOL    HW2 7466   5.225   7.071   5.472  2.0234  0.5967  0.0831
 2009SOL     OW 7467   1.982   0.280  11.824  0.2437 -0.1359  0.0670
 2009SOL    HW1 7468   2.075   0.256  11.830  0.0262 -1.2747 -0.8020
 2009SOL    HW2 7469   1.981   0.375  11.828  1.2062 -0.1507  3.1846
 2010SOL     OW 7470   5.703   2.504   4.792 -0.1331 -0.5736 -0.0477
 2010SOL    HW1 7471   5.705   2.450   4.871  1.3650  0.7196  0.8342
 2010SOL    HW2 7472   5.763   2.460   4.731  0.5057 -0.3196  0.3923
 2011SOL     OW 7473   1.462   4.764   6.719  0.1039  0.5093 -0.1107
 2011SOL    HW1 7474   1.425   4.736   6.636  0.8825  0.3131 -0.4011
 2011SOL    HW2 7475   1.417   4.846   6.739 -0.1257  0.5318 -0.6948
 2012SOL     OW 7476   5.785   7.073   8.010  0.2090  0.5852 -0.1869
 2012SOL    HW1 7477   5.840   7.054   7.934 -0.1344 -0.0996 -0.2681
 2012SOL    HW2 7478   5.801   7.001   8.071 -0.3575  0.5385 -0.0831
 2013SOL     OW 7479   6.276   1.150   4.108  0.5969  0.1352 -0.0030
 2013SOL    HW1 7480   6.269   1.077   4.047  0.7259  0.6209 -0.6067
 2013SOL    HW2 7481   6.352   1.130   4.162 -1.0820 -1.6737  1.8788
 2014SOL     OW 7482   5.215   6.877   0.418 -0.7413 -0.0124 -1.1756
 2014SOL    HW1 7483   5.231   6.837   0.333 -0.7455 -1.1811 -0.6424
 2014SOL    HW2 7484   5.223   6.805   0.481 -1.3731  0.7005 -0.2476
 2015SOL     OW 7485   6.868   3.420   8.578  0.3515 -0.4511 -0.2416
 2015SOL    HW1 7486   6.848   3.486   8.511  0.1907 -0.4523 -0.1946
 2015SOL    HW2 7487   6.963   3.426   8.589  0.2334  0.4441  0.4500
 2016SOL     OW 7488   2.516   2.380   4.798  0.1625  0.4855  0.1857
 2016SOL    HW1 7489   2.507   2.323   4.721  0.3948  0.4209  0.2078
 2016SOL    HW2 7490   2.458   2.341   4.864  0.5749  0.0898  0.3118
 2017SOL     OW 7491   2.640   5.381   6.515  0.8321 -0.3645  0.4312
 2017SOL    HW1 7492   2.605   5.402   6.428  1.2755  1.0928  0.5756
 2017SOL    HW2 7493   2.653   5.286   6.513 -0.7682 -0.5986 -0.4832
 2018SOL     OW 7494   3.335   3.150   2.521 -0.8827  0.1678  0.4908
 2018SOL    HW1 7495   3.420   3.130   2.562 -0.6178  0.4481  0.0783
 2018SOL    HW2 7496   3.357   3.204   2.445 -1.3856 -0.2467  0.0477
 2019SOL     OW 7497   5.797   2.971   0.889  0.6018 -0.1027  0.3250
 2019SOL    HW1 7498   5.822   2.938   0.975  0.3269  1.1669  0.9251
 2019SOL    HW2 7499   5.728   2.912   0.859  2.0216 -1.7109  0.0944
 2020SOL     OW 7500   5.101   1.942   7.418  0.6409  0.0594  0.1125
 2020SOL    HW1 7501   5.117   1.847   7.413 -1.9283 -0.4177 -0.5300
 2020SOL    HW2 7502   5.010   1.949   7.447  0.6500  2.3249 -0.2865
 2021SOL     OW 7503   1.867   5.098   5.333 -0.4104  0.5107  0.1203
 2021SOL    HW1 7504   1.958   5.111   5.358 -0.3205  1.3170 -0.5713
 2021SOL    HW2 7505   1.830   5.186   5.329 -0.8165  0.3090 -1.0551
 2022SOL     OW 7506   2.859   2.060   8.515  0.0935  0.2236 -0.6899
 2022SOL    HW1 7507   2.824   2.043   8.427  0.0812  0.6545 -0.7741
 2022SOL    HW2 7508   2.954   2.050   8.505  0.0841  0.1724 -0.7298
 2023SOL     OW 7509   5.940   3.069   4.307  0.4561  0.0105 -0.1846
 2023SOL    HW1 7510   5.960   3.027   4.223 -0.6840  0.0175 -0.4749
 2023SOL    HW2 7511   5.925   2.997   4.368  3.6919 -0.0635  0.6988
 2024SOL     OW 7512   7.521   4.066   6.142  0.5324  0.1900 -0.0623
 2024SOL    HW1 7513   7.462   4.005   6.097 -0.5583  2.5354 -2.0589
 2024SOL    HW2 7514   7.597   4.072   6.083  1.6159 -0.7738  1.1750
 2025SOL     OW 7515   5.361   6.145   2.005  0.0232  0.3442 -0.1490
 2025SOL    HW1 7516   5.354   6.082   2.076 -0.1075  0.4915 -0.0304
 2025SOL    HW2 7517   5.451   6.135   1.973  0.6502  1.4723  1.1648
 2026SOL     OW 7518   1.583   1.730   5.397 -0.0642  0.1705  0.1783
 2026SOL    HW1 7519   1.563   1.700   5.309 -0.6580 -0.6724  0.5920
 2026SOL    HW2 7520   1.498   1.746   5.437  0.1858 -0.0048  0.7886
 2027SOL     OW 7521   4.574   4.751   5.076  0.1684 -0.2330 -0.3506
 2027SOL    HW1 7522   4.550   4.786   5.162 -1.3040 -0.5867 -0.5879
 2027SOL    HW2 7523   4.587   4.828   5.021  1.9315  0.0188  0.3679
 2028SOL     OW 7524   7.051   4.763   2.302  0.2142  0.7604  0.0566
 2028SOL    HW1 7525   6.960   4.792   2.308  0.2747  0.7054  1.9406
 2028SOL    HW2 7526   7.093   4.825   2.243 -0.6851  1.7896  0.4733
 2029SOL     OW 7527   7.564   0.407   4.253  0.3612 -0.5389  0.1267
 2029SOL    HW1 7528   7.578   0.359   4.172 -2.0164 -0.5514 -0.3480
 2029SOL    HW2 7529   7.602   0.494   4.237  0.1226 -0.6152 -0.9319
 2030SOL     OW 7530   1.583   0.579   5.799 -0.2956 -0.0717  0.0994
 2030SOL    HW1 7531   1.547   0.526   5.728 -1.1469  0.4657  0.1216
 2030SOL    HW2 7532   1.536   0.550   5.877  1.0735 -1.1009  0.5850
 2031SOL     OW 7533   5.978   3.137   3.867  0.1384 -0.3660 -0.4993
 2031SOL    HW1 7534   5.967   3.169   3.957 -0.7719  1.3884 -1.2031
 2031SOL    HW2 7535   5.956   3.044   3.873 -1.3901  0.0208  0.8467
 2032SOL     OW 7536   1.025   6.652   3.644  0.5679  0.1765  0.2793
 2032SOL    HW1 7537   1.077   6.671   3.566 -0.3222 -1.7116 -0.8425
 2032SOL    HW2 7538   0.935   6.642   3.611 -0.2599  1.6252  1.9151
 2033SOL     OW 7539   0.604   1.467   4.559 -0.4668 -0.1298  0.1424
 2033SOL    HW1 7540   0.546   1.426   4.623  0.6853  1.0001  2.0262
 2033SOL    HW2 7541   0.620   1.400   4.493 -2.6511 -0.9474  0.3911
 2034SOL     OW 7542   7.428   7.729   3.913  0.4287 -0.2572  0.8108
 2034SOL    HW1 7543   7.487   7.783   3.965 -0.4359  0.3463  1.1787
 2034SOL    HW2 7544   7.384   7.672   3.977 -1.0624  0.8831  0.8497
 2035SOL     OW 7545   1.534   3.908   1.079  0.4906 -0.0699 -0.6328
 2035SOL    HW1 7546   1.561   3.947   1.163  0.0526 -0.6959 -0.1988
 2035SOL    HW2 7547   1.567   3.970   1.014 -0.0144  0.9402  0.0308
 2036SOL     OW 7548   1.314   3.690   0.337  0.1323  0.1065 -0.0106
 2036SOL    HW1 7549   1.324   3.632   0.262  1.2221 -2.2331  1.7954
 2036SOL    HW2 7550   1.316   3.778   0.300  1.5159 -0.8999 -2.6074
 2037SOL     OW 7551   3.996   6.067   9.843  0.0226  0.0210 -0.0540
 2037SOL    HW1 7552   3.954   6.132   9.786 -1.5999 -1.0641 -0.1629
 2037SOL    HW2 7553   4.062   6.025   9.787 -0.7529 -0.2239 -0.8079
 2038SOL     OW 7554   0.622   7.943   1.830  0.4769  0.0182  0.1925
 2038SOL    HW1 7555   0.658   7.950   1.918  1.7297  1.1316 -0.3815
 2038SOL    HW2 7556   0.689   7.980   1.773 -0.6357  0.0402 -1.1601
 2039SOL     OW 7557   4.683   1.374   3.696  0.0120 -0.0480 -0.1982
 2039SOL    HW1 7558   4.734   1.450   3.722  0.5206 -0.2813 -0.5065
 2039SOL    HW2 7559   4.624   1.358   3.770  0.6570 -0.0213  0.3294
 2040SOL     OW 7560   0.868   1.231   4.508  0.0058  0.3465 -0.6045
 2040SOL    HW1 7561   0.899   1.316   4.538 -1.1610  0.3946  0.5350
 2040SOL    HW2 7562   0.823   1.193   4.583 -0.5449 -0.7644 -1.4548
 2041SOL     OW 7563   7.007   3.661   9.283  0.1537  0.2757  0.2764
 2041SOL    HW1 7564   7.052   3.696   9.360  0.7401  0.3448 -0.0893
 2041SOL    HW2 7565   7.059   3.584   9.259  0.5629  0.8189 -0.6359
 2042SOL     OW 7566   0.273   2.004  11.072 -0.5358 -0.2173 -0.7978
 2042SOL    HW1 7567   0.313   2.059  11.005 -1.0101 -0.2505 -1.1221
 2042SOL    HW2 7568   0.184   2.038  11.080 -0.0829  0.6780  0.8319
 2043SOL     OW 7569   2.982   2.070   2.891  0.4254 -0.1246  0.0408
 2043SOL    HW1 7570   3.020   2.094   2.806 -0.2899 -0.9500 -0.5248
 2043SOL    HW2 7571   3.052   2.024   2.936  2.3429  3.8905  1.6998
 2044SOL     OW 7572   2.247   6.722   5.057  0.5664  0.0230  1.0313
 2044SOL    HW1 7573   2.289   6.797   5.013  0.3541  0.6619  1.8993
 2044SOL    HW2 7574   2.235   6.658   4.987  1.2470  0.5820  0.3780
 2045SOL     OW 7575   7.476   0.885   5.762 -0.1329  0.4858 -1.0887
 2045SOL    HW1 7576   7.398   0.872   5.708 -0.1887  1.5985 -1.2999
 2045SOL    HW2 7577   7.527   0.805   5.750 -1.3856 -0.4069 -0.6857
 2046SOL     OW 7578   3.692   1.035   0.648 -0.0610  0.3685  0.1146
 2046SOL    HW1 7579   3.615   1.032   0.705 -0.8204  1.9373 -0.7432
 2046SOL    HW2 7580   3.741   1.112   0.678  2.5171 -1.8862  2.1792
 2047SOL     OW 7581   2.747   4.398   9.511 -0.1709 -0.1628  0.0808
 2047SOL    HW1 7582   2.838   4.374   9.495 -0.1216  0.4044 -0.5187
 2047SOL    HW2 7583   2.744   4.492   9.492 -1.0879 -0.3649 -0.8168
 2048SOL     OW 7584   3.848   7.307  11.775 -0.2960 -0.2052 -0.1264
 2048SOL    HW1 7585   3.811   7.218  11.769 -0.8187  0.0217 -0.3219
 2048SOL    HW2 7586   3.819   7.350  11.695  0.5017 -0.0565 -0.3381
 2049SOL     OW 7587   4.064   6.649   7.080  0.2925 -0.5395  0.0201
 2049SOL    HW1 7588   4.087   6.734   7.118  0.0270 -1.2983  2.0211
 2049SOL    HW2 7589   4.148   6.606   7.066  0.3947 -0.2631 -0.2295
 2050SOL     OW 7590   1.469   0.393   4.893 -0.0136  0.3272  0.2298
 2050SOL    HW1 7591   1.475   0.383   4.798  0.9338  1.8375  0.0886
 2050SOL    HW2 7592   1.556   0.368   4.926 -0.9169 -2.1286  0.9568
 2051SOL     OW 7593   0.107   7.252   7.697 -0.0150  0.3318 -0.4784
 2051SOL    HW1 7594   0.167   7.214   7.761  0.2588  0.1841 -0.8265
 2051SOL    HW2 7595   0.149   7.240   7.612  0.9284  2.9381 -0.4805
 2052SOL     OW 7596   1.507   1.333  12.056 -0.1356  0.3029 -0.3508
 2052SOL    HW1 7597   1.548   1.372  11.979  0.9149 -0.6181 -0.2857
 2052SOL    HW2 7598   1.550   1.374  12.130 -0.3042  0.3334 -0.2705
 2053SOL     OW 7599   4.072   5.756   9.934 -0.0374  0.1842  0.1100
 2053SOL    HW1 7600   4.044   5.829   9.988 -1.2489 -1.3544  1.6755
 2053SOL    HW2 7601   4.003   5.690   9.944  1.4095 -1.5242 -0.5079
 2054SOL     OW 7602   5.176   1.339   9.784 -0.1802  0.3635 -0.3156
 2054SOL    HW1 7603   5.139   1.331   9.872 -0.5757 -0.6902 -0.5618
 2054SOL    HW2 7604   5.107   1.306   9.726  0.3220  0.4439 -0.9706
 2055SOL     OW 7605   6.856   2.494  12.029 -0.2123  0.1267 -0.0240
 2055SOL    HW1 7606   6.913   2.439  12.082  0.8187  0.3473 -0.8803
 2055SOL    HW2 7607   6.863   2.459  11.940  0.1890  1.4010 -0.5155
 2056SOL     OW 7608   7.022   2.560  11.185 -0.0642  0.0007 -0.2638
 2056SOL    HW1 7609   7.103   2.573  11.235  0.2482 -1.9559 -0.1897
 2056SOL    HW2 7610   6.953   2.597  11.240  0.4937 -0.5698  0.8362
 2057SOL     OW 7611   1.826   7.399   7.294 -0.2497 -0.2124 -0.2929
 2057SOL    HW1 7612   1.802   7.475   7.240 -1.6743 -1.5846 -1.6960
 2057SOL    HW2 7613   1.769   7.406   7.370  1.1658  1.2687  0.6960
 2058SOL     OW 7614   4.411   6.001   8.778  0.4297 -0.0153  0.8481
 2058SOL    HW1 7615   4.484   5.945   8.753  0.4752 -0.0419  1.0391
 2058SOL    HW2 7616   4.337   5.966   8.728  0.8727  1.0007 -0.5679
 2059SOL     OW 7617   4.394   1.007   5.683  0.5989 -0.2236  0.1621
 2059SOL    HW1 7618   4.437   1.090   5.666 -2.5047  1.5788  0.3581
 2059SOL    HW2 7619   4.387   1.003   5.779 -1.0787  0.3879  0.1011
 2060SOL     OW 7620   5.643   2.907   6.360 -0.0380  0.5045 -0.1948
 2060SOL    HW1 7621   5.643   2.944   6.271  0.8956  0.9288 -0.0243
 2060SOL    HW2 7622   5.735   2.892   6.380 -0.3399 -1.3175  0.0132
 2061SOL     OW 7623   6.555   3.367   6.980 -0.2665  1.0346 -0.1642
 2061SOL    HW1 7624   6.559   3.426   6.905 -1.1807 -0.4694 -1.4491
 2061SOL    HW2 7625   6.475   3.317   6.967  1.3294 -1.7436 -0.1513
 2062SOL     OW 7626   7.462   5.931   9.254  0.2005 -0.2694 -0.5680
 2062SOL    HW1 7627   7.417   5.873   9.192 -1.2540  0.9860 -0.7276
 2062SOL    HW2 7628   7.487   5.873   9.326  0.0610 -1.3592 -1.3616
 2063SOL     OW 7629   6.502   1.607   9.339  0.3172 -0.3872 -0.2383
 2063SOL    HW1 7630   6.547   1.552   9.275 -0.2953 -0.6516 -0.4503
 2063SOL    HW2 7631   6.570   1.663   9.375  0.8257 -0.8186 -0.5145
 2064SOL     OW 7632   6.980   2.025   1.693 -0.0940 -0.0443  0.0879
 2064SOL    HW1 7633   7.025   2.107   1.672  1.3072 -0.8843 -0.2885
 2064SOL    HW2 7634   6.887   2.045   1.682  0.2287  1.4867 -0.0158
 2065SOL     OW 7635   1.620   7.679   1.039  0.1402 -0.2723  0.3695
 2065SOL    HW1 7636   1.568   7.758   1.048  0.0493 -0.0225 -1.8541
 2065SOL    HW2 7637   1.561   7.609   1.069 -1.2716  0.0855 -1.3759
 2066SOL     OW 7638   3.807   0.404   4.432  0.4749 -0.0150 -0.5156
 2066SOL    HW1 7639   3.728   0.378   4.384  0.1196 -0.4585  0.2787
 2066SOL    HW2 7640   3.859   0.323   4.438  0.5165  0.0377 -0.1622
 2067SOL     OW 7641   4.596   6.694   0.807 -0.3234 -0.2063  0.5190
 2067SOL    HW1 7642   4.521   6.711   0.750 -0.7666 -0.9402  0.8728
 2067SOL    HW2 7643   4.672   6.713   0.752 -0.7444  1.3274  0.3937
 2068SOL     OW 7644   1.564   0.777   7.470  0.7039 -0.5572  0.0011
 2068SOL    HW1 7645   1.555   0.796   7.377 -1.2243 -0.4629  0.1711
 2068SOL    HW2 7646   1.617   0.697   7.473  0.7059 -0.6142 -1.1823
 2069SOL     OW 7647   6.701   4.344   9.708  0.2651 -0.4348 -0.3066
 2069SOL    HW1 7648   6.784   4.306   9.678  0.1647 -1.8269  1.0540
 2069SOL    HW2 7649   6.667   4.280   9.771 -0.4535  1.4521  1.3101
 2070SOL     OW 7650   7.855   5.141   2.722  1.0526  0.3837  0.7744
 2070SOL    HW1 7651   7.905   5.063   2.746  1.6732  0.2597 -0.7634
 2070SOL    HW2 7652   7.764   5.112   2.723  1.2189 -0.1373  1.0236
 2071SOL     OW 7653   3.339   0.018   2.038  0.2688 -0.3354 -0.0658
 2071SOL    HW1 7654   3.290  -0.007   1.959 -0.0433 -0.7651  0.2538
 2071SOL    HW2 7655   3.318   0.110   2.051  0.9915 -0.0289 -0.9552
 2072SOL     OW 7656   6.657   3.988   1.952 -0.0830 -0.0130 -0.5884
 2072SOL    HW1 7657   6.625   4.034   2.029  0.2166 -0.2263 -0.3315
 2072SOL    HW2 7658   6.605   3.908   1.948 -1.0425  0.6289 -1.4001
 2073SOL     OW 7659   1.045   2.846   4.395 -0.5332 -0.5389  0.0448
 2073SOL    HW1 7660   1.068   2.842   4.487  0.5258  0.6381 -0.1363
 2073SOL    HW2 7661   1.103   2.783   4.352 -0.9580 -1.0142  0.1551
 2074SOL     OW 7662   2.350   7.615  12.298  0.0960  0.1495  0.0933
 2074SOL    HW1 7663   2.387   7.546  12.352 -0.2316  0.9528  1.3955
 2074SOL    HW2 7664   2.268   7.578  12.265 -0.6740  0.2915  1.7456
 2075SOL     OW 7665   5.058   3.723   7.554 -0.3447 -0.4064 -0.3766
 2075SOL    HW1 7666   5.008   3.745   7.476 -0.0792  0.2261 -0.3722
 2075SOL    HW2 7667   5.002   3.661   7.602 -1.8282  1.4111  0.3833
 2076SOL     OW 7668   2.974   1.008   4.595  0.2587 -0.1285  0.7350
 2076SOL    HW1 7669   2.910   0.936   4.601  0.6879 -0.4455  1.7860
 2076SOL    HW2 7670   2.988   1.034   4.686 -0.6600  2.0119  0.3208
 2077SOL     OW 7671   0.180   3.561   5.944  0.0954  0.1605 -0.1348
 2077SOL    HW1 7672   0.132   3.522   5.871  2.0179 -1.3253 -0.7202
 2077SOL    HW2 7673   0.260   3.595   5.904  0.0866  1.5717  0.9527
 2078SOL     OW 7674   2.175   3.165   5.900 -0.2268 -0.6662 -0.6315
 2078SOL    HW1 7675   2.264   3.202   5.900  0.2936 -1.7903  1.1721
 2078SOL    HW2 7676   2.125   3.222   5.958 -0.1794 -1.0882 -0.1674
 2079SOL     OW 7677   1.220   3.824   0.630 -0.1294 -0.2661  0.0098
 2079SOL    HW1 7678   1.155   3.867   0.573  0.0388  0.4663  0.3725
 2079SOL    HW2 7679   1.292   3.803   0.571 -0.8717 -1.5256 -0.5058
 2080SOL     OW 7680   0.982   4.568  11.344 -0.8895  0.4382 -0.0147
 2080SOL    HW1 7681   1.002   4.478  11.318  1.3375  1.0003 -0.3949
 2080SOL    HW2 7682   0.915   4.597  11.283 -0.9735 -0.6621 -0.4589
 2081SOL     OW 7683   0.210   5.314   8.635  0.0869 -0.1257  0.5684
 2081SOL    HW1 7684   0.173   5.271   8.712  1.2807  0.2807  1.3888
 2081SOL    HW2 7685   0.302   5.327   8.656  0.5408 -0.3654 -1.0957
 2082SOL     OW 7686   5.600   3.207   3.637  0.3470  0.4742  0.1469
 2082SOL    HW1 7687   5.674   3.267   3.646  0.9570 -0.3676  0.9049
 2082SOL    HW2 7688   5.596   3.162   3.721 -0.5840  0.0015 -0.1448
 2083SOL     OW 7689   2.082   1.659  11.735  0.3687 -0.4937  0.2887
 2083SOL    HW1 7690   2.038   1.610  11.804 -0.3674 -0.5998 -0.2462
 2083SOL    HW2 7691   2.045   1.626  11.653  1.1147 -0.2618 -0.1560
 2084SOL     OW 7692   2.247   0.521   9.483  0.3818 -0.5058 -0.8510
 2084SOL    HW1 7693   2.288   0.539   9.568 -0.9152 -0.3306 -0.2255
 2084SOL    HW2 7694   2.207   0.605   9.458 -0.1197 -0.8257 -1.1304
 2085SOL     OW 7695   6.075   4.019   6.905 -0.2583 -0.5121  0.2690
 2085SOL    HW1 7696   6.110   4.057   6.824 -0.4647  0.8082  0.7851
 2085SOL    HW2 7697   6.127   4.058   6.975 -1.1456 -0.3930  0.8789
 2086SOL     OW 7698   1.271   7.638  10.315  0.4067  0.5976 -0.0816
 2086SOL    HW1 7699   1.268   7.663  10.222  1.1965  2.3200  0.3240
 2086SOL    HW2 7700   1.203   7.692  10.356 -1.0411 -1.2896  0.1498
 2087SOL     OW 7701   7.244   3.065   1.270  0.0738 -0.0244  0.3347
 2087SOL    HW1 7702   7.211   3.151   1.245 -1.1795 -0.2972  1.0051
 2087SOL    HW2 7703   7.231   3.061   1.365 -0.7849 -1.3249  0.1771
 2088SOL     OW 7704   2.069   0.104   1.966  0.1158  0.3744 -0.2254
 2088SOL    HW1 7705   2.101   0.027   2.014 -0.7325  0.3044  0.2362
 2088SOL    HW2 7706   1.995   0.136   2.018  0.0362  1.1103 -0.7738
 2089SOL     OW 7707   2.968   4.311   5.725  0.2328  0.8539 -0.4869
 2089SOL    HW1 7708   2.947   4.377   5.659 -0.1021  0.8099 -0.4264
 2089SOL    HW2 7709   2.884   4.269   5.744  0.5763 -0.1517 -1.1200
 2090SOL     OW 7710   1.505   0.252  12.214 -0.5514  0.4392  0.3476
 2090SOL    HW1 7711   1.484   0.297  12.133  0.8238  0.8998  0.2140
 2090SOL    HW2 7712   1.517   0.160  12.188  1.2760  0.8066 -0.2827
 2091SOL     OW 7713   4.070   6.962  10.855 -0.0411 -0.0399 -0.1996
 2091SOL    HW1 7714   3.986   6.917  10.859  0.3088 -0.7469 -0.6513
 2091SOL    HW2 7715   4.048   7.055  10.848 -0.7739 -0.0988  1.0436
 2092SOL     OW 7716   0.786   4.216   4.299 -0.2345  0.7589  0.3873
 2092SOL    HW1 7717   0.723   4.148   4.278 -0.0612  0.4464  0.8713
 2092SOL    HW2 7718   0.787   4.220   4.395 -0.7263  1.8920  0.3641
 2093SOL     OW 7719   5.379   6.230   8.343  0.1063  0.3389  0.0561
 2093SOL    HW1 7720   5.349   6.252   8.432  0.2502  0.6985  0.0158
 2093SOL    HW2 7721   5.300   6.197   8.300 -0.8780  3.4261 -0.7798
 2094SOL     OW 7722   6.201   0.713   1.872 -0.0808  0.1339 -0.3385
 2094SOL    HW1 7723   6.113   0.745   1.890  0.1730  1.5453 -1.4457
 2094SOL    HW2 7724   6.258   0.788   1.890  0.9928 -0.9177  0.9183
 2095SOL     OW 7725   1.660   5.208   0.718  0.0352 -0.2750 -0.3626
 2095SOL    HW1 7726   1.616   5.147   0.776 -0.0854  0.0027 -0.1594
 2095SOL    HW2 7727   1.698   5.153   0.649  2.8703 -0.9970  1.5986
 2096SOL     OW 7728   2.045   7.537   7.086 -0.0691 -0.4964  0.4433
 2096SOL    HW1 7729   1.963   7.509   7.045 -0.2676 -0.6753  0.9560
 2096SOL    HW2 7730   2.023   7.622   7.125  0.4795  0.3221 -0.9521
 2097SOL     OW 7731   4.481   4.691   7.156  0.6869  0.1626 -0.0291
 2097SOL    HW1 7732   4.434   4.773   7.167  0.5608  0.3059 -1.5495
 2097SOL    HW2 7733   4.449   4.636   7.228 -0.4964  0.8413 -0.0110
 2098SOL     OW 7734   0.408   5.031   3.997  0.2998 -0.5230 -0.3978
 2098SOL    HW1 7735   0.351   4.971   4.044  0.0019  0.9053  1.1592
 2098SOL    HW2 7736   0.388   5.016   3.904 -2.0383 -0.6313  0.0652
 2099SOL     OW 7737   0.189   7.523   4.958  0.1217 -0.6277 -0.0502
 2099SOL    HW1 7738   0.166   7.444   4.908 -0.1249 -0.1399 -0.7173
 2099SOL    HW2 7739   0.254   7.493   5.021  0.9016 -1.1383 -1.0685
 2100SOL     OW 7740   5.753   7.848  12.088 -0.1206 -0.4528 -0.2020
 2100SOL    HW1 7741   5.706   7.765  12.076 -0.4805 -0.1222 -1.1784
 2100SOL    HW2 7742   5.779   7.848  12.180 -0.2535 -1.5783 -0.1517
 2101SOL     OW 7743   6.483   5.522   4.478 -0.1956 -1.1552  0.1913
 2101SOL    HW1 7744   6.401   5.569   4.461 -0.1185 -1.4339 -1.0787
 2101SOL    HW2 7745   6.458   5.452   4.539 -0.5450 -0.2230  1.1462
 2102SOL     OW 7746   2.052   4.311   0.639 -0.4117 -0.0734  0.5576
 2102SOL    HW1 7747   1.982   4.375   0.641 -1.2839 -1.0177  1.0378
 2102SOL    HW2 7748   2.070   4.298   0.545  1.5681  2.7030  0.4193
 2103SOL     OW 7749   3.251   2.591  11.617 -0.6795 -0.1659 -0.6246
 2103SOL    HW1 7750   3.249   2.682  11.588 -2.5432  0.4342  1.1633
 2103SOL    HW2 7751   3.287   2.595  11.706 -0.2889 -1.2574 -0.7133
 2104SOL     OW 7752   1.292   1.160   3.354 -0.0656 -0.6383  0.1228
 2104SOL    HW1 7753   1.214   1.116   3.322  1.1374 -1.4574 -1.8636
 2104SOL    HW2 7754   1.339   1.092   3.403  0.1487 -0.6032 -0.0319
 2105SOL     OW 7755   4.130   0.814   6.145 -0.2483  0.1076  0.2194
 2105SOL    HW1 7756   4.175   0.827   6.229  1.6289 -0.6232 -0.6281
 2105SOL    HW2 7757   4.157   0.889   6.092 -0.1154 -0.2823 -0.2663
 2106SOL     OW 7758   7.343   1.518   9.849  0.2417  0.0913 -0.9641
 2106SOL    HW1 7759   7.398   1.515   9.926 -1.3625 -2.3990  0.2514
 2106SOL    HW2 7760   7.399   1.487   9.778  0.9914 -0.3587 -0.1961
 2107SOL     OW 7761   0.260   4.411  11.658  0.0452 -0.0057  0.1397
 2107SOL    HW1 7762   0.185   4.407  11.717 -1.2636 -0.2220 -1.4549
 2107SOL    HW2 7763   0.258   4.499  11.622  0.9260  0.1784  0.5294
 2108SOL     OW 7764   6.896   3.095   3.465  0.7213 -0.2709  0.5059
 2108SOL    HW1 7765   6.881   3.030   3.396  0.5793 -0.3436  0.6055
 2108SOL    HW2 7766   6.809   3.117   3.497  0.4028  2.4613 -1.7720
 2109SOL     OW 7767   2.494   7.695   8.676 -0.3582 -0.3293  0.2249
 2109SOL    HW1 7768   2.437   7.751   8.623 -0.1084 -1.1624 -0.9686
 2109SOL    HW2 7769   2.566   7.672   8.617 -1.1358 -3.0031  0.1940
 2110SOL     OW 7770   3.739   6.899   6.499  0.1814  0.0211  0.1027
 2110SOL    HW1 7771   3.710   6.896   6.408  0.4661 -0.3176  0.0219
 2110SOL    HW2 7772   3.722   6.989   6.526  1.5753  0.5734 -0.7666
 2111SOL     OW 7773   6.889   2.717   5.958  0.0019 -0.0797  0.0006
 2111SOL    HW1 7774   6.923   2.690   5.873  0.8405  0.3451  0.1877
 2111SOL    HW2 7775   6.898   2.639   6.013  0.9461  0.1019  0.1183
 2112SOL     OW 7776   3.078   2.571   9.025 -0.5619 -0.1042  0.1648
 2112SOL    HW1 7777   3.065   2.506   8.956 -2.6559 -0.0244  0.4348
 2112SOL    HW2 7778   3.097   2.652   8.978 -0.7950 -0.3033 -0.2784
 2113SOL     OW 7779   7.143   0.352   7.112 -0.0837 -0.0448 -0.5882
 2113SOL    HW1 7780   7.058   0.365   7.069 -0.2571 -1.4244 -0.6932
 2113SOL    HW2 7781   7.206   0.393   7.053 -0.4877 -0.6376 -1.4508
 2114SOL     OW 7782   1.414   6.398   5.298 -0.2686  0.1592 -0.2701
 2114SOL    HW1 7783   1.385   6.312   5.330  1.0658 -0.6227 -1.0494
 2114SOL    HW2 7784   1.487   6.378   5.239 -1.6531  1.6410 -2.6151
 2115SOL     OW 7785   1.885   4.882   1.657 -0.1810 -0.1983  0.5675
 2115SOL    HW1 7786   1.871   4.836   1.740 -0.8813  1.3163  1.3108
 2115SOL    HW2 7787   1.883   4.975   1.679  0.6105  0.2394 -1.0006
 2116SOL     OW 7788   4.004   3.598   4.870  0.0628  0.5224 -0.0860
 2116SOL    HW1 7789   3.956   3.657   4.928 -0.4142  0.6492 -0.5953
 2116SOL    HW2 7790   4.047   3.536   4.929  1.4781  2.0281  0.5078
 2117SOL     OW 7791   4.195   0.515  10.996 -0.3694  0.1405  0.5754
 2117SOL    HW1 7792   4.269   0.481  11.047  1.0746  2.1962 -0.0468
 2117SOL    HW2 7793   4.235   0.569  10.928 -2.4503  1.0467 -0.0074
 2118SOL     OW 7794   7.965   4.478   8.823  0.0063  0.1519  0.9108
 2118SOL    HW1 7795   8.033   4.438   8.877  0.1909  0.5950  1.0157
 2118SOL    HW2 7796   8.011   4.548   8.776  0.3524 -1.6000 -1.5137
 2119SOL     OW 7797   3.024   1.170   6.904  0.2568 -0.7039 -0.8300
 2119SOL    HW1 7798   2.978   1.213   6.831  0.5442  0.7440 -0.2023
 2119SOL    HW2 7799   3.104   1.221   6.914 -1.5748  1.8732  3.0912
 2120SOL     OW 7800   5.114   1.523   1.160  0.0096  0.0918  0.7174
 2120SOL    HW1 7801   5.090   1.573   1.083 -0.4273 -0.3870  0.5360
 2120SOL    HW2 7802   5.055   1.553   1.229  0.6024  0.7392  0.9579
 2121SOL     OW 7803   0.546   2.436   3.610  0.0839  0.2199 -0.2291
 2121SOL    HW1 7804   0.483   2.508   3.607  0.8174  0.8346 -2.1152
 2121SOL    HW2 7805   0.611   2.457   3.543  1.9467 -0.7400  1.1850
 2122SOL     OW 7806   4.950   2.650   4.714 -0.6639 -0.0022  0.0481
 2122SOL    HW1 7807   4.930   2.656   4.807 -0.9401  0.4183 -0.0372
 2122SOL    HW2 7808   4.898   2.576   4.682  0.9791 -1.4812  0.6300
 2123SOL     OW 7809   3.667   0.114   0.414 -0.0218  0.4280 -0.0674
 2123SOL    HW1 7810   3.576   0.123   0.443 -1.0697 -2.9138 -1.7739
 2123SOL    HW2 7811   3.717   0.105   0.495 -1.4706  0.6531  0.8941
 2124SOL     OW 7812   4.712   3.915   2.645 -0.0963  0.7908  0.4079
 2124SOL    HW1 7813   4.715   3.825   2.678  1.5621  0.1895 -1.2467
 2124SOL    HW2 7814   4.640   3.914   2.582 -0.3071  0.7261  0.6466
 2125SOL     OW 7815   4.150   6.686   8.636 -0.2579  0.5815 -0.0869
 2125SOL    HW1 7816   4.172   6.644   8.553  1.0326 -1.0855  1.0329
 2125SOL    HW2 7817   4.057   6.706   8.629 -0.3546 -0.2755 -1.6107
 2126SOL     OW 7818   6.382   4.085   3.832  0.1491 -0.0436 -0.0492
 2126SOL    HW1 7819   6.456   4.133   3.870  1.1550 -0.7060 -1.1093
 2126SOL    HW2 7820   6.307   4.113   3.884  0.7899  2.1682 -0.1895
 2127SOL     OW 7821   3.889   6.793   8.594  0.2530 -0.2846  0.1438
 2127SOL    HW1 7822   3.828   6.728   8.559  1.1288 -1.2484  0.3598
 2127SOL    HW2 7823   3.941   6.821   8.519  0.7630 -0.8422  0.2741
 2128SOL     OW 7824   3.466   3.230   9.616 -0.3522  0.3563  0.3410
 2128SOL    HW1 7825   3.393   3.230   9.677 -1.0180 -0.4062 -0.4376
 2128SOL    HW2 7826   3.519   3.154   9.640 -1.1634 -0.5535 -0.6369
 2129SOL     OW 7827   6.423   0.655   6.486 -0.0346 -0.2537 -0.0520
 2129SOL    HW1 7828   6.406   0.699   6.570 -0.9740 -0.1793 -0.2645
 2129SOL    HW2 7829   6.464   0.572   6.510 -0.6282 -0.3941  0.5114
 2130SOL     OW 7830   6.786   0.953   2.603 -0.2549 -0.8050  0.3360
 2130SOL    HW1 7831   6.795   1.012   2.528  0.3978 -1.5078 -0.1569
 2130SOL    HW2 7832   6.751   1.008   2.673  1.2014  0.4066  0.1814
 2131SOL     OW 7833   6.779   5.325   2.163 -0.2739 -0.7018  0.1969
 2131SOL    HW1 7834   6.714   5.353   2.227  1.5188  1.9707  0.9956
 2131SOL    HW2 7835   6.855   5.297   2.215  1.6593  2.6083 -0.5490
 2132SOL     OW 7836   5.189   2.002   1.202 -0.2013  0.0636  0.1857
 2132SOL    HW1 7837   5.265   2.019   1.257 -0.2137 -1.6224  0.7962
 2132SOL    HW2 7838   5.114   2.026   1.256 -0.2434 -2.0861  1.2252
 2133SOL     OW 7839   7.159   7.762   0.396  0.1097  0.2465 -0.2564
 2133SOL    HW1 7840   7.155   7.847   0.352 -1.1619  2.3749  3.4762
 2133SOL    HW2 7841   7.251   7.737   0.391 -0.0559 -0.1748 -4.6294
 2134SOL     OW 7842   6.735   7.413   6.468  0.0517  0.1681  0.3419
 2134SOL    HW1 7843   6.754   7.412   6.374 -1.2484  2.8601 -0.0594
 2134SOL    HW2 7844   6.818   7.436   6.509  0.5478 -0.6857 -0.1647
 2135SOL     OW 7845   6.110   6.950   8.495  0.0196  0.5751 -0.0981
 2135SOL    HW1 7846   6.169   6.877   8.514 -1.3114 -0.4553  0.2440
 2135SOL    HW2 7847   6.134   6.978   8.407 -0.7382 -1.6321 -1.0896
 2136SOL     OW 7848   4.266   1.195  10.143  0.1191  0.6926  0.3161
 2136SOL    HW1 7849   4.210   1.220  10.216  1.9624  1.8378  1.4149
 2136SOL    HW2 7850   4.322   1.126  10.178 -0.0774  0.0897 -0.5308
 2137SOL     OW 7851   2.742   0.319   7.687  0.4555  0.0040  0.0531
 2137SOL    HW1 7852   2.699   0.260   7.626  3.0569 -0.1957 -1.7230
 2137SOL    HW2 7853   2.719   0.407   7.655  2.2288 -0.0868 -1.6970
 2138SOL     OW 7854   3.348   7.324   0.236 -0.4467  0.4142 -0.2342
 2138SOL    HW1 7855   3.283   7.391   0.257 -0.1847  0.7887 -0.6083
 2138SOL    HW2 7856   3.312   7.244   0.273 -0.1107  1.0038  1.4682
 2139SOL     OW 7857   6.337   5.798   7.200 -0.7668  0.0389  0.3989
 2139SOL    HW1 7858   6.414   5.854   7.190 -0.7685  0.2426  1.3968
 2139SOL    HW2 7859   6.338   5.772   7.293 -2.0340  0.2637  0.4941
 2140SOL     OW 7860   1.543   3.368   8.684  0.0022  0.3722 -0.0214
 2140SOL    HW1 7861   1.482   3.425   8.731 -1.3106 -1.1348  0.1891
 2140SOL    HW2 7862   1.630   3.401   8.707 -0.6074  0.2886  2.7314
 2141SOL     OW 7863   6.332   0.897   5.345 -0.4849  0.1809 -0.0100
 2141SOL    HW1 7864   6.425   0.875   5.335 -0.6840 -0.4495 -0.4930
 2141SOL    HW2 7865   6.298   0.901   5.255 -0.4895  2.3953  0.0280
 2142SOL     OW 7866   7.168   1.047   2.467  0.5094  0.5233  0.1252
 2142SOL    HW1 7867   7.182   1.050   2.562  0.1154  1.1795  0.1697
 2142SOL    HW2 7868   7.109   1.121   2.449  0.3249  0.2119 -0.5872
 2143SOL     OW 7869   5.972   2.046  11.259  0.1179  0.0423 -0.0592
 2143SOL    HW1 7870   5.958   2.131  11.218  1.4659  0.2164 -0.2106
 2143SOL    HW2 7871   5.888   2.001  11.251 -0.6668  1.4252  0.2080
 2144SOL     OW 7872   7.902   6.273   0.493  1.0304 -0.0112  0.7232
 2144SOL    HW1 7873   7.903   6.178   0.501  0.4239 -0.0440  0.4774
 2144SOL    HW2 7874   7.860   6.289   0.408  0.6050  0.4861  1.0255
 2145SOL     OW 7875   7.586   3.910   0.637 -0.0186 -0.0440 -0.5779
 2145SOL    HW1 7876   7.572   3.824   0.598  2.9980 -0.6402 -0.6270
 2145SOL    HW2 7877   7.671   3.938   0.602 -0.7277  2.8053 -0.2468
 2146SOL     OW 7878   1.555   1.667   0.287 -0.5682  0.5836 -0.1694
 2146SOL    HW1 7879   1.604   1.668   0.370 -0.1208  0.5078 -0.4304
 2146SOL    HW2 7880   1.620   1.641   0.222 -1.1676 -0.4422 -0.3821
 2147SOL     OW 7881   3.206   7.771   3.029 -0.2835 -0.2797  0.4829
 2147SOL    HW1 7882   3.218   7.677   3.012 -2.2836 -0.5311  0.2093
 2147SOL    HW2 7883   3.260   7.788   3.106  0.2774 -1.6180  0.4175
 2148SOL     OW 7884   0.183   2.216   2.098 -0.4238  0.3877  0.4319
 2148SOL    HW1 7885   0.261   2.248   2.143 -0.1082  1.4440 -0.8134
 2148SOL    HW2 7886   0.139   2.295   2.067 -2.1388 -0.1712  1.2844
 2149SOL     OW 7887   6.221   2.664   7.301  0.8611 -0.5173 -0.6680
 2149SOL    HW1 7888   6.229   2.751   7.339 -1.4361 -0.1736 -0.8293
 2149SOL    HW2 7889   6.300   2.652   7.249  1.6227  1.0947  0.0714
 2150SOL     OW 7890   7.499   0.769   1.047 -0.2663 -0.3354  0.2411
 2150SOL    HW1 7891   7.549   0.780   0.966  0.2321  0.5392  0.6500
 2150SOL    HW2 7892   7.520   0.846   1.099 -1.5025 -0.3008  0.7267
 2151SOL     OW 7893   6.183   2.289   6.077  0.1870  0.0104 -0.5225
 2151SOL    HW1 7894   6.093   2.312   6.056 -0.4525 -0.0682  1.7914
 2151SOL    HW2 7895   6.185   2.193   6.070  0.5295  0.1018 -1.9848
 2152SOL     OW 7896   3.039   7.311   8.634 -0.6917  0.4602  0.2380
 2152SOL    HW1 7897   3.057   7.265   8.716 -1.7066 -0.1558  0.1464
 2152SOL    HW2 7898   3.124   7.338   8.602 -0.1557 -0.4369  0.8479
 2153SOL     OW 7899   4.863   1.296   8.252 -0.0423  0.0690 -0.1574
 2153SOL    HW1 7900   4.818   1.278   8.335 -0.0732  0.4573 -0.0894
 2153SOL    HW2 7901   4.839   1.386   8.230  1.5534  0.6619  0.4064
 2154SOL     OW 7902   3.642   6.461  11.004 -0.2327 -0.1171  0.2969
 2154SOL    HW1 7903   3.734   6.477  11.025 -0.2811  1.0505 -0.2954
 2154SOL    HW2 7904   3.643   6.403  10.929 -0.0030 -0.8791  0.8784
 2155SOL     OW 7905   3.687   1.756   9.106 -0.1444  0.0486  0.0845
 2155SOL    HW1 7906   3.600   1.741   9.141 -0.2185 -0.3879 -0.2792
 2155SOL    HW2 7907   3.734   1.800   9.177 -0.0395 -1.5519  1.0620
 2156SOL     OW 7908   2.009   3.712   8.962 -0.0385 -0.8078 -0.0909
 2156SOL    HW1 7909   2.099   3.726   8.992  0.2262  2.3194 -1.8655
 2156SOL    HW2 7910   2.006   3.621   8.933  3.0694 -0.5998 -1.4118
 2157SOL     OW 7911   3.705   2.096   1.445 -0.2960 -0.0116  0.1617
 2157SOL    HW1 7912   3.783   2.137   1.409 -1.3588  1.1116 -0.9668
 2157SOL    HW2 7913   3.636   2.115   1.381 -1.5697 -0.6865  1.2761
 2158SOL     OW 7914   1.708   2.976  10.169  0.0745 -0.3975  0.2606
 2158SOL    HW1 7915   1.747   3.025  10.241  2.2388 -0.5078 -0.7722
 2158SOL    HW2 7916   1.742   3.019  10.090 -1.9473 -0.5018 -0.7288
 2159SOL     OW 7917   3.530   7.207  12.116  1.2046  0.1991 -0.1170
 2159SOL    HW1 7918   3.560   7.242  12.200 -0.0945 -1.0862  0.9424
 2159SOL    HW2 7919   3.599   7.146  12.090  1.7378  0.7987 -0.1291
 2160SOL     OW 7920   3.891   6.625  11.020  0.6688  0.6017  0.5346
 2160SOL    HW1 7921   3.911   6.662  11.105  0.0925  0.0455  0.9193
 2160SOL    HW2 7922   3.854   6.698  10.970  2.3045  1.2873  0.2750
 2161SOL     OW 7923   4.815   7.315   1.501 -0.3528  0.3015  0.5523
 2161SOL    HW1 7924   4.866   7.237   1.524  1.1066  1.3119  0.8714
 2161SOL    HW2 7925   4.772   7.292   1.418  1.6821 -0.1401 -0.4364
 2162SOL     OW 7926   2.980   4.505   6.170 -0.0601  0.3147  0.1248
 2162SOL    HW1 7927   2.939   4.476   6.251  1.8646 -1.5709  0.5157
 2162SOL    HW2 7928   2.980   4.428   6.114  0.6142  0.9707 -0.8236
 2163SOL     OW 7929   7.038   4.707   3.232 -0.0918  0.1013 -0.3325
 2163SOL    HW1 7930   6.943   4.710   3.245 -0.2682  1.6061 -1.5625
 2163SOL    HW2 7931   7.074   4.718   3.320 -0.9569 -3.4786  0.6035
 2164SOL     OW 7932   3.955   1.345   1.245  0.4410  0.2419 -0.2080
 2164SOL    HW1 7933   3.970   1.439   1.235 -0.2360  0.2710 -1.1558
 2164SOL    HW2 7934   3.907   1.336   1.328 -0.4876  0.8671 -0.6539
 2165SOL     OW 7935   0.186   1.842   7.472 -0.4638  0.3997  0.1950
 2165SOL    HW1 7936   0.098   1.876   7.457 -0.8856 -0.1864  1.2061
 2165SOL    HW2 7937   0.237   1.872   7.397 -1.2083  1.8163  0.2270
 2166SOL     OW 7938   0.505   1.865   3.588  0.0691  0.0440  0.1795
 2166SOL    HW1 7939   0.517   1.960   3.587 -1.2618  0.2568  1.4760
 2166SOL    HW2 7940   0.424   1.851   3.539 -0.8513 -0.2140  1.7350
 2167SOL     OW 7941   2.073   1.925   2.602  0.4369  0.1591 -0.0002
 2167SOL    HW1 7942   2.042   1.885   2.683  0.9591  0.4905  0.3773
 2167SOL    HW2 7943   2.065   1.857   2.536  1.0767 -0.4917  0.5769
 2168SOL     OW 7944   7.390   4.562   4.910 -0.5366 -0.4318 -0.0571
 2168SOL    HW1 7945   7.309   4.609   4.889  1.9877  4.6159  0.0015
 2168SOL    HW2 7946   7.425   4.535   4.825 -0.9413 -0.1466 -0.3160
 2169SOL     OW 7947   1.117   2.507   9.560  0.0663  0.1635  0.1583
 2169SOL    HW1 7948   1.167   2.448   9.617  0.0502 -1.7164 -1.6277
 2169SOL    HW2 7949   1.151   2.594   9.580  1.7461 -0.6872  1.3110
 2170SOL     OW 7950   4.077   6.330   2.457  0.0293  0.2193 -0.3985
 2170SOL    HW1 7951   3.993   6.372   2.437 -0.3088 -0.4929 -0.5215
 2170SOL    HW2 7952   4.079   6.324   2.552  0.3024  0.9536 -0.3558
 2171SOL     OW 7953   5.561   1.532   9.190  0.0193 -0.0187  0.4549
 2171SOL    HW1 7954   5.545   1.626   9.199 -1.1777 -0.2877  1.3708
 2171SOL    HW2 7955   5.580   1.520   9.097  0.3915  1.1554  0.3654
 2172SOL     OW 7956   3.185   2.864   4.970 -0.2588 -0.3320 -0.0393
 2172SOL    HW1 7957   3.172   2.885   5.063 -2.1882 -1.1477 -0.0738
 2172SOL    HW2 7958   3.097   2.869   4.932  0.5632  0.5367 -1.9705
 2173SOL     OW 7959   3.255   0.880  11.380  0.2331 -0.3800  0.1883
 2173SOL    HW1 7960   3.346   0.865  11.357  0.1333 -1.1510  0.2917
 2173SOL    HW2 7961   3.207   0.810  11.337 -0.4276  0.5341 -0.6286
 2174SOL     OW 7962   7.697   6.719   1.116 -0.7463 -0.8619 -0.0195
 2174SOL    HW1 7963   7.635   6.782   1.079 -1.2792 -0.4320  1.5458
 2174SOL    HW2 7964   7.642   6.657   1.165  0.0511 -0.3665  1.5543
 2175SOL     OW 7965   7.498   5.428   8.695 -0.1397  0.3385 -0.0696
 2175SOL    HW1 7966   7.473   5.383   8.615 -0.6707  0.4981 -0.0032
 2175SOL    HW2 7967   7.528   5.515   8.666 -1.3519  0.7936 -0.0286
 2176SOL     OW 7968   6.173   6.956   9.753  0.0074 -0.2368  0.2857
 2176SOL    HW1 7969   6.263   6.979   9.730 -0.3562  1.3332  0.3355
 2176SOL    HW2 7970   6.183   6.898   9.829  1.0303 -2.0323 -1.1394
 2177SOL     OW 7971   6.163   5.401  12.124 -0.6719 -0.5369  0.3139
 2177SOL    HW1 7972   6.082   5.390  12.173 -0.6580 -0.4056  0.3651
 2177SOL    HW2 7973   6.228   5.352  12.174 -0.6091 -0.2144  0.5448
 2178SOL     OW 7974   5.746   1.649   0.698 -0.2633 -0.3318 -0.1739
 2178SOL    HW1 7975   5.650   1.647   0.699 -0.2541 -1.6158 -0.3016
 2178SOL    HW2 7976   5.769   1.653   0.606 -0.1761  2.6540 -0.1135
 2179SOL     OW 7977   4.493   3.992   3.134  0.5116  0.4925 -0.3762
 2179SOL    HW1 7978   4.500   4.067   3.192 -0.2225  0.6321 -0.4513
 2179SOL    HW2 7979   4.571   3.996   3.079  1.4937  0.0510  0.9343
 2180SOL     OW 7980   4.323   2.456   1.985 -0.4332  0.6812  0.2092
 2180SOL    HW1 7981   4.362   2.494   2.065  1.5576  1.0926 -0.8908
 2180SOL    HW2 7982   4.306   2.532   1.929  0.0829  0.2506 -0.5435
 2181SOL     OW 7983   0.598   1.608   3.519 -0.5736  0.3702 -0.2631
 2181SOL    HW1 7984   0.567   1.697   3.535  1.5107  0.8065  1.9772
 2181SOL    HW2 7985   0.592   1.565   3.604 -1.2838 -1.5948 -1.2456
 2182SOL     OW 7986   7.452   6.128  10.800  0.5264  0.3843 -0.4563
 2182SOL    HW1 7987   7.527   6.119  10.742  1.4105  1.2586  0.5056
 2182SOL    HW2 7988   7.482   6.186  10.870 -1.7909  2.9025 -1.3552
 2183SOL     OW 7989   4.716   6.040   7.240 -0.5841 -0.1966 -0.0653
 2183SOL    HW1 7990   4.808   6.014   7.248 -0.9915 -1.6469  0.2559
 2183SOL    HW2 7991   4.711   6.088   7.158 -0.0224 -2.4698 -1.5258
 2184SOL     OW 7992   0.161   4.471   2.511  0.4171 -0.2866 -0.5168
 2184SOL    HW1 7993   0.225   4.424   2.457  1.6727 -0.1821  0.8343
 2184SOL    HW2 7994   0.165   4.428   2.596 -1.0255  0.0108 -0.2757
 2185SOL     OW 7995   2.564   6.327  12.265  0.2156 -0.0154  0.3978
 2185SOL    HW1 7996   2.649   6.358  12.295  1.9400 -1.5619 -2.4656
 2185SOL    HW2 7997   2.576   6.234  12.249 -1.2011  0.1714 -2.4571
 2186SOL     OW 7998   1.551   3.923   0.456  0.4275 -0.4939 -0.4414
 2186SOL    HW1 7999   1.612   3.953   0.524  0.4698 -2.1586  0.2868
 2186SOL    HW2 8000   1.580   3.969   0.377  0.2057  1.7118  0.6736
 2187SOL     OW 8001   4.117   5.436   0.871  0.0587 -0.1186 -0.1422
 2187SOL    HW1 8002   4.126   5.530   0.887  1.0405 -0.3591  0.8699
 2187SOL    HW2 8003   4.139   5.395   0.955 -0.5476 -1.2443 -0.5162
 2188SOL     OW 8004   7.084   0.514   4.358 -0.2971 -0.1075 -0.0888
 2188SOL    HW1 8005   7.060   0.483   4.270 -0.8579 -0.1786  0.0860
 2188SOL    HW2 8006   7.097   0.433   4.408 -0.0791 -0.0668 -0.0817
 2189SOL     OW 8007   0.075   6.814   0.541 -0.1716  0.0412  0.1917
 2189SOL    HW1 8008   0.037   6.769   0.616  0.2666 -0.3792  0.1654
 2189SOL    HW2 8009   0.057   6.907   0.556 -2.1385 -0.2068 -0.3273
 2190SOL     OW 8010   6.559   4.309   5.211 -0.2842  0.0496  0.5106
 2190SOL    HW1 8011   6.639   4.308   5.160 -0.0252  1.9522  0.8189
 2190SOL    HW2 8012   6.561   4.227   5.261  0.4100 -0.9046 -1.0346
 2191SOL     OW 8013   6.018   2.554   7.854 -0.6455  0.1925  0.2981
 2191SOL    HW1 8014   6.011   2.649   7.844 -0.7393  0.0577 -1.2471
 2191SOL    HW2 8015   5.931   2.526   7.880 -0.7385  0.4877  0.3118
 2192SOL     OW 8016   2.622   7.148   1.626 -0.2593  0.0457 -0.2278
 2192SOL    HW1 8017   2.577   7.171   1.708 -0.5169 -0.3365 -0.2605
 2192SOL    HW2 8018   2.594   7.059   1.607  0.3096 -0.1056 -0.3927
 2193SOL     OW 8019   0.393   5.433   4.341  0.6353  0.9766  0.3596
 2193SOL    HW1 8020   0.338   5.403   4.270  2.9085  1.4269 -1.7310
 2193SOL    HW2 8021   0.386   5.528   4.340  1.8848  1.0773 -0.3488
 2194SOL     OW 8022   1.377   6.286   4.271  0.2342 -0.1398 -0.3498
 2194SOL    HW1 8023   1.348   6.296   4.180 -2.4785 -1.0551  0.3322
 2194SOL    HW2 8024   1.392   6.193   4.282  1.8630  0.1119 -0.1666
 2195SOL     OW 8025   1.849   3.951   2.808 -0.2241 -0.0635  0.1186
 2195SOL    HW1 8026   1.873   3.862   2.836  0.7466  0.7620  2.0762
 2195SOL    HW2 8027   1.914   3.974   2.741 -0.8791 -1.0383 -0.8895
 2196SOL     OW 8028   7.142   4.606   8.197  0.1439  0.4888  0.1682
 2196SOL    HW1 8029   7.079   4.677   8.182  0.2928  0.7316  0.6607
 2196SOL    HW2 8030   7.226   4.652   8.209  0.3978  0.1760 -0.3798
 2197SOL     OW 8031   5.373   2.068   3.168 -0.1848  0.0649 -0.6488
 2197SOL    HW1 8032   5.373   2.151   3.215 -0.6514 -0.3428  0.1069
 2197SOL    HW2 8033   5.299   2.020   3.205  0.5037 -0.9606 -0.5439
 2198SOL     OW 8034   7.200   4.030   5.689 -0.5904 -0.1852  0.2576
 2198SOL    HW1 8035   7.143   3.996   5.758 -2.0469  1.0810 -0.2695
 2198SOL    HW2 8036   7.276   4.064   5.736 -1.1325 -0.1792  1.1643
 2199SOL     OW 8037   2.182   4.613   8.829  0.5994  0.1714 -0.1546
 2199SOL    HW1 8038   2.246   4.542   8.826 -0.4462 -0.9013  1.2577
 2199SOL    HW2 8039   2.098   4.568   8.838 -0.1882  1.5753 -0.3243
 2200SOL     OW 8040   0.604   4.248   3.601  0.8234 -0.0310 -0.2866
 2200SOL    HW1 8041   0.558   4.323   3.637  0.3004  0.1341 -1.2545
 2200SOL    HW2 8042   0.651   4.210   3.675  0.1822  0.5785  0.4416
 2201SOL     OW 8043   3.848   3.560   1.561  0.1524  0.8393 -0.5404
 2201SOL    HW1 8044   3.838   3.651   1.589  1.6606  0.3159  2.0691
 2201SOL    HW2 8045   3.761   3.535   1.530 -1.5699  1.9590  2.8550
 2202SOL     OW 8046   1.775   4.967   6.891 -0.3666  0.3795 -0.4249
 2202SOL    HW1 8047   1.721   4.915   6.951  0.9954  0.3446  0.8292
 2202SOL    HW2 8048   1.717   5.038   6.863 -1.2984 -0.0834  0.2772
 2203SOL     OW 8049   5.607   5.970  10.324 -0.5224  0.0194  0.1663
 2203SOL    HW1 8050   5.535   5.954  10.263 -0.8785  1.9383  0.0210
 2203SOL    HW2 8051   5.590   5.911  10.397 -1.1203 -0.9787 -0.7626
 2204SOL     OW 8052   7.275   1.278   4.949 -0.0162  0.0325 -0.1768
 2204SOL    HW1 8053   7.326   1.215   5.001 -1.6052 -0.0834  1.3408
 2204SOL    HW2 8054   7.341   1.328   4.901  1.3929 -1.6367 -0.1029
 2205SOL     OW 8055   2.637   2.260  12.465  0.0976 -0.2303 -0.4228
 2205SOL    HW1 8056   2.707   2.324  12.469 -0.9674  0.9378  0.9474
 2205SOL    HW2 8057   2.680   2.176  12.482  0.8725  0.7548  3.3878
 2206SOL     OW 8058   6.337   1.767   4.246  0.4491 -0.2497 -0.1920
 2206SOL    HW1 8059   6.276   1.694   4.255  2.7022 -2.1003  1.1104
 2206SOL    HW2 8060   6.374   1.756   4.158  0.0549 -0.0944 -0.3753
 2207SOL     OW 8061   1.423   4.904   0.006  0.3084  0.7809 -0.6347
 2207SOL    HW1 8062   1.373   4.839   0.055  0.2949  0.2036 -1.4103
 2207SOL    HW2 8063   1.511   4.900   0.044  0.1087  0.8842 -0.1460
 2208SOL     OW 8064   0.825   5.436   8.651  0.3337 -0.1723  0.2475
 2208SOL    HW1 8065   0.780   5.365   8.604  0.6685  0.6425 -1.3849
 2208SOL    HW2 8066   0.918   5.418   8.640  0.4500 -0.8861  2.1045
 2209SOL     OW 8067   0.605   4.167   3.319 -0.6081  0.2424  0.2113
 2209SOL    HW1 8068   0.612   4.253   3.278  3.4750  0.4196  0.8962
 2209SOL    HW2 8069   0.624   4.182   3.411  0.3978 -1.3785  0.3201
 2210SOL     OW 8070   4.571   0.482   1.654 -0.1056 -0.4100 -0.3073
 2210SOL    HW1 8071   4.629   0.473   1.579 -4.2672 -1.0539 -3.8012
 2210SOL    HW2 8072   4.558   0.393   1.686  0.8335 -0.2494  0.5791
 2211SOL     OW 8073   5.315   6.653   5.321 -0.0079  0.5535 -0.3096
 2211SOL    HW1 8074   5.400   6.647   5.277 -0.3106  0.1945 -0.8504
 2211SOL    HW2 8075   5.314   6.741   5.358  0.9422  0.2805  0.4139
 2212SOL     OW 8076   1.989   7.568   2.572 -0.4183  0.3349 -0.2666
 2212SOL    HW1 8077   1.973   7.498   2.636  1.7330  0.6601  0.7051
 2212SOL    HW2 8078   1.902   7.588   2.537 -1.2787 -1.8587  0.4189
 2213SOL     OW 8079   1.617   4.125   3.499  0.0581  0.4152  0.3281
 2213SOL    HW1 8080   1.642   4.072   3.575  0.6754 -0.0947 -0.2113
 2213SOL    HW2 8081   1.575   4.203   3.536 -2.1674 -1.0693  1.1114
 2214SOL     OW 8082   6.461   6.810   1.730 -0.1494  0.2322 -0.4638
 2214SOL    HW1 8083   6.408   6.885   1.755  0.6391  0.5248  0.3759
 2214SOL    HW2 8084   6.448   6.802   1.635  0.9938  2.4291 -0.8661
 2215SOL     OW 8085   4.492   2.065  11.180  0.2837 -0.3077  0.2580
 2215SOL    HW1 8086   4.585   2.069  11.201  0.3398 -1.5642  0.3264
 2215SOL    HW2 8087   4.450   2.036  11.261 -0.2489  0.7600  0.3858
 2216SOL     OW 8088   2.746   6.701   5.790  0.3061 -0.1486  0.0313
 2216SOL    HW1 8089   2.738   6.775   5.730 -1.4049  0.7672  1.2852
 2216SOL    HW2 8090   2.804   6.639   5.745 -1.4232  0.1518 -2.8651
 2217SOL     OW 8091   1.649   7.419   5.936 -0.0417 -0.5994 -0.1089
 2217SOL    HW1 8092   1.622   7.348   5.995 -1.2466  0.0961  0.2174
 2217SOL    HW2 8093   1.580   7.485   5.945  0.9555  0.5400 -0.5391
 2218SOL     OW 8094   1.401   6.481   4.911  0.4443  0.6760 -0.6836
 2218SOL    HW1 8095   1.413   6.540   4.986 -1.2178 -0.3088  0.4392
 2218SOL    HW2 8096   1.317   6.508   4.874  0.4504  0.0570 -1.1547
 2219SOL     OW 8097   7.729   2.078  11.363  0.0951 -0.2788  0.1677
 2219SOL    HW1 8098   7.638   2.051  11.360  0.1480 -0.4818  0.3790
 2219SOL    HW2 8099   7.728   2.171  11.339 -0.3522  0.1632  1.7505
 2220SOL     OW 8100   1.913   4.476   7.078 -0.3005 -0.3452 -0.3353
 2220SOL    HW1 8101   1.925   4.383   7.094  2.2503 -0.3120 -1.5369
 2220SOL    HW2 8102   1.913   4.516   7.165  0.7507 -1.2774  0.1151
 2221SOL     OW 8103   6.259   1.484   2.548  0.2744  0.4540 -0.2594
 2221SOL    HW1 8104   6.333   1.516   2.599  1.0445  0.5117 -1.3770
 2221SOL    HW2 8105   6.298   1.426   2.482 -0.9241 -1.6518  0.7633
 2222SOL     OW 8106   1.628   6.431   3.941  0.0204 -0.1594 -0.0376
 2222SOL    HW1 8107   1.550   6.486   3.953 -0.7077 -1.0524 -0.4851
 2222SOL    HW2 8108   1.687   6.485   3.888  0.1435  0.9149  1.1518
 2223SOL     OW 8109   0.652   4.696   8.834 -0.1016 -0.2094  0.1019
 2223SOL    HW1 8110   0.616   4.740   8.912 -0.5498 -0.4012  0.0052
 2223SOL    HW2 8111   0.728   4.648   8.867 -0.3108 -0.3189  0.4329
 2224SOL     OW 8112   3.896   1.124   4.342 -0.0856 -0.4350  0.2157
 2224SOL    HW1 8113   3.811   1.169   4.346  0.2692  0.2953 -0.3363
 2224SOL    HW2 8114   3.884   1.055   4.277 -0.9740 -1.9104  1.8648
 2225SOL     OW 8115   3.604   7.136   9.116 -0.5755 -0.4505  1.1316
 2225SOL    HW1 8116   3.684   7.161   9.161 -0.3435  0.1827  0.3945
 2225SOL    HW2 8117   3.537   7.195   9.151 -0.2476  0.5394  0.1652
 2226SOL     OW 8118   7.924   6.567  10.232 -0.3098 -0.1059 -0.4905
 2226SOL    HW1 8119   8.020   6.569  10.235 -0.2388  0.4101  4.2027
 2226SOL    HW2 8120   7.904   6.489  10.180  2.6043 -0.4014 -1.3830
 2227SOL     OW 8121   4.383   0.271  11.616 -0.9420  0.1499 -0.4407
 2227SOL    HW1 8122   4.345   0.349  11.656  0.0447  0.5849 -0.3405
 2227SOL    HW2 8123   4.370   0.202  11.681  1.6951  1.0875  1.2440
 2228SOL     OW 8124   4.858   3.195   4.491  0.1724 -0.5730  0.0382
 2228SOL    HW1 8125   4.891   3.262   4.552  0.8963 -0.9194  0.0483
 2228SOL    HW2 8126   4.915   3.119   4.507  0.8147 -0.4580 -1.5365
 2229SOL     OW 8127   5.449   7.120   7.428 -0.2375  0.2273 -0.2601
 2229SOL    HW1 8128   5.459   7.040   7.377  0.3333 -0.5676  1.0534
 2229SOL    HW2 8129   5.527   7.124   7.484 -1.3376  0.4639  1.3393
 2230SOL     OW 8130   5.021   6.817   2.142  0.7286 -0.0375 -0.0524
 2230SOL    HW1 8131   5.086   6.751   2.166  0.3378 -1.3276 -2.2417
 2230SOL    HW2 8132   4.940   6.768   2.133  0.4681  0.6522 -1.9476
 2231SOL     OW 8133   5.339   3.322   0.361  0.5068  0.2779  0.2641
 2231SOL    HW1 8134   5.349   3.227   0.366  0.3641  0.3180  1.8181
 2231SOL    HW2 8135   5.429   3.356   0.361  0.5495  0.1669  0.4928
 2232SOL     OW 8136   6.649   1.478   6.469  0.6095  0.1625 -0.2335
 2232SOL    HW1 8137   6.592   1.539   6.517  0.3810  1.2993 -1.8704
 2232SOL    HW2 8138   6.636   1.394   6.513 -1.0793  0.7389  0.4629
 2233SOL     OW 8139   4.641   6.041   4.777  0.2292  0.3199 -0.4715
 2233SOL    HW1 8140   4.575   6.046   4.847  0.0121  0.0664 -0.6554
 2233SOL    HW2 8141   4.638   5.950   4.748 -0.5071  0.6808 -1.5973
 2234SOL     OW 8142   0.745   5.055   6.917 -0.1266  0.1314 -0.4232
 2234SOL    HW1 8143   0.693   5.134   6.902  0.6521  0.5724 -0.8680
 2234SOL    HW2 8144   0.709   4.991   6.854 -1.1494 -0.0766  0.3443
 2235SOL     OW 8145   6.605   1.074   1.513  0.4112 -0.1445 -0.0766
 2235SOL    HW1 8146   6.523   1.110   1.480  0.4103 -0.9839 -1.0557
 2235SOL    HW2 8147   6.653   1.150   1.545  0.1061  0.6484 -1.4057
 2236SOL     OW 8148   2.017   6.325   0.159  0.2743  0.7871  0.0840
 2236SOL    HW1 8149   1.988   6.388   0.093  0.4536 -1.3449 -2.1651
 2236SOL    HW2 8150   1.950   6.257   0.160  1.1300 -0.0872  0.8475
 2237SOL     OW 8151   2.994   4.988   2.864 -0.5695  0.7640  0.0170
 2237SOL    HW1 8152   2.918   5.024   2.819  0.1665  1.6621 -0.5577
 2237SOL    HW2 8153   3.007   5.046   2.940  0.4306  1.5720 -0.7370
 2238SOL     OW 8154   7.351   7.096   1.329  0.5989  0.3877  0.7002
 2238SOL    HW1 8155   7.413   7.066   1.262 -1.0216 -0.6132 -0.4274
 2238SOL    HW2 8156   7.328   7.185   1.303 -0.9091 -0.3961 -0.8257
 2239SOL     OW 8157   3.550   3.860   4.711 -0.0194 -0.5665 -0.4693
 2239SOL    HW1 8158   3.626   3.860   4.653 -1.1100 -1.0029 -1.9611
 2239SOL    HW2 8159   3.502   3.940   4.689 -1.7433 -1.9309 -2.0430
 2240SOL     OW 8160   6.727   5.644   4.523 -0.2855 -0.2364 -0.1379
 2240SOL    HW1 8161   6.688   5.723   4.561 -2.3628 -2.1974  2.2694
 2240SOL    HW2 8162   6.656   5.605   4.472  0.3416 -1.0917 -0.3829
 2241SOL     OW 8163   5.371   4.906   7.686  0.0789  0.0579  0.1457
 2241SOL    HW1 8164   5.442   4.844   7.700  0.7621  1.0836  1.4122
 2241SOL    HW2 8165   5.291   4.855   7.703  0.6422 -0.4208  1.5639
 2242SOL     OW 8166   0.206   7.442   3.896  0.1853  0.1890  0.2108
 2242SOL    HW1 8167   0.222   7.467   3.987 -0.6457 -2.5121  1.1983
 2242SOL    HW2 8168   0.117   7.406   3.897  0.5527 -0.8293 -1.4541
 2243SOL     OW 8169   4.566   7.942   1.102 -0.1139 -0.9277 -0.2825
 2243SOL    HW1 8170   4.500   7.895   1.050 -0.8471 -0.3712  0.1279
 2243SOL    HW2 8171   4.649   7.902   1.076 -0.4471 -0.6047 -1.9631
 2244SOL     OW 8172   1.419   2.389  10.235  0.0872 -0.1208  0.7709
 2244SOL    HW1 8173   1.433   2.306  10.189 -2.9788  0.4946 -1.6009
 2244SOL    HW2 8174   1.335   2.378  10.279 -0.4434  1.7121  0.3064
 2245SOL     OW 8175   6.588   0.782   2.444  0.8989 -0.6822 -0.0471
 2245SOL    HW1 8176   6.608   0.755   2.534 -1.1884  0.3558  0.8121
 2245SOL    HW2 8177   6.540   0.708   2.406  2.8471 -1.6199 -0.7803
 2246SOL     OW 8178   7.950   5.127   3.199 -0.3368  0.3126  0.1704
 2246SOL    HW1 8179   7.886   5.097   3.134  2.2494 -1.2305 -1.8715
 2246SOL    HW2 8180   7.957   5.221   3.182 -2.6813  0.7534  1.1502
 2247SOL     OW 8181   0.384   3.014   0.403  0.1129 -0.4331 -0.4210
 2247SOL    HW1 8182   0.340   3.065   0.471 -1.1997 -0.5805 -1.1252
 2247SOL    HW2 8183   0.476   3.040   0.409 -0.3519  1.2865 -0.1089
 2248SOL     OW 8184   3.294   6.711   0.115 -0.2053  0.4001  0.1664
 2248SOL    HW1 8185   3.332   6.714   0.027 -0.7138 -1.0408 -0.1277
 2248SOL    HW2 8186   3.327   6.790   0.158  0.1144  1.0887 -1.2827
 2249SOL     OW 8187   5.641   3.036   6.912 -0.0479 -0.4476  0.4239
 2249SOL    HW1 8188   5.603   3.114   6.871 -0.9449 -0.3090  1.4743
 2249SOL    HW2 8189   5.663   3.065   7.001  1.8470 -0.7423  0.0977
 2250SOL     OW 8190   3.468   6.990  12.315 -0.5800  1.3650  0.0111
 2250SOL    HW1 8191   3.477   7.053  12.387  1.5401  0.7553  0.3725
 2250SOL    HW2 8192   3.410   7.033  12.252  0.1691  3.3581  0.5937
 2251SOL     OW 8193   5.768   1.225   2.800 -0.5563 -0.1132  0.2239
 2251SOL    HW1 8194   5.784   1.294   2.864 -3.0309 -0.3434  1.2095
 2251SOL    HW2 8195   5.733   1.271   2.724  2.1162  0.1281 -0.9785
 2252SOL     OW 8196   5.796   5.679   4.051  0.0261  0.3621  0.0629
 2252SOL    HW1 8197   5.870   5.728   4.088  0.0181  0.3290  0.1243
 2252SOL    HW2 8198   5.827   5.648   3.967  0.7705 -1.2981  0.9040
 2253SOL     OW 8199   0.143   2.924   3.682 -0.1047 -0.0970  0.2995
 2253SOL    HW1 8200   0.229   2.887   3.664  0.1581  0.6850 -0.1275
 2253SOL    HW2 8201   0.145   3.010   3.640 -0.3585  0.7791  1.9952
 2254SOL     OW 8202   4.133   5.119   2.827  0.3753  0.4637  0.2771
 2254SOL    HW1 8203   4.134   5.203   2.779 -0.0696  0.7117  0.6894
 2254SOL    HW2 8204   4.051   5.078   2.799  0.5995  0.1590  0.0690
 2255SOL     OW 8205   7.687   2.439   6.346 -0.2380 -0.2421 -0.3538
 2255SOL    HW1 8206   7.598   2.447   6.312  0.3688  1.2783 -1.7155
 2255SOL    HW2 8207   7.712   2.528   6.369  1.3976 -0.4237 -1.2716
 2256SOL     OW 8208   0.664   5.191   5.848  0.2838 -0.2488 -0.0981
 2256SOL    HW1 8209   0.658   5.103   5.884  2.5495  0.4105  2.2595
 2256SOL    HW2 8210   0.757   5.210   5.845 -0.0831  1.7262 -1.5228
 2257SOL     OW 8211   4.460   6.348   0.109 -0.0968  0.5490 -0.1990
 2257SOL    HW1 8212   4.465   6.261   0.068  1.4049 -0.0772  1.2186
 2257SOL    HW2 8213   4.499   6.407   0.044  1.9276 -0.3784  0.0936
 2258SOL     OW 8214   1.740   2.912   6.890  0.1228  0.3280  0.4828
 2258SOL    HW1 8215   1.771   2.824   6.908 -0.6825  0.1387  0.9999
 2258SOL    HW2 8216   1.744   2.957   6.974 -1.2408  0.2128  0.6277
 2259SOL     OW 8217   4.184   3.338  12.454  0.0584  0.2454 -0.1387
 2259SOL    HW1 8218   4.230   3.416  12.421  1.6818  0.0921  1.5848
 2259SOL    HW2 8219   4.122   3.373  12.519  2.0028  0.0983  1.9452
 2260SOL     OW 8220   0.350   0.806   9.167  0.0546  0.2852 -0.0190
 2260SOL    HW1 8221   0.301   0.861   9.228 -1.8930 -0.9266 -0.4055
 2260SOL    HW2 8222   0.289   0.791   9.095  1.0741 -1.1262 -0.6182
 2261SOL     OW 8223   5.254   0.508   0.822  0.7435  0.1975  0.0231
 2261SOL    HW1 8224   5.337   0.484   0.779 -0.0613 -3.3907  0.1428
 2261SOL    HW2 8225   5.187   0.484   0.758 -0.2832  0.5508  0.9607
 2262SOL     OW 8226   7.238   6.442   3.481 -0.0473 -0.1669 -0.6887
 2262SOL    HW1 8227   7.172   6.509   3.464 -0.3482 -0.4767 -0.7568
 2262SOL    HW2 8228   7.244   6.393   3.399 -0.7144 -0.9896 -0.2579
 2263SOL     OW 8229   7.141   5.017   2.643 -0.2720  0.4363  0.5867
 2263SOL    HW1 8230   7.094   4.934   2.655 -2.6704  1.5252 -0.7243
 2263SOL    HW2 8231   7.136   5.034   2.549  0.0397  2.1549  0.8594
 2264SOL     OW 8232   4.614   7.153  10.270  0.0441 -0.4825 -0.1941
 2264SOL    HW1 8233   4.619   7.058  10.281 -2.4910 -1.0232 -2.4828
 2264SOL    HW2 8234   4.622   7.166  10.176 -1.7509  1.3268 -0.1553
 2265SOL     OW 8235   7.520   2.883   9.882 -0.1366 -0.4963 -0.5397
 2265SOL    HW1 8236   7.515   2.857   9.974  0.1832 -1.1380 -0.6999
 2265SOL    HW2 8237   7.593   2.833   9.847 -0.9963 -1.1518 -1.4441
 2266SOL     OW 8238   5.871   0.125  11.998 -0.2449 -0.4968 -0.1125
 2266SOL    HW1 8239   5.829   0.059  12.053 -1.0335  1.3709  1.6651
 2266SOL    HW2 8240   5.946   0.155  12.049  0.5401 -0.5010 -1.2236
 2267SOL     OW 8241   6.736   6.223   7.887  0.1776 -0.2241  0.4242
 2267SOL    HW1 8242   6.741   6.181   7.973 -0.3341 -0.4321  0.3572
 2267SOL    HW2 8243   6.792   6.169   7.831 -0.3008 -0.6997  0.3916
 2268SOL     OW 8244   6.124   2.694   0.979 -0.0874 -0.7279 -0.4994
 2268SOL    HW1 8245   6.085   2.684   0.892 -0.7123 -0.7157 -0.2260
 2268SOL    HW2 8246   6.072   2.762   1.021  0.7873 -0.0871 -0.4332
 2269SOL     OW 8247   6.878   7.217   3.865  0.1032 -0.5104  0.9291
 2269SOL    HW1 8248   6.933   7.214   3.786  0.4005 -2.0436  1.1606
 2269SOL    HW2 8249   6.789   7.234   3.831  0.6713  2.0997  0.5660
 2270SOL     OW 8250   6.696   5.591   7.285 -0.0332 -0.1926  0.0774
 2270SOL    HW1 8251   6.679   5.621   7.196 -2.8753  0.2087  0.6507
 2270SOL    HW2 8252   6.662   5.501   7.287  0.1781 -0.2678  0.7088
 2271SOL     OW 8253   7.226   2.649  11.331 -0.4096  0.2955 -0.2459
 2271SOL    HW1 8254   7.213   2.743  11.338 -1.5829  0.6507 -4.3684
 2271SOL    HW2 8255   7.320   2.638  11.316 -0.3870  0.9150 -0.5762
 2272SOL     OW 8256   7.413   6.109   3.309  0.2318  0.3554 -0.3454
 2272SOL    HW1 8257   7.434   6.031   3.259 -1.6128  0.2199 -1.0038
 2272SOL    HW2 8258   7.353   6.079   3.378  1.4803  0.8035  0.9869
 2273SOL     OW 8259   1.196   6.246   9.031  0.3624  0.2729  0.0010
 2273SOL    HW1 8260   1.247   6.227   8.952  0.3395 -0.7126  0.2085
 2273SOL    HW2 8261   1.240   6.321   9.070  0.2056  0.9511 -1.0892
 2274SOL     OW 8262   4.393   5.957   6.091 -0.5928 -0.2346  0.3973
 2274SOL    HW1 8263   4.487   5.960   6.074 -0.8928  0.2884 -1.4111
 2274SOL    HW2 8264   4.378   5.870   6.129  0.5869 -0.3830  0.5385
 2275SOL     OW 8265   1.891   7.264  11.036  0.0633 -0.1911  0.1541
 2275SOL    HW1 8266   1.856   7.322  11.103 -0.5858 -0.3062 -0.0662
 2275SOL    HW2 8267   1.882   7.314  10.954  1.6181  0.2739  0.2434
 2276SOL     OW 8268   7.352   5.460  12.009 -0.0865  0.0361  0.1290
 2276SOL    HW1 8269   7.417   5.422  11.950  0.2837 -2.1580  1.8274
 2276SOL    HW2 8270   7.268   5.429  11.976 -0.0028  0.0015 -0.0536
 2277SOL     OW 8271   0.727   1.962   3.365  0.1869 -0.4275  0.1395
 2277SOL    HW1 8272   0.687   1.934   3.282  0.8126  0.3270 -0.4353
 2277SOL    HW2 8273   0.789   1.892   3.386  1.3017  0.1703 -0.9711
 2278SOL     OW 8274   5.491   1.925   4.300  0.2277 -0.1737  0.6237
 2278SOL    HW1 8275   5.415   1.959   4.253 -1.2142 -0.7034  2.4239
 2278SOL    HW2 8276   5.457   1.901   4.386  2.4511 -0.4633  1.5026
 2279SOL     OW 8277   0.983   0.744   8.276 -0.0627 -0.2692  0.6790
 2279SOL    HW1 8278   0.947   0.824   8.314  0.1003 -0.5498  1.4387
 2279SOL    HW2 8279   1.015   0.770   8.189 -2.5506 -0.1177 -0.2748
 2280SOL     OW 8280   2.737   1.269   0.272  0.2408  0.3046  0.1513
 2280SOL    HW1 8281   2.794   1.268   0.349 -0.3904  2.0804  0.6885
 2280SOL    HW2 8282   2.664   1.212   0.294  0.2683  0.4860  0.7139
 2281SOL     OW 8283   0.125   6.302   2.440  0.8350  0.3690  0.9000
 2281SOL    HW1 8284   0.159   6.385   2.407  0.1092  0.2518 -0.1889
 2281SOL    HW2 8285   0.070   6.268   2.369 -0.8910  0.1593  2.2657
 2282SOL     OW 8286   5.424   0.652   1.790  0.2075  0.5839 -0.1758
 2282SOL    HW1 8287   5.349   0.691   1.835  0.8986  0.6459  0.9532
 2282SOL    HW2 8288   5.385   0.594   1.724 -0.8315  0.5219  0.4678
 2283SOL     OW 8289   6.928   4.103  11.753 -0.0279  0.1310  0.3247
 2283SOL    HW1 8290   6.983   4.047  11.697 -0.5671 -0.1264  0.0454
 2283SOL    HW2 8291   6.858   4.133  11.695  0.6404  1.6938  0.2690
 2284SOL     OW 8292   3.116   0.271  11.176 -0.3834  0.3567  0.3326
 2284SOL    HW1 8293   3.159   0.324  11.109 -2.2851  1.9540  0.2804
 2284SOL    HW2 8294   3.026   0.304  11.178 -0.7419 -0.5780  2.7157
 2285SOL     OW 8295   7.732   3.688   4.387 -0.3221 -0.3286  0.5358
 2285SOL    HW1 8296   7.789   3.754   4.427 -1.1469  1.1343 -0.6179
 2285SOL    HW2 8297   7.665   3.738   4.340 -0.2100 -1.9510 -1.5201
 2286SOL     OW 8298   0.775   5.232   3.923 -0.0056  0.0477  0.4276
 2286SOL    HW1 8299   0.831   5.276   3.986 -1.1994  1.0369  0.8390
 2286SOL    HW2 8300   0.728   5.166   3.975  0.3617 -0.4046  0.1938
 2287SOL     OW 8301   4.391   3.644   9.744 -0.3318 -0.2055  0.5907
 2287SOL    HW1 8302   4.450   3.613   9.812  0.4039  0.3323  0.2154
 2287SOL    HW2 8303   4.449   3.671   9.673 -1.1309 -1.8042 -0.7095
 2288SOL     OW 8304   7.198   1.525   7.457 -0.5426 -0.0625 -0.0788
 2288SOL    HW1 8305   7.164   1.470   7.387 -0.2842  0.6988 -0.8224
 2288SOL    HW2 8306   7.127   1.587   7.476 -0.8120 -0.6054  0.7110
 2289SOL     OW 8307   4.739   6.867   6.364 -0.7671  0.0466 -0.2798
 2289SOL    HW1 8308   4.686   6.869   6.284 -0.8600  0.3155 -0.2091
 2289SOL    HW2 8309   4.817   6.816   6.339 -0.6962  0.3072 -0.6037
 2290SOL     OW 8310   0.895   2.274  11.206 -0.0358 -0.2185  0.5314
 2290SOL    HW1 8311   0.815   2.232  11.175 -1.5315  2.0309  1.1121
 2290SOL    HW2 8312   0.949   2.202  11.238 -1.7835 -1.8238  0.0438
 2291SOL     OW 8313   2.938   0.831   6.964  0.0368 -0.1005 -0.0425
 2291SOL    HW1 8314   2.893   0.768   6.908  2.1698 -1.3648 -0.4034
 2291SOL    HW2 8315   2.920   0.916   6.922 -0.9962 -0.6713 -0.8178
 2292SOL     OW 8316   1.635   7.729  10.473  0.2159  0.2099  0.0915
 2292SOL    HW1 8317   1.717   7.775  10.456  0.6754 -0.4073  0.6378
 2292SOL    HW2 8318   1.576   7.798  10.504  1.5273  0.1390  3.0237
 2293SOL     OW 8319   6.235   2.813   4.865  0.3175  0.0474  0.4305
 2293SOL    HW1 8320   6.175   2.769   4.925  0.8328  0.2217  1.0880
 2293SOL    HW2 8321   6.236   2.758   4.786 -1.9625  0.9119 -0.2679
 2294SOL     OW 8322   0.929   0.646   0.718 -0.3056 -0.0059 -0.0997
 2294SOL    HW1 8323   0.954   0.556   0.738 -1.4372 -0.3534 -0.1425
 2294SOL    HW2 8324   0.920   0.689   0.803  1.7923  0.5496 -0.1095
 2295SOL     OW 8325   5.257   0.853   2.979 -0.0190 -0.0253 -0.3171
 2295SOL    HW1 8326   5.331   0.860   3.040  0.3237 -1.2143 -0.5697
 2295SOL    HW2 8327   5.269   0.927   2.919  0.5738  0.1915  0.0498
 2296SOL     OW 8328   7.628   6.981   3.640  0.0597  0.0275  0.0091
 2296SOL    HW1 8329   7.588   6.995   3.726 -0.3476  0.1346 -0.1952
 2296SOL    HW2 8330   7.703   7.040   3.639  0.4518 -0.4537  0.5444
 2297SOL     OW 8331   5.207   1.542   0.494  0.0761  0.2488 -0.1924
 2297SOL    HW1 8332   5.153   1.485   0.439 -1.3429  1.6057 -0.2350
 2297SOL    HW2 8333   5.296   1.531   0.459 -0.3840 -0.9075 -1.0460
 2298SOL     OW 8334   3.168   0.030   3.904  0.1914 -0.1866 -0.8062
 2298SOL    HW1 8335   3.216  -0.041   3.946 -0.8556 -0.1899  0.4525
 2298SOL    HW2 8336   3.076   0.007   3.916 -0.1609  0.2282 -2.4452
 2299SOL     OW 8337   3.504   2.355  12.202 -0.1148 -0.0480 -0.6998
 2299SOL    HW1 8338   3.573   2.390  12.258  0.6748 -2.5256  0.0078
 2299SOL    HW2 8339   3.464   2.285  12.254 -1.6572 -0.1733 -1.9716
 2300SOL     OW 8340   4.235   7.045  10.211 -0.0292  0.4455  0.0977
 2300SOL    HW1 8341   4.200   7.133  10.201 -1.6111 -0.0582  0.8049
 2300SOL    HW2 8342   4.188   7.009  10.287 -0.9387 -1.6797 -1.3643
 2301SOL     OW 8343   5.799   0.546   9.074 -0.1761  0.2318  0.3508
 2301SOL    HW1 8344   5.738   0.486   9.115 -1.1399 -0.3977 -1.8381
 2301SOL    HW2 8345   5.885   0.506   9.087 -0.4808 -0.0765  1.4653
 2302SOL     OW 8346   6.572   2.594   1.753 -0.0607 -0.0656  0.2111
 2302SOL    HW1 8347   6.635   2.664   1.769 -0.6471  0.5950 -0.3371
 2302SOL    HW2 8348   6.522   2.622   1.677  0.6068 -1.7166 -0.8978
 2303SOL     OW 8349   7.704   0.499   1.964 -0.2587 -0.1309  0.7796
 2303SOL    HW1 8350   7.686   0.570   1.902  1.6153 -0.2716  0.0332
 2303SOL    HW2 8351   7.617   0.475   1.998 -1.1540  1.0451 -0.5669
 2304SOL     OW 8352   1.300   3.751  11.816 -0.5234  0.0826  0.0525
 2304SOL    HW1 8353   1.363   3.692  11.857 -0.4316  0.3059  0.2331
 2304SOL    HW2 8354   1.230   3.761  11.881  0.8224  2.4738  1.2584
 2305SOL     OW 8355   2.461   1.229   9.622  0.4465  0.2275 -0.1604
 2305SOL    HW1 8356   2.441   1.295   9.688  1.9477 -0.3620  0.9463
 2305SOL    HW2 8357   2.384   1.171   9.623 -0.2221  1.1001 -0.0666
 2306SOL     OW 8358   2.154   6.509  10.569  0.1878 -0.3698  0.5161
 2306SOL    HW1 8359   2.129   6.574  10.635  1.0183  1.3633 -0.8080
 2306SOL    HW2 8360   2.249   6.517  10.562  0.2869 -1.6142  0.1710
 2307SOL     OW 8361   0.947   1.485   4.512  0.7239 -0.3340 -0.4067
 2307SOL    HW1 8362   1.025   1.539   4.529  1.5431 -1.4311 -0.5298
 2307SOL    HW2 8363   0.936   1.491   4.417 -1.0438  2.0353 -0.1364
 2308SOL     OW 8364   5.080   7.853   3.609  0.1479  0.1484 -0.0599
 2308SOL    HW1 8365   5.000   7.889   3.648  0.6280  1.1142  0.0582
 2308SOL    HW2 8366   5.069   7.758   3.614 -0.1017  0.2445  1.8000
 2309SOL     OW 8367   4.129   6.397   1.933  0.3582  0.2541 -1.0360
 2309SOL    HW1 8368   4.073   6.456   1.984  0.6831  0.3437 -0.7831
 2309SOL    HW2 8369   4.104   6.310   1.963 -0.4138  0.2304 -1.7016
 2310SOL     OW 8370   7.295   5.100  11.993  0.3711 -0.3859 -0.7373
 2310SOL    HW1 8371   7.339   5.157  11.930  1.7795 -0.7436 -0.1295
 2310SOL    HW2 8372   7.307   5.012  11.957  3.0496 -0.8383  0.9522
 2311SOL     OW 8373   0.113   5.468   9.993 -0.0758 -0.3478 -0.2162
 2311SOL    HW1 8374   0.096   5.528   9.921 -0.8549 -0.3898 -0.0774
 2311SOL    HW2 8375   0.176   5.513  10.048 -1.6829  0.9827  0.6382
 2312SOL     OW 8376   3.633   5.214   3.235 -0.3391 -0.1679 -0.2051
 2312SOL    HW1 8377   3.662   5.301   3.259 -1.6997  0.2711 -0.0538
 2312SOL    HW2 8378   3.659   5.158   3.308 -3.3044  0.9208  1.8870
 2313SOL     OW 8379   7.852   0.248   8.010  0.2855  0.0165  0.2256
 2313SOL    HW1 8380   7.897   0.164   8.008  3.1142  1.4360 -1.0892
 2313SOL    HW2 8381   7.845   0.270   8.103  0.0176 -1.4006  0.5509
 2314SOL     OW 8382   6.009   3.797   4.873 -0.7579 -0.2286  0.0574
 2314SOL    HW1 8383   6.015   3.813   4.778  0.0750 -0.5418  0.0521
 2314SOL    HW2 8384   6.063   3.866   4.912 -2.6721  1.1403  0.4505
 2315SOL     OW 8385   7.464   6.270  10.493 -0.6023  0.1850  0.0988
 2315SOL    HW1 8386   7.519   6.216  10.437 -0.1909  1.0681 -0.3714
 2315SOL    HW2 8387   7.467   6.357  10.453 -1.9742  0.3620  0.3180
 2316SOL     OW 8388   7.610   1.979   0.564  0.4482 -0.3390  0.0850
 2316SOL    HW1 8389   7.593   1.946   0.652  2.5552  0.5465  0.8736
 2316SOL    HW2 8390   7.560   2.061   0.560  1.3746  0.2890  0.9550
 2317SOL     OW 8391   4.559   6.502   7.790  0.2459  0.3994  0.0030
 2317SOL    HW1 8392   4.556   6.572   7.854  0.3163 -0.0642  0.5247
 2317SOL    HW2 8393   4.567   6.546   7.705  1.9733  0.9797  0.4352
 2318SOL     OW 8394   1.685   1.518   2.754  0.2729  0.0730  0.1183
 2318SOL    HW1 8395   1.679   1.512   2.659 -1.9128  3.4374 -0.1144
 2318SOL    HW2 8396   1.596   1.504   2.785  0.5513  1.0798  1.4603
 2319SOL     OW 8397   0.091   7.250   9.965  0.1666 -0.0781 -0.3750
 2319SOL    HW1 8398   0.178   7.211   9.975  0.0827 -0.1610  0.0857
 2319SOL    HW2 8399   0.046   7.193   9.903  0.6241  0.2809 -1.0402
 2320SOL     OW 8400   1.839   2.256  11.588  0.6734  0.7611 -0.2141
 2320SOL    HW1 8401   1.819   2.274  11.680  0.9755 -0.6042  0.1507
 2320SOL    HW2 8402   1.864   2.163  11.587  1.8348  1.0582 -1.4830
 2321SOL     OW 8403   7.246   0.053   2.352 -0.3465 -0.2840  0.1559
 2321SOL    HW1 8404   7.160   0.093   2.339 -0.5897 -0.2666  1.5999
 2321SOL    HW2 8405   7.246   0.027   2.445  1.3047 -0.0055  0.2600
 2322SOL     OW 8406   0.425   4.771  11.274  0.6517  0.5650  0.4027
 2322SOL    HW1 8407   0.470   4.690  11.297 -0.0557  0.1266  0.3112
 2322SOL    HW2 8408   0.494   4.831  11.247  1.0808 -0.6651 -1.4785
 2323SOL     OW 8409   4.266   0.259  10.220 -0.2545  0.0948  0.3522
 2323SOL    HW1 8410   4.271   0.353  10.206 -1.9506 -0.1449 -2.8486
 2323SOL    HW2 8411   4.177   0.244  10.252 -0.4323 -0.4828 -0.3780
 2324SOL     OW 8412   2.156   3.193   8.267  0.3793 -0.0115  0.0130
 2324SOL    HW1 8413   2.077   3.246   8.269  0.2582 -0.1675 -0.5069
 2324SOL    HW2 8414   2.168   3.164   8.358 -0.8017 -0.9273 -0.0992
 2325SOL     OW 8415   6.324   2.537   0.891  0.4265  0.0441  0.5076
 2325SOL    HW1 8416   6.252   2.585   0.933 -0.5906 -0.2950 -0.7689
 2325SOL    HW2 8417   6.381   2.605   0.856  0.0819  0.3254  0.4783
 2326SOL     OW 8418   2.768   4.385   7.720 -0.1403 -0.0777 -0.1863
 2326SOL    HW1 8419   2.682   4.400   7.681  1.2214 -0.9111 -3.9759
 2326SOL    HW2 8420   2.798   4.303   7.679  1.7834 -0.7739  2.3693
 2327SOL     OW 8421   2.772   3.627  10.620  0.0198 -0.6704 -0.7359
 2327SOL    HW1 8422   2.734   3.623  10.708 -0.7442  0.9027 -0.9468
 2327SOL    HW2 8423   2.697   3.643  10.563  0.8243  1.4086 -1.2926
 2328SOL     OW 8424   6.485   7.897   1.142  0.5207 -0.2849  0.5272
 2328SOL    HW1 8425   6.522   7.813   1.168 -2.4687 -1.6068  0.8743
 2328SOL    HW2 8426   6.480   7.892   1.047 -1.1914 -1.3003  0.6231
 2329SOL     OW 8427   7.024   1.164   1.937 -0.3157  0.4763 -0.1560
 2329SOL    HW1 8428   6.968   1.201   1.869 -0.0324  0.2005 -0.5377
 2329SOL    HW2 8429   7.043   1.075   1.908 -1.8173 -0.3674  1.2428
 2330SOL     OW 8430   7.025   4.683   9.266 -0.2195 -0.1566 -0.3322
 2330SOL    HW1 8431   7.112   4.660   9.298 -0.6630  1.1058  2.0278
 2330SOL    HW2 8432   6.971   4.607   9.286 -0.3235  0.3243  1.3830
 2331SOL     OW 8433   7.746   1.547   4.447 -0.5174 -0.0502  0.0072
 2331SOL    HW1 8434   7.742   1.500   4.364  0.4221 -1.0043  0.4741
 2331SOL    HW2 8435   7.727   1.481   4.513 -2.0558  0.8710  0.5344
 2332SOL     OW 8436   3.017   1.339  12.051 -0.0454 -0.5165  0.3373
 2332SOL    HW1 8437   3.045   1.277  12.118  0.8745  0.8944  1.3321
 2332SOL    HW2 8438   3.030   1.293  11.968 -0.7820 -2.1429  1.0858
 2333SOL     OW 8439   3.119   4.898   8.371 -0.0498 -0.5186 -0.2255
 2333SOL    HW1 8440   3.211   4.885   8.347 -0.3952 -2.0148 -0.8220
 2333SOL    HW2 8441   3.079   4.811   8.363 -1.4048 -0.0023  0.5510
 2334SOL     OW 8442   7.499   1.482  11.958  0.3351 -0.0244  0.0110
 2334SOL    HW1 8443   7.453   1.410  11.915 -1.1277  1.0774 -0.3260
 2334SOL    HW2 8444   7.550   1.523  11.888  0.0891  0.1070 -0.0910
 2335SOL     OW 8445   0.660   4.567   0.509 -0.0203 -0.6091 -0.2338
 2335SOL    HW1 8446   0.702   4.598   0.428  2.1237 -2.1652  0.2049
 2335SOL    HW2 8447   0.640   4.475   0.492 -0.9639 -0.5506  0.4996
 2336SOL     OW 8448   7.344   0.618   2.326  0.3519 -0.2330 -0.0843
 2336SOL    HW1 8449   7.292   0.545   2.294 -0.6619  0.3755  0.1179
 2336SOL    HW2 8450   7.280   0.677   2.367  0.8393  1.5959 -1.7454
 2337SOL     OW 8451   6.344   2.598   8.719  0.2482 -0.5701 -0.2133
 2337SOL    HW1 8452   6.350   2.507   8.688 -0.3838 -0.6306 -0.1674
 2337SOL    HW2 8453   6.250   2.613   8.730  0.2355  0.5443 -1.5648
 2338SOL     OW 8454   6.586   6.851   4.593 -0.5757  0.1666 -0.1311
 2338SOL    HW1 8455   6.530   6.921   4.628 -0.6276  0.1895 -0.2578
 2338SOL    HW2 8456   6.529   6.805   4.531 -0.9483 -0.7975  0.9089
 2339SOL     OW 8457   0.531   0.436   3.032 -0.1990 -0.3673  0.6054
 2339SOL    HW1 8458   0.594   0.421   3.103  1.7336  2.5012 -0.3628
 2339SOL    HW2 8459   0.579   0.415   2.952 -1.5750 -1.2105 -0.0435
 2340SOL     OW 8460   7.718   0.186   6.946  0.7527  0.1185 -0.1359
 2340SOL    HW1 8461   7.633   0.144   6.953  1.0819 -0.2619  2.1412
 2340SOL    HW2 8462   7.751   0.158   6.860 -0.6205 -1.2243 -0.2644
 2341SOL     OW 8463   6.397   3.837  11.837 -0.5987 -0.6190 -0.2097
 2341SOL    HW1 8464   6.459   3.838  11.910 -0.5453  3.4890 -0.1048
 2341SOL    HW2 8465   6.451   3.820  11.760  0.7121  2.3009 -0.0495
 2342SOL     OW 8466   5.830   7.164   0.589 -0.7668  0.4972 -0.2052
 2342SOL    HW1 8467   5.770   7.238   0.589  1.2948  2.2499 -0.4058
 2342SOL    HW2 8468   5.812   7.118   0.506 -1.5370  1.2077 -0.4400
 2343SOL     OW 8469   6.137   3.568   8.183 -0.1532  0.1887 -0.0942
 2343SOL    HW1 8470   6.087   3.649   8.193  0.2368  0.8518 -2.6362
 2343SOL    HW2 8471   6.072   3.498   8.194 -0.8433  0.9023  0.4471
 2344SOL     OW 8472   5.755   4.093   9.761  0.0503 -0.1164  0.3559
 2344SOL    HW1 8473   5.699   4.169   9.776 -1.7917 -1.3944  0.4169
 2344SOL    HW2 8474   5.837   4.129   9.729 -0.7288  1.8835  0.4491
 2345SOL     OW 8475   5.361   7.773   3.602 -0.2738  0.4937  0.9500
 2345SOL    HW1 8476   5.323   7.795   3.516 -0.3840 -1.4426  0.4605
 2345SOL    HW2 8477   5.287   7.776   3.662 -0.1383  2.1897  1.0712
 2346SOL     OW 8478   5.855   6.022   6.987 -0.3705  0.0897  0.4416
 2346SOL    HW1 8479   5.892   6.040   7.074  0.9491  0.4259 -0.1615
 2346SOL    HW2 8480   5.864   5.928   6.976  0.8056  0.2343  0.0953
 2347SOL     OW 8481   5.013   3.210  10.166 -0.3199 -0.6690  0.6376
 2347SOL    HW1 8482   4.928   3.180  10.136 -0.4876 -2.7392  2.8301
 2347SOL    HW2 8483   4.995   3.287  10.219 -0.3665  0.9910 -1.6684
 2348SOL     OW 8484   1.213   1.421   5.028 -0.5647  0.9604 -0.0614
 2348SOL    HW1 8485   1.269   1.438   5.104 -0.1436  0.9696 -0.3713
 2348SOL    HW2 8486   1.252   1.344   4.987 -0.6588  1.0941 -0.3982
 2349SOL     OW 8487   1.823   1.270   7.138 -0.2247  0.1905 -0.1612
 2349SOL    HW1 8488   1.864   1.215   7.205  0.6556  1.3135  0.2552
 2349SOL    HW2 8489   1.888   1.274   7.067 -0.7943 -0.2948 -0.7183
 2350SOL     OW 8490   7.671   1.338   3.541  0.4362 -0.1540  0.1124
 2350SOL    HW1 8491   7.644   1.339   3.633 -0.8296  0.4502 -0.2426
 2350SOL    HW2 8492   7.763   1.368   3.542 -0.1438  1.7838  1.0288
 2351SOL     OW 8493   0.318   2.665   6.030  0.2090 -0.3311  0.2573
 2351SOL    HW1 8494   0.244   2.717   6.060 -3.0861 -3.4539 -1.6367
 2351SOL    HW2 8495   0.326   2.687   5.937  1.1164 -0.6429  0.2560
 2352SOL     OW 8496   1.122   5.981  11.429 -0.5672  0.4574 -0.0811
 2352SOL    HW1 8497   1.126   5.886  11.439 -1.1824  0.4815  0.4627
 2352SOL    HW2 8498   1.155   5.997  11.341 -0.7608 -0.2832 -0.2956
 2353SOL     OW 8499   6.893   1.499   4.601 -0.3083  0.3798 -0.6743
 2353SOL    HW1 8500   6.817   1.540   4.560 -0.2886 -0.6718 -1.7930
 2353SOL    HW2 8501   6.862   1.470   4.687 -1.3379 -0.5332 -1.3341
 2354SOL     OW 8502   2.446   4.825   4.985  0.3305  0.5281 -0.2208
 2354SOL    HW1 8503   2.468   4.868   5.068 -0.9405  0.2336  0.2995
 2354SOL    HW2 8504   2.408   4.895   4.931  3.3767  1.3116 -1.5606
 2355SOL     OW 8505   6.995   3.791   6.098  0.3215  0.1801  0.5408
 2355SOL    HW1 8506   7.016   3.874   6.142 -0.2104 -0.1934  1.5307
 2355SOL    HW2 8507   7.038   3.724   6.151  2.3785 -0.0868 -1.3254
 2356SOL     OW 8508   7.472   5.300   4.734  0.1081  0.2254 -0.0673
 2356SOL    HW1 8509   7.485   5.245   4.811 -0.3580  1.4193  0.9127
 2356SOL    HW2 8510   7.379   5.321   4.735  0.1658  0.5473 -0.7440
 2357SOL     OW 8511   0.522   3.882   5.677 -0.0904  0.6596 -1.2446
 2357SOL    HW1 8512   0.512   3.871   5.582  1.2984  1.2437 -1.4782
 2357SOL    HW2 8513   0.517   3.977   5.690 -1.2956  0.5229 -0.5849
 2358SOL     OW 8514   6.395   1.161   4.649 -0.3963  0.1368 -0.0402
 2358SOL    HW1 8515   6.464   1.094   4.646  0.7285  1.2697 -0.4598
 2358SOL    HW2 8516   6.338   1.139   4.575  1.1329  0.8155 -1.4778
 2359SOL     OW 8517   2.792   6.084   3.405 -0.1948  0.1820  0.3821
 2359SOL    HW1 8518   2.755   6.067   3.319 -0.9145 -0.4557  0.8032
 2359SOL    HW2 8519   2.764   6.173   3.426  1.1819  0.8803 -0.6270
 2360SOL     OW 8520   1.047   5.644   1.000  0.3538 -0.4532 -0.0739
 2360SOL    HW1 8521   1.043   5.616   0.909 -0.9723 -1.1648  0.1800
 2360SOL    HW2 8522   1.030   5.738   0.996  2.8622  0.0466 -0.7514
 2361SOL     OW 8523   1.576   6.970   9.993 -0.4554  0.1417  0.6191
 2361SOL    HW1 8524   1.634   6.894  10.007 -0.0511  0.5007  0.9280
 2361SOL    HW2 8525   1.506   6.936   9.938  2.1974  0.6816 -3.4908
 2362SOL     OW 8526   7.329   7.086   9.489  0.3107 -0.2196  0.2222
 2362SOL    HW1 8527   7.259   7.026   9.514 -1.9601  2.4603  0.8156
 2362SOL    HW2 8528   7.288   7.148   9.428  3.1366 -0.5609 -2.2687
 2363SOL     OW 8529   2.276   1.653  11.257 -0.0215  0.0675 -0.7607
 2363SOL    HW1 8530   2.330   1.709  11.201 -0.8403  2.1060  0.3875
 2363SOL    HW2 8531   2.336   1.624  11.326 -0.1468  1.6013  0.0192
 2364SOL     OW 8532   0.125   6.945   8.339  0.5805 -0.2976 -0.9322
 2364SOL    HW1 8533   0.147   6.936   8.431 -2.3073 -1.5950 -0.2333
 2364SOL    HW2 8534   0.141   6.858   8.302 -1.9623 -0.9965 -0.6169
 2365SOL     OW 8535   4.984   5.106   8.312 -0.4282  0.1072 -0.0922
 2365SOL    HW1 8536   5.059   5.047   8.308 -0.1595  0.4871 -0.8235
 2365SOL    HW2 8537   5.023   5.193   8.322 -0.8187  0.1808  0.9142
 2366SOL     OW 8538   7.007   4.147   1.284  0.6765  0.1305 -0.2390
 2366SOL    HW1 8539   7.074   4.078   1.278 -0.0100 -0.5202 -0.4570
 2366SOL    HW2 8540   6.960   4.127   1.365  1.3177  1.1178  0.3930
 2367SOL     OW 8541   5.834   6.289   2.900 -0.4553  0.0836 -0.4764
 2367SOL    HW1 8542   5.799   6.377   2.894 -1.5329 -0.3336 -0.4487
 2367SOL    HW2 8543   5.920   6.294   2.857 -0.3492  1.2157 -0.1476
 2368SOL     OW 8544   6.685   7.346   2.792  0.2869 -0.6763  0.0431
 2368SOL    HW1 8545   6.598   7.384   2.797 -0.1218 -1.4754 -0.7389
 2368SOL    HW2 8546   6.705   7.345   2.698  1.7523  0.8500  0.2888
 2369SOL     OW 8547   1.020   0.249   3.405 -0.4742 -0.4995  0.5683
 2369SOL    HW1 8548   0.929   0.276   3.420  0.3948  2.7163  0.7110
 2369SOL    HW2 8549   1.056   0.316   3.347  1.8382 -1.7260  0.4457
 2370SOL     OW 8550   2.588   7.693  10.313  0.2622  0.1141 -0.2707
 2370SOL    HW1 8551   2.639   7.618  10.344 -0.6265 -0.6756 -0.6864
 2370SOL    HW2 8552   2.498   7.672  10.338 -0.2845  0.1031 -2.1468
 2371SOL     OW 8553   6.469   4.958   4.108  0.8110 -0.0210  0.4678
 2371SOL    HW1 8554   6.477   5.046   4.145 -0.8381 -0.3577  1.7294
 2371SOL    HW2 8555   6.515   4.963   4.024  2.8434  1.3514  1.5910
 2372SOL     OW 8556   0.631   4.401   7.505  0.5971  0.3481 -0.4776
 2372SOL    HW1 8557   0.684   4.401   7.585  0.7934 -1.8689 -0.5307
 2372SOL    HW2 8558   0.678   4.342   7.445 -0.9942 -0.2829 -1.1769
 2373SOL     OW 8559   0.403   5.331   3.937 -0.3501  0.5860 -0.9666
 2373SOL    HW1 8560   0.354   5.329   4.019  0.2245  2.1550 -0.5474
 2373SOL    HW2 8561   0.432   5.241   3.924 -0.6381  0.2696  0.4326
 2374SOL     OW 8562   0.694   5.761   7.600  0.0090  0.0936  0.5572
 2374SOL    HW1 8563   0.719   5.826   7.665  0.3143  1.6314 -1.0357
 2374SOL    HW2 8564   0.773   5.710   7.584 -0.0404 -0.2197  1.2936
 2375SOL     OW 8565   1.859   7.806   5.646  0.0596  0.3062 -0.1575
 2375SOL    HW1 8566   1.769   7.814   5.678 -0.5629 -1.8358 -1.1636
 2375SOL    HW2 8567   1.898   7.740   5.703  0.5745  0.2368 -0.5901
 2376SOL     OW 8568   3.940   6.607  11.684 -0.1774  0.4673  0.1919
 2376SOL    HW1 8569   3.955   6.515  11.705  2.1997  0.5162 -1.0151
 2376SOL    HW2 8570   3.996   6.655  11.746  0.4483  0.9773 -0.7565
 2377SOL     OW 8571   5.651   6.730  10.788 -0.4659  0.3130 -0.0999
 2377SOL    HW1 8572   5.651   6.825  10.776  0.8279  0.0681 -2.8753
 2377SOL    HW2 8573   5.569   6.712  10.834 -0.9550  2.7077  0.1134
 2378SOL     OW 8574   2.994   0.597   1.120  0.4367 -0.2951 -0.1711
 2378SOL    HW1 8575   2.920   0.578   1.063  0.7074 -2.1801  0.0529
 2378SOL    HW2 8576   3.068   0.609   1.060  0.1771  0.5935 -0.3359
 2379SOL     OW 8577   2.718   6.903   5.976  0.0934  0.2698 -0.5338
 2379SOL    HW1 8578   2.745   6.826   5.927 -0.0179 -0.6777  0.8467
 2379SOL    HW2 8579   2.784   6.969   5.956 -1.0251  0.6246 -3.5615
 2380SOL     OW 8580   5.667   6.840   4.743  0.4651  0.0755  0.2912
 2380SOL    HW1 8581   5.746   6.890   4.762 -0.2512  1.6692 -0.7055
 2380SOL    HW2 8582   5.600   6.906   4.729 -0.6123 -1.1963 -0.7822
 2381SOL     OW 8583   4.820   2.201   4.588 -0.5825 -0.0829 -0.4729
 2381SOL    HW1 8584   4.754   2.132   4.599 -2.1362  1.3980 -0.2488
 2381SOL    HW2 8585   4.772   2.283   4.599  1.2682  1.0591 -0.5058
 2382SOL     OW 8586   4.608   7.888   3.863 -0.3514 -0.7010  0.0514
 2382SOL    HW1 8587   4.691   7.935   3.850 -0.6592  0.1028  0.9239
 2382SOL    HW2 8588   4.541   7.955   3.850 -0.8038 -0.9500  1.0805
 2383SOL     OW 8589   0.584   7.446  11.973  0.0353  0.5621 -0.2050
 2383SOL    HW1 8590   0.531   7.524  11.957 -0.8865  0.0047  0.0784
 2383SOL    HW2 8591   0.642   7.470  12.045 -0.4014  0.9072  0.0307
 2384SOL     OW 8592   5.445   2.799   1.002 -0.3011  0.2576  0.4069
 2384SOL    HW1 8593   5.475   2.843   0.923 -0.3546  0.3231  0.4234
 2384SOL    HW2 8594   5.366   2.753   0.975 -0.7159  0.8510  0.5932
 2385SOL     OW 8595   0.768   7.932  10.111  0.0962 -0.3239  0.5369
 2385SOL    HW1 8596   0.773   8.028  10.107  0.1960 -0.3647 -1.1861
 2385SOL    HW2 8597   0.831   7.902  10.046 -0.4409 -1.5498  0.5533
 2386SOL     OW 8598   0.736   7.547   0.284  0.4638 -0.5405 -0.0688
 2386SOL    HW1 8599   0.669   7.480   0.275 -0.0271 -0.3778  1.8571
 2386SOL    HW2 8600   0.721   7.585   0.371  2.8883 -0.3237  0.3449
 2387SOL     OW 8601   0.880   1.914  11.566  0.1601 -0.0878 -0.2460
 2387SOL    HW1 8602   0.851   1.999  11.532  0.5967  0.4492  0.7073
 2387SOL    HW2 8603   0.975   1.921  11.571  0.2044 -0.6524 -0.1958
 2388SOL     OW 8604   5.608   2.973   0.095 -0.1704  0.0886 -0.5528
 2388SOL    HW1 8605   5.691   3.018   0.114 -0.2164 -0.2649  0.5414
 2388SOL    HW2 8606   5.579   3.011   0.012  1.6641 -0.6175 -1.5796
 2389SOL     OW 8607   7.373   2.642   4.160  0.3722  0.1558 -1.0230
 2389SOL    HW1 8608   7.375   2.722   4.213 -0.2088  1.3679 -2.7303
 2389SOL    HW2 8609   7.388   2.571   4.222 -1.2198  1.4083  0.9147
 2390SOL     OW 8610   0.494   6.085  10.156  0.8102  0.2062  0.0354
 2390SOL    HW1 8611   0.570   6.042  10.119  2.2984  1.6474  1.2543
 2390SOL    HW2 8612   0.493   6.058  10.248  0.6686  1.2685  0.3599
 2391SOL     OW 8613   6.936   7.100   3.413 -0.7276 -0.3144  0.2351
 2391SOL    HW1 8614   7.016   7.050   3.429  0.3452  0.9359 -0.9897
 2391SOL    HW2 8615   6.936   7.167   3.481 -1.4405 -1.0693  1.0153
 2392SOL     OW 8616   2.974   5.172  10.366  0.0986 -0.3442  0.1552
 2392SOL    HW1 8617   2.961   5.129  10.451 -0.3383 -1.6346 -0.5299
 2392SOL    HW2 8618   3.069   5.177  10.355  0.1536 -0.4907  0.5637
 2393SOL     OW 8619   7.548   7.147  12.050  0.2681 -0.1963 -0.3631
 2393SOL    HW1 8620   7.540   7.233  12.009  1.5095 -1.0259 -2.4977
 2393SOL    HW2 8621   7.624   7.155  12.107 -1.8369  1.1518  2.4771
 2394SOL     OW 8622   4.640   6.921   0.088 -0.1994  0.1536  0.4859
 2394SOL    HW1 8623   4.661   6.847   0.145 -2.1789 -0.3685  0.6128
 2394SOL    HW2 8624   4.545   6.920   0.081 -0.2377  2.3029 -0.0682
 2395SOL     OW 8625   1.222   4.155   5.301  0.2443 -0.0326 -0.1943
 2395SOL    HW1 8626   1.134   4.154   5.263 -0.2975  0.9836  0.9873
 2395SOL    HW2 8627   1.226   4.236   5.351  1.7413 -0.2391  0.0595
 2396SOL     OW 8628   1.308   1.505   9.956  0.3451 -0.3133 -0.4756
 2396SOL    HW1 8629   1.384   1.545   9.914  0.4254  0.7002  0.5840
 2396SOL    HW2 8630   1.233   1.547   9.915  0.3897 -0.3947 -0.6393
 2397SOL     OW 8631   4.142   4.429   5.047 -0.2775 -0.4726 -0.2985
 2397SOL    HW1 8632   4.219   4.375   5.065  2.3394  2.3832 -2.0087
 2397SOL    HW2 8633   4.095   4.381   4.978  1.5520 -0.9737 -1.2634
 2398SOL     OW 8634   2.746   7.278   6.491  0.2421  0.1447  0.2179
 2398SOL    HW1 8635   2.752   7.341   6.419 -1.5714  1.3318  1.0193
 2398SOL    HW2 8636   2.814   7.306   6.553  0.9141 -0.0674 -0.4082
 2399SOL     OW 8637   2.192   6.073   7.084 -0.1978 -0.2894  0.3855
 2399SOL    HW1 8638   2.161   5.989   7.120 -1.0462  0.3649  1.2223
 2399SOL    HW2 8639   2.148   6.081   7.000  0.1997 -0.8702  0.1172
 2400SOL     OW 8640   1.756   4.733   9.515  0.3304 -0.1410  0.0622
 2400SOL    HW1 8641   1.845   4.767   9.511  1.6416 -3.3106 -1.2847
 2400SOL    HW2 8642   1.716   4.759   9.432  0.2137  0.6780  0.3660
 2401SOL     OW 8643   6.119   3.698   3.074  0.1489  0.1172  0.5195
 2401SOL    HW1 8644   6.049   3.658   3.125  0.6714 -0.0984  1.0742
 2401SOL    HW2 8645   6.075   3.732   2.996 -0.7517  0.8779  1.3285
 2402SOL     OW 8646   0.414   2.286   8.111 -0.2620 -0.6636  0.6406
 2402SOL    HW1 8647   0.397   2.233   8.033 -1.2654 -0.8568  0.9805
 2402SOL    HW2 8648   0.492   2.337   8.088 -1.8849  1.0829 -1.4612
 2403SOL     OW 8649   1.508   3.358   7.757  0.8050  0.3269 -0.0899
 2403SOL    HW1 8650   1.426   3.380   7.801  1.1581  0.1460  0.6812
 2403SOL    HW2 8651   1.526   3.268   7.784  0.3261 -0.2896 -1.7329
 2404SOL     OW 8652   3.581   6.654   3.634  0.8502  0.2102  0.0142
 2404SOL    HW1 8653   3.583   6.729   3.693 -0.5039  0.3392 -0.0541
 2404SOL    HW2 8654   3.664   6.656   3.588  0.6754  1.9080 -0.2599
 2405SOL     OW 8655   0.020   1.512   8.492 -0.0272  0.1541 -0.2315
 2405SOL    HW1 8656   0.102   1.526   8.444 -0.5872  0.0984 -1.2275
 2405SOL    HW2 8657   0.048   1.478   8.577  0.9533 -0.9079 -0.9421
 2406SOL     OW 8658   6.540   4.232  10.207 -0.2377 -0.9373  0.7246
 2406SOL    HW1 8659   6.454   4.193  10.223 -0.7490 -0.5135 -0.8144
 2406SOL    HW2 8660   6.532   4.271  10.120  1.7118 -1.4234  0.2887
 2407SOL     OW 8661   5.037   0.103   3.990  0.0985  0.0072 -0.7401
 2407SOL    HW1 8662   5.113   0.116   3.932 -0.1049  2.8634 -0.4839
 2407SOL    HW2 8663   5.065   0.139   4.074 -0.4595 -1.9314  0.3344
 2408SOL     OW 8664   2.985   3.371   8.216 -0.4077  0.2350  0.0528
 2408SOL    HW1 8665   3.066   3.321   8.223  0.1473  1.1693  0.5329
 2408SOL    HW2 8666   3.005   3.456   8.256 -1.1665  1.0347 -1.1668
 2409SOL     OW 8667   5.223   1.498   1.494  0.1120  0.2268 -0.1768
 2409SOL    HW1 8668   5.303   1.448   1.474  0.7252  1.9062 -2.3441
 2409SOL    HW2 8669   5.235   1.526   1.585  1.4562 -0.5214 -0.0892
 2410SOL     OW 8670   1.341   1.849   9.016 -0.4571 -0.0626  0.0253
 2410SOL    HW1 8671   1.252   1.867   8.986 -0.0363  0.0284 -1.2003
 2410SOL    HW2 8672   1.364   1.766   8.975  1.0669  1.3137 -2.1036
 2411SOL     OW 8673   3.927   2.862   3.219 -0.2986  0.7571 -0.3498
 2411SOL    HW1 8674   3.893   2.931   3.161 -0.0343  1.5110  0.3875
 2411SOL    HW2 8675   4.020   2.881   3.227 -0.3867  0.8334  0.5561
 2412SOL     OW 8676   4.864   6.022   6.277  0.0988  0.4536 -0.6227
 2412SOL    HW1 8677   4.945   5.971   6.274 -0.2491 -0.5302  2.6745
 2412SOL    HW2 8678   4.888   6.102   6.323 -0.9939 -0.5712  1.9376
 2413SOL     OW 8679   7.305   3.557   6.630 -0.2622  0.0551  0.2039
 2413SOL    HW1 8680   7.334   3.541   6.720  0.0602  0.3318  0.1540
 2413SOL    HW2 8681   7.246   3.485   6.610  0.4343 -0.5458  0.2960
 2414SOL     OW 8682   1.533   4.986   7.852  0.2391  0.1008  0.3846
 2414SOL    HW1 8683   1.628   4.998   7.853  0.1815  0.6478  0.0714
 2414SOL    HW2 8684   1.520   4.891   7.847  0.7671  0.0169  0.5856
 2415SOL     OW 8685   3.873   6.736   1.219  0.0940 -0.5048  0.2169
 2415SOL    HW1 8686   3.867   6.644   1.195 -0.3898 -0.9658  1.9532
 2415SOL    HW2 8687   3.967   6.754   1.223  0.1892 -0.9130 -0.1372
 2416SOL     OW 8688   7.740   5.058   8.197 -0.2611  0.9075 -0.2604
 2416SOL    HW1 8689   7.799   4.983   8.203 -2.3447 -0.7011  2.2849
 2416SOL    HW2 8690   7.747   5.087   8.106  2.1717 -1.0204 -0.8054
 2417SOL     OW 8691   7.472   5.981   8.370 -0.4604  0.6385  0.4074
 2417SOL    HW1 8692   7.401   6.015   8.424  0.2931  2.3114  0.4245
 2417SOL    HW2 8693   7.461   6.026   8.286 -1.6048 -1.8911 -0.9176
 2418SOL     OW 8694   3.007   0.095  12.077 -0.3231 -1.1311  0.5351
 2418SOL    HW1 8695   3.000   0.051  12.162 -0.6139 -0.7290  0.7178
 2418SOL    HW2 8696   2.948   0.170  12.083  1.6128  0.4276  0.9253
 2419SOL     OW 8697   2.379   5.249  10.075  0.0025  0.1147  0.0502
 2419SOL    HW1 8698   2.381   5.192   9.997 -2.1014 -0.3855  0.3106
 2419SOL    HW2 8699   2.432   5.202  10.140  2.6274  0.9963 -1.2781
 2420SOL     OW 8700   2.437   6.589  10.448 -0.2726  0.3168  0.3493
 2420SOL    HW1 8701   2.423   6.640  10.369 -0.0693 -0.8742 -0.4853
 2420SOL    HW2 8702   2.530   6.597  10.467 -0.4318  1.1008  0.8353
 2421SOL     OW 8703   3.058   5.062  12.019 -0.1304 -0.1454  0.8747
 2421SOL    HW1 8704   3.125   5.013  11.971 -2.2607 -1.6424 -0.7724
 2421SOL    HW2 8705   3.021   4.998  12.081 -0.5826  0.4148  1.1948
 2422SOL     OW 8706   6.090   5.180   3.404 -0.7968  0.0624  0.6076
 2422SOL    HW1 8707   6.139   5.252   3.364 -1.2145 -0.1166 -0.2578
 2422SOL    HW2 8708   6.061   5.214   3.488  1.6871 -0.1693  1.6516
 2423SOL     OW 8709   0.385   7.298  11.553 -0.7253  0.2274 -0.5865
 2423SOL    HW1 8710   0.335   7.375  11.579  0.2395  0.5546  0.3638
 2423SOL    HW2 8711   0.405   7.254  11.635  1.4349  0.6674 -0.8218
 2424SOL     OW 8712   7.390   1.355   4.543  0.7449  0.2526  0.0207
 2424SOL    HW1 8713   7.412   1.321   4.630 -1.2247 -0.4214  0.3052
 2424SOL    HW2 8714   7.309   1.404   4.556  0.1017 -0.3282 -1.5198
 2425SOL     OW 8715   5.097   6.475   7.487  0.5445  0.1828 -0.2334
 2425SOL    HW1 8716   5.187   6.502   7.469  0.6859 -1.3705 -2.1110
 2425SOL    HW2 8717   5.043   6.531   7.432  0.3328  0.9555  0.7204
 2426SOL     OW 8718   6.007   7.794   3.406  0.3813 -0.6204 -0.3661
 2426SOL    HW1 8719   5.970   7.773   3.492  0.9238 -0.9517 -0.2119
 2426SOL    HW2 8720   5.934   7.835   3.358  0.3634  0.5316  0.6016
 2427SOL     OW 8721   0.782   5.558   5.663  0.4840  0.0327  0.4131
 2427SOL    HW1 8722   0.698   5.603   5.676 -1.5476 -2.9604 -1.2720
 2427SOL    HW2 8723   0.805   5.525   5.751 -1.0590 -0.5778  0.6193
 2428SOL     OW 8724   1.791   1.146  10.885 -0.1611  0.2845 -0.6273
 2428SOL    HW1 8725   1.711   1.170  10.931  0.4186 -0.2653  0.7188
 2428SOL    HW2 8726   1.819   1.064  10.927  1.3195  0.6805 -0.7918
 2429SOL     OW 8727   4.985   1.122   1.080 -0.5627 -0.0146 -0.1880
 2429SOL    HW1 8728   4.978   1.029   1.103  0.8457 -0.0653  0.0856
 2429SOL    HW2 8729   4.899   1.158   1.103 -0.7648 -1.0315  0.7537
 2430SOL     OW 8730   5.058   4.306   1.742  0.8911  0.2346  0.1097
 2430SOL    HW1 8731   5.070   4.378   1.680  2.1758  0.4772  0.6099
 2430SOL    HW2 8732   5.009   4.343   1.814  0.5506  0.3003 -0.1534
 2431SOL     OW 8733   1.397   3.856  10.444 -0.0120  0.2027 -0.2992
 2431SOL    HW1 8734   1.425   3.926  10.503 -1.0893 -0.6110  1.2312
 2431SOL    HW2 8735   1.468   3.791  10.448 -1.4213 -1.3321  2.6937
 2432SOL     OW 8736   5.117   0.760   3.751  0.0999 -0.2740  0.2642
 2432SOL    HW1 8737   5.116   0.817   3.827 -3.3379 -0.5435  0.5830
 2432SOL    HW2 8738   5.075   0.812   3.682 -0.1334 -1.2871 -0.3770
 2433SOL     OW 8739   4.376   7.361  12.416  0.3431  0.2095  0.0033
 2433SOL    HW1 8740   4.445   7.347  12.481  0.6711  0.9753 -0.1649
 2433SOL    HW2 8741   4.295   7.339  12.461  0.7167 -1.0800  0.0877
 2434SOL     OW 8742   4.672   3.761   3.470  0.2283  0.2311 -0.3255
 2434SOL    HW1 8743   4.707   3.750   3.559  0.4469  1.1048 -0.2996
 2434SOL    HW2 8744   4.587   3.803   3.482 -0.9048 -1.8783 -0.3913
 2435SOL     OW 8745   2.518   6.055   4.301 -0.2486 -0.1774  0.2250
 2435SOL    HW1 8746   2.483   5.968   4.320  0.1754 -0.9206 -2.0766
 2435SOL    HW2 8747   2.489   6.073   4.212  2.0328  0.8037 -0.3738
 2436SOL     OW 8748   6.258   7.003   1.811 -0.3815 -0.7064 -0.7845
 2436SOL    HW1 8749   6.194   6.939   1.780 -0.3060 -0.7254 -0.9015
 2436SOL    HW2 8750   6.206   7.077   1.842 -0.4419 -0.4182 -1.5410
 2437SOL     OW 8751   5.121   2.451   1.547  0.0472  0.2697 -0.3075
 2437SOL    HW1 8752   5.126   2.546   1.542 -0.4616  0.3428  0.5360
 2437SOL    HW2 8753   5.160   2.421   1.465  0.3198  1.1982 -0.5253
 2438SOL     OW 8754   0.504   4.114   5.016 -0.3831  0.1781  0.1643
 2438SOL    HW1 8755   0.589   4.074   5.033  0.7567  1.7179 -1.5593
 2438SOL    HW2 8756   0.494   4.112   4.921 -2.5790 -0.4883  0.3374
 2439SOL     OW 8757   7.246   2.715   5.817 -0.4056  0.4182 -0.0621
 2439SOL    HW1 8758   7.305   2.704   5.891 -1.7443 -0.6016  0.9103
 2439SOL    HW2 8759   7.198   2.633   5.813 -1.8668  1.2690 -0.6885
 2440SOL     OW 8760   7.033   5.958   4.404 -0.3652 -0.6704  0.2999
 2440SOL    HW1 8761   6.990   5.894   4.461 -0.0874 -0.7026  0.4743
 2440SOL    HW2 8762   7.125   5.933   4.404  0.0672  0.7403  1.7669
 2441SOL     OW 8763   6.680   4.975   7.113  0.0295 -0.1168 -0.5561
 2441SOL    HW1 8764   6.638   5.009   7.192 -0.0222 -0.6428 -0.3540
 2441SOL    HW2 8765   6.631   5.015   7.041  0.6713  1.1121 -0.3434
 2442SOL     OW 8766   0.037   3.139   7.607 -0.0356  0.7151 -0.2585
 2442SOL    HW1 8767  -0.017   3.132   7.528 -1.3255  0.4471  0.6296
 2442SOL    HW2 8768  -0.012   3.196   7.665  1.8729  2.6155 -0.3902
 2443SOL     OW 8769   2.181   1.275   5.703  0.1041  0.0356  0.5179
 2443SOL    HW1 8770   2.189   1.335   5.629 -1.8353  0.0297  0.2442
 2443SOL    HW2 8771   2.231   1.198   5.677  1.3756  0.9368  0.2343
 2444SOL     OW 8772   0.876   2.458   2.109  0.0642 -0.2873 -0.1779
 2444SOL    HW1 8773   0.964   2.475   2.143  1.0521 -2.4728 -1.4490
 2444SOL    HW2 8774   0.890   2.438   2.017 -1.9810  0.8155 -0.7826
 2445SOL     OW 8775   6.990   2.891  10.970  0.4281 -0.0855 -0.1698
 2445SOL    HW1 8776   6.968   2.833  11.042 -3.1457 -0.4322 -1.3213
 2445SOL    HW2 8777   6.962   2.978  11.000  1.3532  0.2459 -0.2202
 2446SOL     OW 8778   5.870   6.555   2.653  0.1448  0.1785 -0.2934
 2446SOL    HW1 8779   5.896   6.616   2.585 -0.9426  0.7661 -0.1982
 2446SOL    HW2 8780   5.923   6.477   2.636  2.9279  1.6968  0.6430
 2447SOL     OW 8781   2.665   1.648   7.714 -0.3183 -0.3667 -0.0238
 2447SOL    HW1 8782   2.601   1.598   7.764  0.8118 -1.6787  0.1575
 2447SOL    HW2 8783   2.736   1.665   7.776 -0.9031  2.0212  0.0949
 2448SOL     OW 8784   3.956   3.351   1.468 -0.3501 -0.4066 -0.4695
 2448SOL    HW1 8785   4.031   3.381   1.417  0.4991 -0.3327  0.7707
 2448SOL    HW2 8786   3.942   3.421   1.532 -1.0828 -0.7063 -0.2966
 2449SOL     OW 8787   3.138   7.784   1.997  0.3255 -1.1193 -0.1583
 2449SOL    HW1 8788   3.157   7.828   2.079  2.6501 -1.4451 -0.4464
 2449SOL    HW2 8789   3.057   7.735   2.013 -0.9428  1.2149  0.9343
 2450SOL     OW 8790   6.027   7.294   2.734 -0.3862  0.0242 -0.0707
 2450SOL    HW1 8791   5.944   7.252   2.756 -1.0548  1.7531  0.9107
 2450SOL    HW2 8792   6.002   7.368   2.678  0.3453  1.1313  1.0006
 2451SOL     OW 8793   6.310   5.167   8.991  0.3986  0.1566  0.4724
 2451SOL    HW1 8794   6.247   5.099   8.968 -1.1559  1.0620  1.8427
 2451SOL    HW2 8795   6.328   5.153   9.084  2.8730 -0.5453 -0.0330
 2452SOL     OW 8796   3.562   0.557   0.289  0.4465 -0.2160  0.2677
 2452SOL    HW1 8797   3.559   0.506   0.370  0.1190  0.6813  0.8344
 2452SOL    HW2 8798   3.576   0.492   0.220  0.9592 -0.9675  1.0646
 2453SOL     OW 8799   5.753   0.620   6.590 -0.1404 -0.5137 -0.6101
 2453SOL    HW1 8800   5.802   0.652   6.665 -0.1474  0.0996 -0.8618
 2453SOL    HW2 8801   5.799   0.655   6.513 -2.0701  1.8316 -0.8305
 2454SOL     OW 8802   2.736   5.159   1.132 -0.2694 -0.2500  0.4346
 2454SOL    HW1 8803   2.658   5.150   1.078  1.4973  0.9085 -2.5476
 2454SOL    HW2 8804   2.740   5.252   1.155 -0.2003 -0.4619  1.3491
 2455SOL     OW 8805   4.956   2.012   4.995 -0.0117 -0.4788 -0.0068
 2455SOL    HW1 8806   5.043   1.974   4.998  0.0782 -0.6180 -2.3699
 2455SOL    HW2 8807   4.970   2.105   4.977 -0.3469 -0.2383  0.9038
 2456SOL     OW 8808   3.857   4.836   3.037 -0.2428 -0.0416 -0.4071
 2456SOL    HW1 8809   3.769   4.837   2.998 -0.9369  0.4117  1.1070
 2456SOL    HW2 8810   3.876   4.744   3.052 -0.9705 -0.0769  0.3423
 2457SOL     OW 8811   2.795   5.394  10.466 -0.0364  0.3312  0.1890
 2457SOL    HW1 8812   2.780   5.445  10.387  1.0484 -0.8296 -0.8003
 2457SOL    HW2 8813   2.828   5.310  10.435 -0.5112 -0.5171  1.8337
 2458SOL     OW 8814   4.472   6.106  12.447  0.0364 -0.4196 -0.1830
 2458SOL    HW1 8815   4.441   6.146  12.366  2.8891 -0.5460 -1.4493
 2458SOL    HW2 8816   4.453   6.013  12.436 -2.9721 -0.0614  1.0333
 2459SOL     OW 8817   0.363   4.433   9.427  0.2180  0.2005  0.2231
 2459SOL    HW1 8818   0.348   4.520   9.464  0.3271  0.3257 -0.0303
 2459SOL    HW2 8819   0.275   4.393   9.424  0.4966 -0.8449  3.1593
 2460SOL     OW 8820   1.328   3.922  10.769  0.6351 -0.2556 -0.5232
 2460SOL    HW1 8821   1.388   3.895  10.839  0.0033  1.0219  0.5500
 2460SOL    HW2 8822   1.379   3.983  10.716  0.2406  1.0609  0.5588
 2461SOL     OW 8823   2.169   6.931   9.884  0.6269 -0.2057  0.3446
 2461SOL    HW1 8824   2.127   6.940   9.970 -0.3098 -1.4290  0.0477
 2461SOL    HW2 8825   2.240   6.869   9.899 -1.0583 -2.4264 -0.1789
 2462SOL     OW 8826   4.027   5.751   2.884 -0.0019 -0.3268 -0.6280
 2462SOL    HW1 8827   4.115   5.781   2.908 -1.0337  1.8791  0.7242
 2462SOL    HW2 8828   3.999   5.697   2.958 -0.1076 -0.3270 -0.6681
 2463SOL     OW 8829   0.919   2.712   2.407 -0.3006 -0.2639 -0.1953
 2463SOL    HW1 8830   0.870   2.670   2.477 -1.1403 -0.6478 -1.0001
 2463SOL    HW2 8831   0.987   2.649   2.384 -0.6647 -0.5736 -0.4233
 2464SOL     OW 8832   3.832   1.417   1.470 -0.0419  0.3675  0.3849
 2464SOL    HW1 8833   3.844   1.472   1.548  2.1377  2.1330 -1.0661
 2464SOL    HW2 8834   3.804   1.478   1.402  1.9209 -0.3639 -1.1570
 2465SOL     OW 8835   6.777   5.711   0.106  0.1266 -0.8139 -0.0485
 2465SOL    HW1 8836   6.696   5.679   0.068  0.0954  1.0427 -1.7348
 2465SOL    HW2 8837   6.846   5.670   0.054  0.1243  0.5209 -1.1576
 2466SOL     OW 8838   2.753   6.054   2.193 -0.1028  0.8157 -0.0532
 2466SOL    HW1 8839   2.832   6.000   2.185 -1.1695 -0.7799 -0.3051
 2466SOL    HW2 8840   2.765   6.101   2.275 -0.2939 -1.9279  1.6977
 2467SOL     OW 8841   2.357   0.320  11.403 -0.0411  0.2234  0.5278
 2467SOL    HW1 8842   2.389   0.379  11.335  0.7563  1.5238  1.9617
 2467SOL    HW2 8843   2.390   0.358  11.485  0.7422 -2.3590  1.5202
 2468SOL     OW 8844   7.275   5.925   7.794 -0.4235  0.4077  0.5345
 2468SOL    HW1 8845   7.363   5.962   7.780 -0.7838  1.7307  1.5865
 2468SOL    HW2 8846   7.232   5.935   7.709  0.6155 -0.8093 -0.1732
 2469SOL     OW 8847   3.333   5.745  10.784 -0.3934 -0.2039  0.2998
 2469SOL    HW1 8848   3.365   5.686  10.852 -2.7189 -1.9455 -0.0159
 2469SOL    HW2 8849   3.241   5.723  10.774 -0.4244  0.8555 -2.5682
 2470SOL     OW 8850   0.419   4.226  11.310 -0.8157 -0.0010  0.1048
 2470SOL    HW1 8851   0.459   4.258  11.391  1.7411 -0.9423 -0.6623
 2470SOL    HW2 8852   0.406   4.132  11.325 -0.9050 -0.0660 -0.3457
 2471SOL     OW 8853   6.783   7.152   2.970  0.1008 -0.3363 -0.1912
 2471SOL    HW1 8854   6.744   7.234   2.939  0.8939 -0.4994 -1.7305
 2471SOL    HW2 8855   6.746   7.085   2.912 -0.8412 -1.1500  1.3043
 2472SOL     OW 8856   1.017   1.416   9.753  0.1154 -0.2343  0.2439
 2472SOL    HW1 8857   1.094   1.449   9.705  0.1811  2.1298  1.8202
 2472SOL    HW2 8858   1.053   1.347   9.809  0.6068 -0.8325 -0.7634
 2473SOL     OW 8859   2.779   0.009  11.742  0.2835  0.0408 -0.4205
 2473SOL    HW1 8860   2.783  -0.050  11.667 -0.7996 -1.1314  0.3936
 2473SOL    HW2 8861   2.871   0.029  11.762  0.6998 -1.5152 -0.6373
 2474SOL     OW 8862   0.698   2.955  11.244 -0.8524  0.2423 -0.2410
 2474SOL    HW1 8863   0.668   2.958  11.154 -0.0731  0.3954 -0.5071
 2474SOL    HW2 8864   0.748   3.036  11.255 -2.4259  1.1199  0.8851
 2475SOL     OW 8865   6.984   2.517   2.402 -0.7138 -0.1392 -0.1123
 2475SOL    HW1 8866   6.904   2.536   2.353  0.2920  1.9260 -1.0530
 2475SOL    HW2 8867   6.957   2.451   2.466 -3.2185  0.6426 -0.2428
 2476SOL     OW 8868   5.195   7.279   6.612  0.0516 -0.1419 -0.1302
 2476SOL    HW1 8869   5.101   7.258   6.614 -0.1046  0.5933  1.2963
 2476SOL    HW2 8870   5.205   7.349   6.676  1.0442  2.1173 -2.5600
 2477SOL     OW 8871   6.602   0.463   5.571 -0.1807 -0.7012  0.0258
 2477SOL    HW1 8872   6.674   0.401   5.582  0.0440 -0.1505  1.8807
 2477SOL    HW2 8873   6.641   0.549   5.588 -0.6441 -0.0581 -1.8294
 2478SOL     OW 8874   3.105   2.215   6.207 -0.0690 -0.2255 -0.3698
 2478SOL    HW1 8875   3.170   2.272   6.249  0.7350 -0.2359 -1.5439
 2478SOL    HW2 8876   3.100   2.247   6.117 -1.0050 -0.8323 -0.5499
 2479SOL     OW 8877   6.965   7.144  10.132 -0.2159  0.1090  0.0949
 2479SOL    HW1 8878   7.027   7.082  10.170  1.0368  1.3437  0.1433
 2479SOL    HW2 8879   6.938   7.199  10.205 -0.6596  0.1625 -0.1062
 2480SOL     OW 8880   7.789   3.167   6.997  0.3754 -0.2999 -0.4587
 2480SOL    HW1 8881   7.790   3.076   7.026 -1.5435  0.1125  1.1637
 2480SOL    HW2 8882   7.880   3.194   6.998  0.9748 -2.1527 -0.8902
 2481SOL     OW 8883   6.775   7.038   1.079 -0.0107  0.0308 -0.0151
 2481SOL    HW1 8884   6.792   7.101   1.008 -1.3955 -0.3245 -0.6966
 2481SOL    HW2 8885   6.699   7.073   1.124  0.7676  0.1639  1.2247
 2482SOL     OW 8886   3.165   6.393   1.830  0.1507 -0.1301  0.2817
 2482SOL    HW1 8887   3.146   6.487   1.824  2.7263  0.5850  1.6252
 2482SOL    HW2 8888   3.213   6.373   1.750 -0.8416 -0.4806 -0.2504
 2483SOL     OW 8889   4.173   5.609  11.461  0.6969  0.0816  0.2031
 2483SOL    HW1 8890   4.207   5.519  11.465 -2.7599 -1.3887  0.4783
 2483SOL    HW2 8891   4.152   5.623  11.369  0.9373  0.4777  0.2087
 2484SOL     OW 8892   1.267   3.904   0.154  0.1218  0.1321 -0.2362
 2484SOL    HW1 8893   1.215   3.868   0.082  1.2464 -0.9357 -0.5410
 2484SOL    HW2 8894   1.224   3.987   0.174 -0.9874 -0.1512 -1.2661
 2485SOL     OW 8895   1.849   5.570  11.675 -0.1387  0.0323  0.0824
 2485SOL    HW1 8896   1.864   5.546  11.767 -0.5105 -1.8276 -0.2924
 2485SOL    HW2 8897   1.779   5.635  11.678 -0.8503 -0.7468  1.0807
 2486SOL     OW 8898   7.363   5.547   1.892  0.0282 -0.1533  0.0978
 2486SOL    HW1 8899   7.310   5.584   1.823 -0.7189 -0.9838  0.2053
 2486SOL    HW2 8900   7.449   5.587   1.881 -0.0204 -0.4363 -1.4346
 2487SOL     OW 8901   0.500   7.329  10.666 -0.5173  0.1446 -0.0684
 2487SOL    HW1 8902   0.581   7.277  10.664 -1.2258 -1.0514  1.0407
 2487SOL    HW2 8903   0.524   7.411  10.623  1.1892 -0.3176 -0.0879
 2488SOL     OW 8904   6.641   4.393   3.865  0.2686 -0.0849  0.0090
 2488SOL    HW1 8905   6.618   4.441   3.944 -0.0356  2.0213 -1.2873
 2488SOL    HW2 8906   6.737   4.388   3.866  0.2746  0.1516  0.3755
 2489SOL     OW 8907   6.527   7.148   5.533  0.1718  0.2717  0.3592
 2489SOL    HW1 8908   6.568   7.100   5.605 -1.3332  0.6010  1.4680
 2489SOL    HW2 8909   6.601   7.183   5.483  1.2491 -0.4555  1.3867
 2490SOL     OW 8910   7.175   6.982   2.114 -0.0598 -0.4266 -0.0579
 2490SOL    HW1 8911   7.257   6.947   2.080  0.9240  0.0594  1.6256
 2490SOL    HW2 8912   7.106   6.935   2.068  1.1759 -2.6650  0.2340
 2491SOL     OW 8913   1.046   7.298   8.054  0.1622 -0.1824  0.4665
 2491SOL    HW1 8914   1.140   7.277   8.053 -0.0241 -1.3637  2.4705
 2491SOL    HW2 8915   1.031   7.334   8.141 -1.0949  0.8587 -0.1601
 2492SOL     OW 8916   7.109   5.211   6.853  0.5608  0.2132  0.2832
 2492SOL    HW1 8917   7.040   5.267   6.888 -0.6616 -1.1054  0.0811
 2492SOL    HW2 8918   7.107   5.225   6.759 -0.3940 -0.8341  0.1294
 2493SOL     OW 8919   2.201   2.043   6.177 -0.2339  0.2903  0.0385
 2493SOL    HW1 8920   2.155   2.122   6.150  0.4963  0.4832 -0.6919
 2493SOL    HW2 8921   2.150   1.972   6.139  0.5257  0.5401 -1.5394
 2494SOL     OW 8922   0.572   2.151   7.322 -0.1536  0.1742  0.1768
 2494SOL    HW1 8923   0.505   2.193   7.376  0.1231  1.6331 -0.5924
 2494SOL    HW2 8924   0.524   2.122   7.244 -0.1406 -0.0395  0.2460
 2495SOL     OW 8925   5.180   6.111   8.196  0.2304 -0.4353 -0.1568
 2495SOL    HW1 8926   5.092   6.090   8.166 -0.4476  2.4733 -0.5434
 2495SOL    HW2 8927   5.238   6.061   8.139 -1.1322  0.7632 -2.7237
 2496SOL     OW 8928   7.262   4.448  11.840 -0.1376  0.1263 -0.1091
 2496SOL    HW1 8929   7.338   4.461  11.897 -0.1906  0.8598 -0.1868
 2496SOL    HW2 8930   7.206   4.386  11.888 -0.0325  0.4825  0.4912
 2497SOL     OW 8931   1.479   7.492   2.623 -0.0329 -0.3848 -0.6739
 2497SOL    HW1 8932   1.505   7.501   2.531 -0.7425 -0.6505 -0.9101
 2497SOL    HW2 8933   1.416   7.420   2.623 -0.3448 -0.1170 -0.0366
 2498SOL     OW 8934   0.449   7.275  12.177 -0.0357 -0.1062 -0.0801
 2498SOL    HW1 8935   0.498   7.332  12.118 -1.2192  0.4470 -0.5479
 2498SOL    HW2 8936   0.452   7.318  12.262 -0.4590  0.3817 -0.3101
 2499SOL     OW 8937   5.297   7.617   3.916 -0.3959  0.5780  0.4880
 2499SOL    HW1 8938   5.219   7.668   3.893 -0.1803  0.6822 -0.0247
 2499SOL    HW2 8939   5.266   7.527   3.926 -0.4788  0.5062 -0.3471
 2500SOL     OW 8940   1.412   2.614   7.794 -0.3896  0.0125  0.7576
 2500SOL    HW1 8941   1.506   2.598   7.788 -0.0323  1.6343  1.4407
 2500SOL    HW2 8942   1.373   2.547   7.738  1.1693 -0.6031  0.3380
 2501SOL     OW 8943   7.513   2.201   2.462  0.3713  0.4964  0.2630
 2501SOL    HW1 8944   7.529   2.295   2.467  0.0665  0.5381  0.5026
 2501SOL    HW2 8945   7.421   2.192   2.487  0.6579  0.0383  1.1792
 2502SOL     OW 8946   2.744   3.691   0.593  0.2415 -0.1689  0.1911
 2502SOL    HW1 8947   2.745   3.695   0.688  1.1670  2.0827  0.1361
 2502SOL    HW2 8948   2.788   3.771   0.564 -2.0598  0.4140 -2.1504
 2503SOL     OW 8949   3.250   7.563  10.670 -0.2675  0.2783 -0.3062
 2503SOL    HW1 8950   3.220   7.556  10.579 -1.9362 -1.6514  0.3206
 2503SOL    HW2 8951   3.171   7.585  10.719  0.2542 -0.4177  0.8802
 2504SOL     OW 8952   4.644   0.803   9.677 -0.1044 -0.5157  0.0433
 2504SOL    HW1 8953   4.686   0.730   9.633  1.7400  0.7029 -0.3205
 2504SOL    HW2 8954   4.650   0.876   9.615  0.5080  0.6361  1.4016
 2505SOL     OW 8955   5.447   1.374   7.383 -0.1838  0.1193 -0.3865
 2505SOL    HW1 8956   5.439   1.421   7.300 -0.1258  1.3336  0.2887
 2505SOL    HW2 8957   5.363   1.388   7.427 -0.0588 -0.1714 -0.0535
 2506SOL     OW 8958   3.058   6.399   4.387  0.1946 -0.4252  0.0578
 2506SOL    HW1 8959   2.972   6.359   4.376 -0.0219  0.3047 -1.0254
 2506SOL    HW2 8960   3.048   6.456   4.463 -0.5380  0.3047 -0.5719
 2507SOL     OW 8961   2.677   5.764   3.982  0.0245 -0.2164  0.3481
 2507SOL    HW1 8962   2.710   5.849   4.013 -1.4328 -0.4299  2.7519
 2507SOL    HW2 8963   2.727   5.747   3.902 -0.2182  3.2683 -0.7294
 2508SOL     OW 8964   6.819   4.020   5.891  0.4286 -0.3001 -0.1201
 2508SOL    HW1 8965   6.911   3.994   5.882  1.2749  1.8263  1.3316
 2508SOL    HW2 8966   6.814   4.059   5.979 -1.6111  0.5726 -0.5574
 2509SOL     OW 8967   5.284   2.874   3.822  0.0237 -0.1249 -0.3676
 2509SOL    HW1 8968   5.225   2.902   3.892  1.0822  1.2396  0.0358
 2509SOL    HW2 8969   5.350   2.944   3.817  0.1391 -0.3136 -2.5522
 2510SOL     OW 8970   7.600   2.500   1.379 -0.2287 -0.1912  0.0969
 2510SOL    HW1 8971   7.659   2.433   1.413  0.1024  0.6401  1.2116
 2510SOL    HW2 8972   7.652   2.580   1.381 -1.4580  0.6172  1.3994
 2511SOL     OW 8973   2.301   4.808  10.195 -0.0658 -0.5150  0.4306
 2511SOL    HW1 8974   2.321   4.742  10.129 -0.7839 -0.5301  0.2111
 2511SOL    HW2 8975   2.367   4.796  10.263  0.9927 -0.1779 -0.5081
 2512SOL     OW 8976   0.142   4.656   8.405  0.0088  0.4690 -0.4697
 2512SOL    HW1 8977   0.113   4.579   8.357 -0.0278  0.3972 -0.3341
 2512SOL    HW2 8978   0.214   4.691   8.353  0.8737 -0.3829  0.0947
 2513SOL     OW 8979   2.309   7.524   7.417 -0.0000 -0.1885 -0.1292
 2513SOL    HW1 8980   2.237   7.483   7.369 -0.0186 -1.2823  0.7870
 2513SOL    HW2 8981   2.384   7.519   7.358 -0.2613 -0.6254 -0.4255
 2514SOL     OW 8982   6.737   4.778   4.794  0.5352  0.1312  0.7187
 2514SOL    HW1 8983   6.669   4.845   4.801 -0.4528 -0.8906  1.1477
 2514SOL    HW2 8984   6.689   4.695   4.789  1.6927 -0.5172 -0.6266
 2515SOL     OW 8985   4.383   7.319   9.274  0.0403 -0.1287 -0.2588
 2515SOL    HW1 8986   4.407   7.399   9.322 -0.1539 -0.4286  0.3496
 2515SOL    HW2 8987   4.444   7.317   9.200 -0.3017  0.8675 -0.5937
 2516SOL     OW 8988   7.964   7.981   5.183  0.0858  0.3315  0.7139
 2516SOL    HW1 8989   8.012   7.899   5.198 -2.1628 -1.2082  0.0086
 2516SOL    HW2 8990   7.917   7.967   5.101  0.1462  2.6178  0.2326
 2517SOL     OW 8991   4.844   5.572  11.350  0.0826 -0.3646  0.8445
 2517SOL    HW1 8992   4.917   5.520  11.384 -1.2795 -1.4908  2.1808
 2517SOL    HW2 8993   4.821   5.529  11.267  1.2946  0.3691  0.1040
 2518SOL     OW 8994   2.252   3.364  10.155  0.2290 -0.3676 -0.3361
 2518SOL    HW1 8995   2.224   3.273  10.166  1.2027 -0.4937  1.4421
 2518SOL    HW2 8996   2.332   3.359  10.102 -1.3117 -0.2459 -2.8246
 2519SOL     OW 8997   6.210   4.875   3.554  0.1651 -0.2554 -0.8134
 2519SOL    HW1 8998   6.200   4.784   3.582 -0.9376 -0.4614 -1.7761
 2519SOL    HW2 8999   6.301   4.881   3.525  0.4883 -0.8114  0.0164
 2520SOL     OW 9000   0.035   4.987  10.007 -0.0119 -0.4658 -0.6189
 2520SOL    HW1 9001   0.058   5.041  10.083 -0.2181 -1.1621 -0.0520
 2520SOL    HW2 9002   0.101   5.009   9.942  0.6995 -0.5012  0.0701
 2521SOL     OW 9003   0.667   4.981   5.003 -1.1817 -0.3277 -0.3953
 2521SOL    HW1 9004   0.602   4.989   5.073  0.3413  0.7779  0.9554
 2521SOL    HW2 9005   0.721   4.907   5.030  1.2707  1.9043  1.3086
 2522SOL     OW 9006   1.517   5.725   3.619  0.1881 -0.0083 -0.2933
 2522SOL    HW1 9007   1.611   5.713   3.632  0.3257  1.3684  0.0870
 2522SOL    HW2 9008   1.505   5.731   3.525  0.9033  2.7020 -0.2855
 2523SOL     OW 9009   2.622   3.881   9.854 -0.2333 -0.3796  0.4866
 2523SOL    HW1 9010   2.697   3.838   9.895  0.4157  0.9662  0.7661
 2523SOL    HW2 9011   2.599   3.824   9.780  0.5423 -1.2303  0.8816
 2524SOL     OW 9012   3.822   1.425   6.846 -0.2579  0.5089  0.4109
 2524SOL    HW1 9013   3.917   1.414   6.839 -0.1245  1.5747  0.4045
 2524SOL    HW2 9014   3.788   1.376   6.771  0.2363 -0.4013  0.7612
 2525SOL     OW 9015   5.795   4.562   7.902  0.3948 -0.6428 -0.2295
 2525SOL    HW1 9016   5.790   4.468   7.914  1.6289 -0.6718  0.2053
 2525SOL    HW2 9017   5.705   4.593   7.913 -0.5463 -2.0383 -3.0966
 2526SOL     OW 9018   5.502   4.816   2.499 -0.1447 -0.3235 -0.0517
 2526SOL    HW1 9019   5.546   4.895   2.467 -0.3836 -0.6498 -1.2429
 2526SOL    HW2 9020   5.494   4.830   2.593  1.6119  0.1836  0.0640
 2527SOL     OW 9021   3.836   0.087   1.508  0.2001 -0.1826 -0.3207
 2527SOL    HW1 9022   3.847   0.175   1.472  1.1345  0.0149  0.4257
 2527SOL    HW2 9023   3.925   0.058   1.530 -0.3417 -0.0074  2.4638
 2528SOL     OW 9024   2.651   1.097   6.085 -0.5461  0.3939 -0.8757
 2528SOL    HW1 9025   2.695   1.043   6.151 -1.1540 -0.5224 -1.1896
 2528SOL    HW2 9026   2.686   1.185   6.099 -0.7682  0.2620  0.7676
 2529SOL     OW 9027   2.783   0.627  10.271 -0.6711 -0.1446  0.0706
 2529SOL    HW1 9028   2.811   0.581  10.350  0.8387  1.1191  0.3054
 2529SOL    HW2 9029   2.864   0.655  10.229 -1.4740 -0.2378 -1.6059
 2530SOL     OW 9030   6.755   0.207   7.683  0.3014  0.0412  0.1427
 2530SOL    HW1 9031   6.761   0.300   7.704  0.8586 -0.1706  0.9601
 2530SOL    HW2 9032   6.815   0.195   7.610  0.8173  0.1801  0.5407
 2531SOL     OW 9033   6.611   3.397   2.605  0.6229  0.5430  0.3516
 2531SOL    HW1 9034   6.685   3.437   2.559 -0.3006  1.6162 -0.2776
 2531SOL    HW2 9035   6.601   3.450   2.684  1.6767 -0.7731  1.4059
 2532SOL     OW 9036   2.883   6.070   4.764  0.0075 -0.6399 -0.6588
 2532SOL    HW1 9037   2.943   5.999   4.744 -0.7419 -1.8795  1.1804
 2532SOL    HW2 9038   2.836   6.040   4.842 -0.6232  1.7156 -0.0529
 2533SOL     OW 9039   4.937   6.558   8.745  0.3228  0.2700  0.5026
 2533SOL    HW1 9040   4.961   6.471   8.777  1.5766  0.8080  1.0758
 2533SOL    HW2 9041   4.953   6.554   8.651  1.7656  0.3068  0.7303
 2534SOL     OW 9042   6.003   3.492   6.519 -0.5831 -0.6244 -0.4608
 2534SOL    HW1 9043   5.997   3.562   6.453 -0.2439 -0.8279 -0.7100
 2534SOL    HW2 9044   5.965   3.531   6.598  2.5299  1.0403  0.3715
 2535SOL     OW 9045   5.770   0.621  12.328 -0.7130 -0.1078  0.1700
 2535SOL    HW1 9046   5.843   0.651  12.383  1.0657 -0.7482 -1.7220
 2535SOL    HW2 9047   5.740   0.541  12.371 -0.2187  0.0852  0.9108
 2536SOL     OW 9048   7.243   2.732   0.660  0.4199 -0.2934 -0.1564
 2536SOL    HW1 9049   7.287   2.648   0.674  0.9165 -0.0106 -0.0005
 2536SOL    HW2 9050   7.164   2.726   0.714  0.1089 -0.9153 -0.6614
 2537SOL     OW 9051   1.267   2.917  11.781 -0.2695  0.2579  0.0799
 2537SOL    HW1 9052   1.283   2.955  11.867 -1.9296  3.4750 -0.8365
 2537SOL    HW2 9053   1.173   2.896  11.781 -0.1532 -0.3071 -0.7171
 2538SOL     OW 9054   3.627   0.738  10.222  0.0401  0.2003  0.2736
 2538SOL    HW1 9055   3.561   0.742  10.292  0.5132 -0.8320  0.7923
 2538SOL    HW2 9056   3.707   0.770  10.263  0.2037  0.0684  0.0540
 2539SOL     OW 9057   4.518   4.362  10.424 -0.1036 -0.2714  0.4588
 2539SOL    HW1 9058   4.435   4.314  10.428 -0.3256 -0.1782 -1.8054
 2539SOL    HW2 9059   4.534   4.390  10.514 -2.0212 -1.1435  1.1167
 2540SOL     OW 9060   3.723   6.936   7.741  0.4652 -0.2797  0.5102
 2540SOL    HW1 9061   3.671   6.988   7.681  0.0448  0.2228  1.2931
 2540SOL    HW2 9062   3.813   6.966   7.728  0.1834  0.9427  1.2327
 2541SOL     OW 9063   3.474   5.602   3.359  0.6714  0.3710  0.0757
 2541SOL    HW1 9064   3.478   5.583   3.453  1.4016 -1.3781 -0.2686
 2541SOL    HW2 9065   3.395   5.557   3.329  0.8205  0.3308 -0.2580
 2542SOL     OW 9066   0.473   1.232   1.506  0.8529 -0.1929  0.5043
 2542SOL    HW1 9067   0.468   1.289   1.583  0.3931 -0.7648  0.9064
 2542SOL    HW2 9068   0.410   1.163   1.523 -0.3674  0.4660 -1.0782
 2543SOL     OW 9069   2.413   2.314   3.616  0.0440  0.2332 -0.3385
 2543SOL    HW1 9070   2.402   2.239   3.673  1.6573  0.0522 -0.2279
 2543SOL    HW2 9071   2.331   2.363   3.625 -0.3739 -0.6385  0.8464
 2544SOL     OW 9072   6.976   1.040   3.983  0.0433  0.5191 -0.2785
 2544SOL    HW1 9073   6.992   1.067   3.893 -1.0840  0.5185 -0.4915
 2544SOL    HW2 9074   6.968   1.122   4.031  1.0900  0.5235 -0.0689
 2545SOL     OW 9075   3.203   0.955   6.934 -0.4326 -0.2153  0.6264
 2545SOL    HW1 9076   3.145   1.031   6.926  0.3953  0.2583 -2.0286
 2545SOL    HW2 9077   3.160   0.888   6.880  0.3980 -0.5611  0.3864
 2546SOL     OW 9078   6.407   7.810  12.317 -0.3922 -0.2430 -0.3211
 2546SOL    HW1 9079   6.476   7.858  12.270  1.8241 -0.5394  2.3451
 2546SOL    HW2 9080   6.332   7.813  12.258  1.2974  1.7460 -2.6212
 2547SOL     OW 9081   6.095   7.027   7.166 -0.3394  0.1107 -0.2585
 2547SOL    HW1 9082   6.078   7.099   7.227 -1.7221 -0.0003 -0.4897
 2547SOL    HW2 9083   6.089   7.068   7.079 -0.6007 -0.1708 -0.3735
 2548SOL     OW 9084   6.485   3.922   2.408  0.4374 -0.4319  0.2313
 2548SOL    HW1 9085   6.473   3.903   2.501  0.0752 -0.7907  0.1135
 2548SOL    HW2 9086   6.541   3.850   2.377 -1.3520 -1.6425 -0.3300
 2549SOL     OW 9087   0.278   3.025   8.326 -0.3080 -0.2568  0.2608
 2549SOL    HW1 9088   0.298   2.948   8.378  2.1842  1.0890  1.4818
 2549SOL    HW2 9089   0.233   3.084   8.386 -1.1804 -0.2963 -0.3392
 2550SOL     OW 9090   4.946   5.526   5.964 -0.0078  0.8535 -0.2247
 2550SOL    HW1 9091   4.860   5.512   5.926  0.0347  0.9681 -0.3618
 2550SOL    HW2 9092   4.977   5.438   5.987  1.4724  0.3178 -3.6772
 2551SOL     OW 9093   7.763   1.146   0.985 -0.4781 -0.2344 -0.0949
 2551SOL    HW1 9094   7.806   1.161   0.900  1.7511 -2.1354  0.6066
 2551SOL    HW2 9095   7.806   1.208   1.044  1.6677 -2.3461  0.6757
 2552SOL     OW 9096   2.939   3.458   8.508 -0.2093 -0.1123 -0.1048
 2552SOL    HW1 9097   2.901   3.545   8.522  0.1568 -0.0137  0.2905
 2552SOL    HW2 9098   3.005   3.449   8.576 -0.2577 -0.7124 -0.1300
 2553SOL     OW 9099   4.458   4.798   0.332 -0.2603 -0.7900  0.0238
 2553SOL    HW1 9100   4.485   4.749   0.255 -0.8831  0.6261 -1.1506
 2553SOL    HW2 9101   4.537   4.844   0.360 -0.0654 -1.2033  0.1617
 2554SOL     OW 9102   7.505   2.024   5.444 -0.3574 -0.4105 -0.1426
 2554SOL    HW1 9103   7.516   2.102   5.498 -0.7045  0.2926 -1.0624
 2554SOL    HW2 9104   7.430   2.044   5.387  0.3985 -0.8541 -1.3414
 2555SOL     OW 9105   6.768   5.762   1.202 -0.0268  0.4871 -0.2715
 2555SOL    HW1 9106   6.843   5.789   1.148  2.4119 -2.3780  1.3509
 2555SOL    HW2 9107   6.692   5.774   1.145  1.9301  1.1161 -2.9678
 2556SOL     OW 9108   4.916   4.444   3.463  0.1629  0.0681 -0.5440
 2556SOL    HW1 9109   4.965   4.365   3.487  0.3075 -0.0033 -1.0510
 2556SOL    HW2 9110   4.974   4.490   3.402  0.1688  0.6784 -0.0815
 2557SOL     OW 9111   1.960   4.459   1.624 -0.0151 -1.0161  0.5243
 2557SOL    HW1 9112   2.030   4.395   1.633 -0.2990 -1.3533  0.3695
 2557SOL    HW2 9113   1.880   4.407   1.616 -0.1443 -0.6825 -0.6627
 2558SOL     OW 9114   5.263   1.085  12.247 -0.1706  0.0591 -0.3884
 2558SOL    HW1 9115   5.215   1.064  12.168 -1.0106 -0.7503  0.3110
 2558SOL    HW2 9116   5.245   1.178  12.262 -0.3953  0.0984 -0.8864
 2559SOL     OW 9117   5.042   3.379   2.535 -0.2006 -0.5405  0.2209
 2559SOL    HW1 9118   5.088   3.449   2.581 -0.9634  0.4015 -0.3828
 2559SOL    HW2 9119   4.973   3.352   2.595 -0.0705 -0.5859  0.3503
 2560SOL     OW 9120   6.049   1.326   9.227  0.1566 -0.1288  0.6903
 2560SOL    HW1 9121   6.063   1.232   9.237 -0.7865 -0.1129  2.8772
 2560SOL    HW2 9122   5.987   1.334   9.154  1.4470 -1.0443 -0.5556
 2561SOL     OW 9123   4.719   3.747   7.567  0.5054 -0.4662 -0.8586
 2561SOL    HW1 9124   4.635   3.706   7.551  0.8655 -1.1451 -1.0442
 2561SOL    HW2 9125   4.774   3.677   7.604  0.8501  0.0813 -0.3049
 2562SOL     OW 9126   6.433   4.838   8.989  0.4828 -0.9641 -0.0097
 2562SOL    HW1 9127   6.444   4.918   9.041  0.9432 -2.2397  1.9862
 2562SOL    HW2 9128   6.492   4.850   8.915 -0.7241  1.2329 -0.7181
 2563SOL     OW 9129   1.457   7.132   6.583 -0.3055 -0.0718 -0.4418
 2563SOL    HW1 9130   1.421   7.210   6.540  0.8687 -0.3679 -2.0925
 2563SOL    HW2 9131   1.534   7.109   6.530  1.2164 -0.5462  1.8293
 2564SOL     OW 9132   1.483   4.121   4.052 -0.2837  0.4492  0.2218
 2564SOL    HW1 9133   1.405   4.082   4.091 -0.4941  1.4271  0.8288
 2564SOL    HW2 9134   1.458   4.212   4.035  0.2509  0.3960 -0.9587
 2565SOL     OW 9135   6.404   1.596   6.552  0.4532  0.4660 -0.3813
 2565SOL    HW1 9136   6.389   1.608   6.458  0.3572 -1.0754 -0.5946
 2565SOL    HW2 9137   6.317   1.583   6.589  0.5158  0.7687 -0.1266
 2566SOL     OW 9138   4.851   2.333   2.098 -0.4259  0.5958 -0.1306
 2566SOL    HW1 9139   4.920   2.377   2.048  0.8309  1.1625  1.9975
 2566SOL    HW2 9140   4.868   2.239   2.085  1.2950  0.7084  0.9966
 2567SOL     OW 9141   3.584   2.156   4.750 -0.1259  0.0479  0.1613
 2567SOL    HW1 9142   3.535   2.109   4.818 -1.4007  1.3087  0.1488
 2567SOL    HW2 9143   3.663   2.102   4.737 -0.0366 -0.4618  2.3080
 2568SOL     OW 9144   0.335   7.200   1.855  0.4889 -0.5394 -0.0794
 2568SOL    HW1 9145   0.288   7.126   1.816  1.2065 -0.8396 -0.4000
 2568SOL    HW2 9146   0.281   7.228   1.928  0.9644 -2.4006  1.0426
 2569SOL     OW 9147   1.451   4.589  11.003  0.0456  0.2442 -0.3503
 2569SOL    HW1 9148   1.420   4.585  10.912  2.2767 -1.2090 -1.1508
 2569SOL    HW2 9149   1.525   4.650  11.001  0.4134 -0.1587  0.3729
 2570SOL     OW 9150   6.781   3.090   8.187  0.1962 -0.2082  0.4020
 2570SOL    HW1 9151   6.818   3.158   8.244 -1.2673 -0.1239  1.2943
 2570SOL    HW2 9152   6.771   3.014   8.245 -0.4733 -0.4031  0.0296
 2571SOL     OW 9153   2.843   3.580   2.016 -0.2674 -0.2114 -0.4870
 2571SOL    HW1 9154   2.882   3.495   2.000  0.4497  0.1125 -0.4890
 2571SOL    HW2 9155   2.885   3.611   2.097 -0.9338 -0.1055 -0.1759
 2572SOL     OW 9156   3.112   7.246  11.200  0.4020  0.4759  0.0253
 2572SOL    HW1 9157   3.171   7.231  11.274  0.9538 -1.5248 -0.7424
 2572SOL    HW2 9158   3.168   7.283  11.132  0.0337  1.7013  0.3706
 2573SOL     OW 9159   0.924   2.599   6.186 -0.3795 -0.3322 -0.2650
 2573SOL    HW1 9160   0.950   2.570   6.274 -1.8082  0.1997  0.3565
 2573SOL    HW2 9161   0.835   2.568   6.175 -0.3979  0.0517 -1.3390
 2574SOL     OW 9162   4.758   2.566   6.621 -0.0046 -0.0930 -0.2013
 2574SOL    HW1 9163   4.853   2.572   6.627 -0.1157  0.3102  2.0723
 2574SOL    HW2 9164   4.741   2.552   6.528  2.3032 -0.9966 -0.5597
 2575SOL     OW 9165   4.172   5.700   7.813 -0.4410 -0.3260 -0.1182
 2575SOL    HW1 9166   4.133   5.759   7.749 -4.1856 -2.2971  0.0905
 2575SOL    HW2 9167   4.115   5.707   7.890  1.4086 -1.2331  1.4079
 2576SOL     OW 9168   2.303   2.435   6.467  0.1584  0.1943  0.3293
 2576SOL    HW1 9169   2.223   2.488   6.471  0.2297  0.3753 -0.5022
 2576SOL    HW2 9170   2.369   2.488   6.511  0.0152  0.3987  0.3028
 2577SOL     OW 9171   1.480   6.247   8.170  0.3837  0.2833  0.1753
 2577SOL    HW1 9172   1.540   6.276   8.238  2.9223 -0.4428 -1.6395
 2577SOL    HW2 9173   1.515   6.163   8.140 -1.9011 -0.4760 -0.5798
 2578SOL     OW 9174   0.636   7.688   0.528 -0.0091  0.2802 -0.1235
 2578SOL    HW1 9175   0.685   7.708   0.608 -0.9510  2.5810 -0.0502
 2578SOL    HW2 9176   0.573   7.621   0.555  0.1571  0.5182  0.8835
 2579SOL     OW 9177   4.836   4.242   2.168 -0.3554 -0.4504  0.0492
 2579SOL    HW1 9178   4.788   4.325   2.166 -0.5152 -0.5509 -1.0994
 2579SOL    HW2 9179   4.769   4.175   2.157 -0.1736 -0.7097  0.4924
 2580SOL     OW 9180   0.062   4.801   9.396 -0.5489  0.4070  0.5438
 2580SOL    HW1 9181   0.065   4.745   9.318 -2.9613 -0.9173  1.3010
 2580SOL    HW2 9182  -0.021   4.849   9.387 -2.0199 -1.3765  3.2394
 2581SOL     OW 9183   5.509   2.975  10.116  0.1445  0.0933  0.7079
 2581SOL    HW1 9184   5.474   3.062  10.135  2.1344  0.9404  0.6657
 2581SOL    HW2 9185   5.553   2.949  10.197 -0.2095 -0.7884  0.6323
 2582SOL     OW 9186   0.650   1.041   6.195  0.3005  0.1213  0.1562
 2582SOL    HW1 9187   0.685   1.111   6.140 -1.3594  1.6639  0.9498
 2582SOL    HW2 9188   0.727   0.995   6.228  1.5158  2.1586  0.3341
 2583SOL     OW 9189   1.972   1.600   9.941 -0.3413 -0.7492 -0.1609
 2583SOL    HW1 9190   1.909   1.657   9.984  1.6848  0.2778  1.6378
 2583SOL    HW2 9191   2.047   1.657   9.922  1.1535 -2.4621  0.2854
 2584SOL     OW 9192   6.013   5.079   5.779  0.2434  0.3753 -0.2321
 2584SOL    HW1 9193   5.928   5.076   5.822  0.4427 -1.1424  0.0955
 2584SOL    HW2 9194   5.998   5.131   5.700 -0.8092  0.7267  0.1824
 2585SOL     OW 9195   2.991   1.057   9.725  0.3522 -0.2100 -0.0764
 2585SOL    HW1 9196   2.968   1.093   9.810  2.1348  2.3395 -0.5348
 2585SOL    HW2 9197   3.086   1.065   9.720  0.4564 -1.7210 -1.7413
 2586SOL     OW 9198   4.270   0.537   4.254  0.3394  0.4553  0.3523
 2586SOL    HW1 9199   4.232   0.454   4.282  1.3083 -0.0659  0.1561
 2586SOL    HW2 9200   4.308   0.575   4.333 -1.1372  1.3143  0.6980
 2587SOL     OW 9201   6.173   3.336  12.452 -0.2360 -0.0733 -0.0310
 2587SOL    HW1 9202   6.097   3.314  12.399 -0.1321  1.2467 -0.7778
 2587SOL    HW2 9203   6.138   3.347  12.541 -0.8523  0.1216 -0.2926
 2588SOL     OW 9204   5.765   0.361   7.841  0.2051  0.0848  0.3354
 2588SOL    HW1 9205   5.836   0.299   7.856  1.4505  0.7046 -2.3877
 2588SOL    HW2 9206   5.720   0.328   7.763 -1.4598  0.6330  1.0140
 2589SOL     OW 9207   7.408   5.189   2.004  0.3535  0.1297 -0.2723
 2589SOL    HW1 9208   7.390   5.207   2.096  1.7461  4.5778 -0.6389
 2589SOL    HW2 9209   7.323   5.197   1.961 -0.2137 -1.4726  0.4444
 2590SOL     OW 9210   5.161   0.116  11.702 -0.8284  0.1993 -0.1481
 2590SOL    HW1 9211   5.163   0.021  11.710  0.1213  0.2263  0.0422
 2590SOL    HW2 9212   5.220   0.147  11.770 -1.1938  0.9377 -0.1556
 2591SOL     OW 9213   6.230   1.263   0.256 -0.0784 -0.0994  0.1599
 2591SOL    HW1 9214   6.158   1.253   0.194  0.5892  0.0209 -0.6529
 2591SOL    HW2 9215   6.265   1.350   0.239  0.1598 -0.0968  0.6489
 2592SOL     OW 9216   4.840   1.257   1.748  0.2536 -0.0901  0.5527
 2592SOL    HW1 9217   4.897   1.182   1.767  0.5771  0.4222  1.7115
 2592SOL    HW2 9218   4.891   1.310   1.687  0.5983 -0.1452  0.7849
 2593SOL     OW 9219   2.172   1.303   1.576  0.6276  0.5441 -0.1386
 2593SOL    HW1 9220   2.198   1.334   1.663 -0.3441 -1.6880  1.0266
 2593SOL    HW2 9221   2.100   1.243   1.593  0.1552  0.3384 -2.5612
 2594SOL     OW 9222   0.480   1.553   2.629 -0.4417 -0.1221  0.3541
 2594SOL    HW1 9223   0.478   1.641   2.594  2.0113 -0.2127 -0.1765
 2594SOL    HW2 9224   0.567   1.544   2.669 -0.8748 -2.0554  1.0058
 2595SOL     OW 9225   3.604   7.562   4.761  0.1666 -0.1903 -0.1835
 2595SOL    HW1 9226   3.539   7.576   4.830  0.9194 -1.5196  0.8515
 2595SOL    HW2 9227   3.667   7.634   4.772  0.0058 -0.1057  0.1910
 2596SOL     OW 9228   1.988   2.989   6.481 -0.7844  0.8876 -0.1038
 2596SOL    HW1 9229   1.908   3.038   6.467 -1.2695  0.5476  1.2669
 2596SOL    HW2 9230   2.004   2.996   6.575 -1.2165 -2.0392  0.2802
 2597SOL     OW 9231   3.322   3.221   8.669 -0.1203 -0.1180  0.0289
 2597SOL    HW1 9232   3.271   3.253   8.743  0.5367 -1.0212  0.8953
 2597SOL    HW2 9233   3.288   3.133   8.652 -0.8173  0.3754 -1.2916
 2598SOL     OW 9234   5.643   2.360   9.071 -0.4174 -0.1817  0.3275
 2598SOL    HW1 9235   5.663   2.276   9.031 -1.2355 -0.9988  1.5451
 2598SOL    HW2 9236   5.718   2.377   9.129 -0.0560  0.1456 -0.2271
 2599SOL     OW 9237   1.292   3.146   3.379 -0.3498 -0.0508  0.1994
 2599SOL    HW1 9238   1.292   3.157   3.284 -0.1084 -1.2801  0.0468
 2599SOL    HW2 9239   1.305   3.235   3.413  0.8519  0.2337 -0.9402
 2600SOL     OW 9240   0.417   6.015  11.513 -0.1079  0.1378  0.4885
 2600SOL    HW1 9241   0.381   5.936  11.553  0.7521  0.6623  2.3610
 2600SOL    HW2 9242   0.374   6.019  11.427 -0.3081 -2.2428  0.4028
 2601SOL     OW 9243   7.113   7.521   4.036  0.1066  0.4876 -0.5312
 2601SOL    HW1 9244   7.119   7.560   3.949  1.2776 -1.4350 -1.3678
 2601SOL    HW2 9245   7.192   7.550   4.081  0.7207 -0.4627 -0.9753
 2602SOL     OW 9246   5.287   6.549   0.996 -0.8344 -0.4917  0.0172
 2602SOL    HW1 9247   5.336   6.530   1.076 -2.1803 -1.4203  0.6630
 2602SOL    HW2 9248   5.213   6.603   1.026 -0.4595  0.5527 -0.8766
 2603SOL     OW 9249   0.694   6.594   3.982  0.2180  0.3595 -0.2527
 2603SOL    HW1 9250   0.611   6.591   3.936  1.0016  2.0427 -1.9091
 2603SOL    HW2 9251   0.744   6.520   3.948 -0.0374  0.2687 -0.4253
 2604SOL     OW 9252   5.657   0.585   3.105 -0.0623 -0.2574  0.0778
 2604SOL    HW1 9253   5.594   0.612   3.171  1.2177 -0.1345  1.2877
 2604SOL    HW2 9254   5.692   0.668   3.071 -0.8846 -0.3117 -0.9637
 2605SOL     OW 9255   1.581   4.674   0.608  0.1991  0.3682  0.7090
 2605SOL    HW1 9256   1.497   4.628   0.616  0.5799 -0.3916  0.5031
 2605SOL    HW2 9257   1.611   4.687   0.698  0.7269 -1.0338  0.7638
 2606SOL     OW 9258   2.948   1.685   2.400 -0.0088  0.1740 -0.0374
 2606SOL    HW1 9259   2.929   1.776   2.376 -0.6439 -0.5339 -2.5168
 2606SOL    HW2 9260   2.939   1.683   2.495  0.0947  2.7026  0.0926
 2607SOL     OW 9261   5.210   7.296   3.319 -0.1677 -0.5117 -0.1921
 2607SOL    HW1 9262   5.217   7.335   3.232  0.5621  0.2686  0.2021
 2607SOL    HW2 9263   5.295   7.313   3.360 -0.7321 -0.2783  0.9146
 2608SOL     OW 9264   6.531   4.520  11.631  0.1273 -0.7687  0.1092
 2608SOL    HW1 9265   6.493   4.605  11.609 -0.9766 -1.2950 -0.0732
 2608SOL    HW2 9266   6.534   4.519  11.727  2.6732  0.5381  0.1288
 2609SOL     OW 9267   2.687   7.421   2.437  0.5262  0.1404 -0.1280
 2609SOL    HW1 9268   2.768   7.439   2.389  1.0111 -1.8445 -0.1226
 2609SOL    HW2 9269   2.660   7.507   2.471  0.8617  1.4060 -2.7855
 2610SOL     OW 9270   7.822   1.287  12.424  0.7065  0.0802  0.8329
 2610SOL    HW1 9271   7.789   1.377  12.415  1.4139  0.1109 -3.1917
 2610SOL    HW2 9272   7.878   1.274  12.348  0.5939 -3.8242  1.2110
 2611SOL     OW 9273   4.706   7.163   8.853  0.0038  0.1474  0.5964
 2611SOL    HW1 9274   4.760   7.217   8.911  1.2386  0.0899 -0.4383
 2611SOL    HW2 9275   4.739   7.182   8.765 -0.3705 -1.3419  0.0923
 2612SOL     OW 9276   3.515   7.305  11.645 -0.0937 -0.3980 -0.1121
 2612SOL    HW1 9277   3.577   7.298  11.572  0.3252 -3.0232  0.4000
 2612SOL    HW2 9278   3.429   7.310  11.603  0.1403 -1.9082 -0.8344
 2613SOL     OW 9279   1.573   2.754   8.376  0.8445 -0.3430  0.1014
 2613SOL    HW1 9280   1.632   2.796   8.439  1.1804 -1.1325  0.3406
 2613SOL    HW2 9281   1.627   2.686   8.335  0.8875  0.7347 -1.6995
 2614SOL     OW 9282   6.719   2.207   7.505  0.3806 -0.1736 -0.5064
 2614SOL    HW1 9283   6.680   2.136   7.556 -0.3555 -0.4828 -1.4649
 2614SOL    HW2 9284   6.719   2.282   7.564  1.7368 -1.0969  0.7321
 2615SOL     OW 9285   7.946   2.762   0.901 -0.2893 -0.2386 -0.0108
 2615SOL    HW1 9286   7.995   2.841   0.922  0.7652 -1.5427  3.0732
 2615SOL    HW2 9287   7.855   2.785   0.918  0.0168  0.3362  0.9559
 2616SOL     OW 9288   2.080   1.421   5.483 -0.2291  0.1007 -0.2142
 2616SOL    HW1 9289   1.990   1.408   5.512  0.3391  1.7869  2.7560
 2616SOL    HW2 9290   2.073   1.473   5.402 -1.9097 -0.0398 -0.1748
 2617SOL     OW 9291   5.730   3.885  10.929 -0.2150  0.0168  0.0675
 2617SOL    HW1 9292   5.778   3.803  10.921  0.8319  0.5081  1.0531
 2617SOL    HW2 9293   5.638   3.860  10.924  0.0324 -1.3996  1.6756
 2618SOL     OW 9294   7.861   1.196   0.714  0.3635 -0.2136  0.2124
 2618SOL    HW1 9295   7.879   1.114   0.668 -1.3628 -0.2384 -0.5213
 2618SOL    HW2 9296   7.913   1.262   0.668 -1.6277 -0.1543 -2.2062
 2619SOL     OW 9297   0.837   3.606  10.469 -0.1793  0.3554 -0.0561
 2619SOL    HW1 9298   0.904   3.669  10.442 -0.1533  0.3729  0.0478
 2619SOL    HW2 9299   0.761   3.659  10.493 -0.4205  0.3077 -0.6990
 2620SOL     OW 9300   6.761   1.027   5.453  0.2406 -0.2766 -0.4279
 2620SOL    HW1 9301   6.807   1.035   5.370  1.3718  1.4705  0.3119
 2620SOL    HW2 9302   6.685   0.971   5.433  0.7987 -0.3829 -2.4685
 2621SOL     OW 9303   6.598   2.765   9.896 -0.4280  0.0674  0.2327
 2621SOL    HW1 9304   6.542   2.732   9.967 -2.1903  0.4651 -0.9141
 2621SOL    HW2 9305   6.589   2.860   9.902  1.8138  0.2720  1.2996
 2622SOL     OW 9306   5.587   0.526   0.404 -0.4915  0.1090  0.2753
 2622SOL    HW1 9307   5.554   0.580   0.476 -0.3520 -1.6601  1.7562
 2622SOL    HW2 9308   5.682   0.528   0.414 -0.2803  1.8464 -1.4475
 2623SOL     OW 9309   3.547   5.723   7.615  0.0866 -0.5118  0.2933
 2623SOL    HW1 9310   3.480   5.661   7.645 -1.5539  0.1279 -1.7406
 2623SOL    HW2 9311   3.621   5.669   7.590 -0.7804 -1.5621 -0.1005
 2624SOL     OW 9312   2.506   5.122   1.659  0.1346 -0.0873 -0.1194
 2624SOL    HW1 9313   2.574   5.124   1.592 -0.6524  0.7833 -0.8994
 2624SOL    HW2 9314   2.544   5.171   1.732  1.2310 -1.5429  0.3585
 2625SOL     OW 9315   5.178   0.961   8.568  0.0846 -0.0037 -0.0816
 2625SOL    HW1 9316   5.231   0.910   8.508  1.5644  0.3965  0.8283
 2625SOL    HW2 9317   5.197   1.052   8.545  1.0130  0.1636  1.2170
 2626SOL     OW 9318   5.672   5.384  12.347 -0.3504  0.1470  0.1092
 2626SOL    HW1 9319   5.584   5.380  12.383 -0.1120 -0.0486  0.6758
 2626SOL    HW2 9320   5.727   5.410  12.420  0.2046 -0.6960  0.0020
 2627SOL     OW 9321   5.026   7.090  11.491 -0.3833  0.2104  0.5696
 2627SOL    HW1 9322   4.940   7.082  11.451 -0.3773 -0.4328  0.6771
 2627SOL    HW2 9323   5.013   7.065  11.582 -0.2263  0.8357  0.7739
 2628SOL     OW 9324   7.154   6.301   9.562  0.1007 -0.4058  0.2160
 2628SOL    HW1 9325   7.126   6.230   9.504 -1.1360  0.7023 -0.5940
 2628SOL    HW2 9326   7.185   6.369   9.503 -0.1809  0.3398  0.9119
 2629SOL     OW 9327   5.658   1.331  10.990  0.6524  0.2000  0.6503
 2629SOL    HW1 9328   5.592   1.380  11.040  0.1501 -1.5226  1.7668
 2629SOL    HW2 9329   5.610   1.295  10.916  0.6291  0.0199  0.7526
 2630SOL     OW 9330   4.060   7.756   0.188  0.2018 -0.0820 -0.5268
 2630SOL    HW1 9331   3.999   7.817   0.230  2.3275  2.2254 -0.5799
 2630SOL    HW2 9332   4.026   7.745   0.099 -0.9862 -0.1440 -0.0823
 2631SOL     OW 9333   0.856   0.223   4.065  0.0990  0.3313  0.1470
 2631SOL    HW1 9334   0.860   0.316   4.043  0.8271  0.4302  0.6601
 2631SOL    HW2 9335   0.802   0.219   4.144  1.4054  0.5173  1.0798
 2632SOL     OW 9336   2.384   0.241   8.909  0.7736  0.4472  0.1126
 2632SOL    HW1 9337   2.441   0.229   8.985  0.9766  1.9131  0.2151
 2632SOL    HW2 9338   2.295   0.233   8.944  0.8724  0.8720  0.4672
 2633SOL     OW 9339   5.106   7.540  12.403  0.1055 -0.0171 -0.0698
 2633SOL    HW1 9340   5.166   7.549  12.477 -1.8507 -1.0037  1.7554
 2633SOL    HW2 9341   5.020   7.555  12.441 -0.9627 -0.2903 -2.2422
 2634SOL     OW 9342   3.563   6.679   8.718 -0.2911 -0.7939 -0.4014
 2634SOL    HW1 9343   3.555   6.759   8.665 -0.4469 -0.3874  0.2261
 2634SOL    HW2 9344   3.476   6.639   8.715 -0.3518 -0.6709 -0.3006
 2635SOL     OW 9345   0.435   4.861   3.375 -0.4313  0.1792 -0.4920
 2635SOL    HW1 9346   0.450   4.778   3.329 -0.3382  1.3537 -2.7435
 2635SOL    HW2 9347   0.348   4.851   3.413  0.2639 -1.5607  0.7963
 2636SOL     OW 9348   3.552   2.453   1.459  0.4681 -0.0137  0.0552
 2636SOL    HW1 9349   3.564   2.369   1.503 -1.6704 -0.9397 -0.9907
 2636SOL    HW2 9350   3.593   2.516   1.518  0.6888 -1.5882  1.6955
 2637SOL     OW 9351   2.085   0.600   4.531 -0.0673  0.1541  0.5378
 2637SOL    HW1 9352   2.162   0.632   4.484 -0.3534 -0.5055 -0.3992
 2637SOL    HW2 9353   2.021   0.670   4.523 -0.5767 -0.4706 -1.2180
 2638SOL     OW 9354   6.739   5.062   0.324 -0.2922  0.3369 -0.2772
 2638SOL    HW1 9355   6.776   4.986   0.369  0.2670  1.3229  1.0227
 2638SOL    HW2 9356   6.813   5.122   0.314 -0.7001  0.6894 -1.3571
 2639SOL     OW 9357   1.085   2.660   9.862 -0.5928 -0.1746  0.2426
 2639SOL    HW1 9358   1.179   2.653   9.878 -0.2707  0.4839 -1.1805
 2639SOL    HW2 9359   1.052   2.709   9.937 -0.0310 -1.5179  1.4007
 2640SOL     OW 9360   6.439   6.076   3.139 -0.0392  0.7596  0.3243
 2640SOL    HW1 9361   6.421   6.029   3.220  0.6193  2.2955  1.4184
 2640SOL    HW2 9362   6.367   6.053   3.081 -0.8166  0.0328  1.5313
 2641SOL     OW 9363   3.950   7.009  12.417  0.0589  0.2041  0.1480
 2641SOL    HW1 9364   3.858   6.984  12.407  0.1851  0.0377 -0.7284
 2641SOL    HW2 9365   3.990   6.934  12.461 -0.0937 -0.0161 -0.0836
 2642SOL     OW 9366   6.999   3.251   7.595 -0.4003  0.0529 -0.5451
 2642SOL    HW1 9367   7.052   3.309   7.540 -0.5833 -0.1121 -0.8925
 2642SOL    HW2 9368   6.941   3.309   7.643 -0.8186  0.1315 -1.1459
 2643SOL     OW 9369   5.586   1.515   4.658 -0.4244  1.0553  0.4988
 2643SOL    HW1 9370   5.503   1.469   4.657  0.0989  0.0609 -1.5905
 2643SOL    HW2 9371   5.650   1.449   4.684  0.6649 -0.3325 -4.5609
 2644SOL     OW 9372   0.770   1.933   0.376 -0.1623  0.0771  0.1977
 2644SOL    HW1 9373   0.852   1.883   0.375 -0.5980 -0.6831  1.0610
 2644SOL    HW2 9374   0.763   1.969   0.287  1.2865  0.4754  0.2157
 2645SOL     OW 9375   2.266   2.832  11.791 -0.3240 -0.8012 -0.1070
 2645SOL    HW1 9376   2.340   2.820  11.732 -0.2407 -1.0045  0.0357
 2645SOL    HW2 9377   2.197   2.776  11.755 -0.7127  0.0617 -0.7425
 2646SOL     OW 9378   0.071   4.398  10.862 -0.2993 -0.3997 -0.2494
 2646SOL    HW1 9379   0.053   4.397  10.768  0.2328 -1.7313 -0.3633
 2646SOL    HW2 9380   0.161   4.432  10.868  0.2541 -1.7845 -0.3679
 2647SOL     OW 9381   5.059   1.433  11.468 -0.0606  0.1137  0.3679
 2647SOL    HW1 9382   4.968   1.407  11.485  0.0861 -0.2724  0.5888
 2647SOL    HW2 9383   5.111   1.363  11.508  0.3161 -0.8454 -1.6714
 2648SOL     OW 9384   2.275   1.415   3.101 -0.1113 -0.3664  0.4192
 2648SOL    HW1 9385   2.243   1.481   3.163 -0.0486 -1.3905  1.5844
 2648SOL    HW2 9386   2.361   1.447   3.075 -1.4252  1.7766 -1.7691
 2649SOL     OW 9387   3.640   1.458  11.723 -0.4180  0.1761 -0.4495
 2649SOL    HW1 9388   3.594   1.536  11.693  0.4155  0.4204 -1.1115
 2649SOL    HW2 9389   3.570   1.397  11.745 -1.0771  0.5225 -1.4811
 2650SOL     OW 9390   2.891   3.103   1.069  0.4436 -0.1145  0.1060
 2650SOL    HW1 9391   2.918   3.067   1.153 -1.6838 -3.7894 -0.5868
 2650SOL    HW2 9392   2.932   3.046   1.004  0.5602  1.5239 -1.3262
 2651SOL     OW 9393   1.493   4.260  11.324  0.1290 -0.4965 -0.0525
 2651SOL    HW1 9394   1.400   4.261  11.348 -0.0382  0.1707 -0.6786
 2651SOL    HW2 9395   1.514   4.352  11.305  1.1639 -0.5023  0.9842
 2652SOL     OW 9396   1.704   4.226   7.898  0.0659 -0.1742 -0.2771
 2652SOL    HW1 9397   1.770   4.243   7.966 -2.4084 -0.1562  2.2892
 2652SOL    HW2 9398   1.745   4.160   7.842  1.5976 -1.7169  2.3977
 2653SOL     OW 9399   7.662   1.352   8.287 -0.8045 -0.0301  0.1425
 2653SOL    HW1 9400   7.748   1.365   8.327 -0.5688 -0.1854 -0.2990
 2653SOL    HW2 9401   7.682   1.319   8.199 -1.3385 -1.3880  0.5088
 2654SOL     OW 9402   3.303   1.398   5.239 -0.0896  0.0711 -0.0127
 2654SOL    HW1 9403   3.385   1.422   5.281  0.6026 -0.4402 -1.0241
 2654SOL    HW2 9404   3.292   1.304   5.259  0.4068 -0.2542 -1.1856
 2655SOL     OW 9405   0.224   4.222   3.624  0.7585  0.1235  0.0322
 2655SOL    HW1 9406   0.164   4.202   3.553  0.5808 -0.4459  0.3313
 2655SOL    HW2 9407   0.276   4.142   3.635  1.5555  0.5927 -0.2005
 2656SOL     OW 9408   0.644   7.163   9.230  0.3905  0.4086 -0.3324
 2656SOL    HW1 9409   0.605   7.134   9.147  0.1723  0.3951 -0.2268
 2656SOL    HW2 9410   0.719   7.105   9.243  1.3745  1.4001 -1.3032
 2657SOL     OW 9411   2.216   2.008   2.019  0.4996  0.2834  1.2047
 2657SOL    HW1 9412   2.272   2.073   1.976 -1.5683  0.7511 -1.0284
 2657SOL    HW2 9413   2.169   2.058   2.086  0.1013  0.7938  0.5730
 2658SOL     OW 9414   6.865   2.736   4.911  0.4448  0.5885 -0.7286
 2658SOL    HW1 9415   6.812   2.715   4.989  1.5822 -1.2731 -0.3951
 2658SOL    HW2 9416   6.949   2.764   4.946  0.2446  1.9171 -1.2808
 2659SOL     OW 9417   5.095   0.324   0.663  0.6977  0.9558 -0.1508
 2659SOL    HW1 9418   5.148   0.248   0.640  1.7645  1.4615  0.5352
 2659SOL    HW2 9419   5.075   0.366   0.580 -0.8171 -0.6253 -0.6485
 2660SOL     OW 9420   3.500   1.345   8.699 -0.3795  0.5986  0.5959
 2660SOL    HW1 9421   3.530   1.262   8.662 -2.4824 -0.4229  1.0651
 2660SOL    HW2 9422   3.576   1.403   8.691  1.5935 -1.7117  1.4537
 2661SOL     OW 9423   7.586   5.129   5.292  0.0888  0.1571  0.2407
 2661SOL    HW1 9424   7.629   5.153   5.210  0.6841  0.2197  0.5666
 2661SOL    HW2 9425   7.544   5.045   5.274  0.3465  0.0976 -0.0826
 2662SOL     OW 9426   6.697   2.321  11.081  0.4581  0.6166  0.1557
 2662SOL    HW1 9427   6.755   2.293  11.151 -1.5005  0.8927  1.9895
 2662SOL    HW2 9428   6.707   2.416  11.077  0.9967  0.5430 -0.3613
 2663SOL     OW 9429   7.905   4.835   8.556  0.5142 -0.2144  0.1458
 2663SOL    HW1 9430   7.926   4.914   8.507  0.7858 -0.1017  0.4374
 2663SOL    HW2 9431   7.974   4.773   8.533  0.6032 -0.1847  0.3282
 2664SOL     OW 9432   3.984   0.297  10.328  0.1188 -1.0723 -0.1215
 2664SOL    HW1 9433   3.929   0.239  10.380  0.3609 -0.2593  1.0966
 2664SOL    HW2 9434   4.031   0.350  10.393  1.2712 -0.7759 -1.1505
 2665SOL     OW 9435   0.084   5.705   5.412 -0.1654  0.4232 -0.1934
 2665SOL    HW1 9436   0.034   5.786   5.425 -1.3175 -0.2645 -0.2552
 2665SOL    HW2 9437   0.170   5.736   5.382 -0.1534  1.6745  0.9853
 2666SOL     OW 9438   1.644   2.851   0.506 -0.0701 -0.6208 -0.6159
 2666SOL    HW1 9439   1.588   2.806   0.443  0.5423 -1.4247 -0.6067
 2666SOL    HW2 9440   1.606   2.830   0.591  0.6473 -1.7820 -0.5611
 2667SOL     OW 9441   7.917   0.329  11.093 -0.3842 -0.1542 -0.1182
 2667SOL    HW1 9442   7.894   0.338  11.000  2.4381  1.1987 -0.8132
 2667SOL    HW2 9443   7.908   0.236  11.111  0.8258 -0.7883 -2.3595
 2668SOL     OW 9444   2.748   2.085   0.786 -0.1071  0.7315 -0.1663
 2668SOL    HW1 9445   2.655   2.065   0.777 -0.1799  0.8642  0.3008
 2668SOL    HW2 9446   2.786   2.057   0.703 -0.5325  0.5028 -0.2866
 2669SOL     OW 9447   5.859   4.296  10.167  0.2913 -0.6979 -0.4580
 2669SOL    HW1 9448   5.814   4.212  10.156 -0.6170 -0.2611 -0.1622
 2669SOL    HW2 9449   5.844   4.319  10.259  0.1672 -0.0108 -0.6470
 2670SOL     OW 9450   2.460   7.235   0.856  0.1707  0.2440  0.0233
 2670SOL    HW1 9451   2.442   7.255   0.948  0.9343  1.5637 -0.0843
 2670SOL    HW2 9452   2.550   7.202   0.855  0.2113  0.3551 -0.2669
 2671SOL     OW 9453   5.790   5.073   9.551  0.3605  0.3928  0.1755
 2671SOL    HW1 9454   5.858   5.018   9.591 -0.0133  1.0342  1.7483
 2671SOL    HW2 9455   5.812   5.162   9.577 -1.7164  0.5162  1.7865
 2672SOL     OW 9456   3.845   5.006   4.169 -0.3282 -0.3055 -0.3188
 2672SOL    HW1 9457   3.776   4.987   4.105 -1.5284 -0.0140  0.8395
 2672SOL    HW2 9458   3.907   4.934   4.159 -0.6714 -0.4422 -1.5733
 2673SOL     OW 9459   0.581   0.250   8.595  0.0471  0.2267 -0.6213
 2673SOL    HW1 9460   0.509   0.215   8.542 -0.2047 -1.7109  0.8723
 2673SOL    HW2 9461   0.612   0.175   8.645  2.1375  1.3679 -0.1140
 2674SOL     OW 9462   5.299   7.257   0.248  0.2622 -0.3337 -0.0207
 2674SOL    HW1 9463   5.242   7.200   0.196  2.2759 -1.1236 -1.4533
 2674SOL    HW2 9464   5.361   7.198   0.289 -0.0165  0.4970  1.6932
 2675SOL     OW 9465   0.027   4.118   4.141 -0.0911 -0.1009  0.1326
 2675SOL    HW1 9466   0.018   4.026   4.164  0.8675 -0.2474 -0.0584
 2675SOL    HW2 9467   0.082   4.118   4.062 -0.4126  0.6118 -0.1034
 2676SOL     OW 9468   5.745   7.469   3.213 -0.0486  0.1012  0.2878
 2676SOL    HW1 9469   5.798   7.516   3.149  1.6025  1.3191  2.4529
 2676SOL    HW2 9470   5.711   7.537   3.271 -0.8848 -1.0302  1.1712
 2677SOL     OW 9471   1.466   6.838   7.977 -0.0742  0.4932  0.1019
 2677SOL    HW1 9472   1.375   6.866   7.966  0.2405  1.6992  0.4970
 2677SOL    HW2 9473   1.518   6.906   7.934  0.7340  0.8463  1.5682
 2678SOL     OW 9474   2.561   4.574   6.688 -0.0292  0.5584 -0.1768
 2678SOL    HW1 9475   2.617   4.499   6.669  0.1483  0.8234 -0.7286
 2678SOL    HW2 9476   2.606   4.649   6.649 -0.4385  0.8793 -0.0487
 2679SOL     OW 9477   0.171   1.398  10.071  0.0966 -0.0610  0.0963
 2679SOL    HW1 9478   0.095   1.455  10.063 -0.4806 -0.8516 -0.0549
 2679SOL    HW2 9479   0.227   1.443  10.135 -0.7158  0.2690  0.5885
 2680SOL     OW 9480   5.667   0.840   8.697  0.0564  0.2556  0.1139
 2680SOL    HW1 9481   5.648   0.811   8.786  0.8755 -1.7453 -0.3173
 2680SOL    HW2 9482   5.739   0.903   8.706 -0.6601  0.9762  0.9373
 2681SOL     OW 9483   1.769   4.037   7.726  0.1878  0.7027  0.5035
 2681SOL    HW1 9484   1.746   4.010   7.637  0.0613  2.7651 -0.1444
 2681SOL    HW2 9485   1.784   3.955   7.773 -4.1503 -0.7710 -0.1606
 2682SOL     OW 9486   0.938   4.042   1.911  0.5131  0.3940  0.6787
 2682SOL    HW1 9487   1.001   4.081   1.851 -0.2261  0.7442  0.1065
 2682SOL    HW2 9488   0.926   3.953   1.879 -0.1019  0.6712  0.1049
 2683SOL     OW 9489   3.583   2.055  11.802  0.1452 -0.0189 -0.2950
 2683SOL    HW1 9490   3.494   2.056  11.766 -0.1861  1.4353  0.4662
 2683SOL    HW2 9491   3.640   2.046  11.725 -0.6184  0.5596 -0.9464
 2684SOL     OW 9492   3.554   0.617   1.116  0.5019  0.1894 -0.6441
 2684SOL    HW1 9493   3.538   0.677   1.043 -0.8822  2.0290  1.0823
 2684SOL    HW2 9494   3.554   0.530   1.075  0.8249  1.1965 -2.9662
 2685SOL     OW 9495   1.365   6.587  11.841  0.2794  0.0394  0.0908
 2685SOL    HW1 9496   1.356   6.549  11.929  2.9444 -1.2437 -0.0849
 2685SOL    HW2 9497   1.357   6.512  11.782 -0.7957  0.7928 -0.7601
 2686SOL     OW 9498   5.586   3.756   2.525  0.4326 -0.5657 -0.3540
 2686SOL    HW1 9499   5.664   3.721   2.482  1.1267  0.5443 -0.0268
 2686SOL    HW2 9500   5.590   3.721   2.614 -0.9735 -2.8149 -1.0698
 2687SOL     OW 9501   4.096   4.289   8.924  0.1622  0.2436  0.2687
 2687SOL    HW1 9502   4.033   4.291   8.852 -0.0810  0.3254  0.4815
 2687SOL    HW2 9503   4.100   4.380   8.954 -1.0315 -0.0754  1.4706
 2688SOL     OW 9504   5.001   5.292   6.657 -0.0865  0.1184  0.0512
 2688SOL    HW1 9505   5.014   5.230   6.728 -0.4813 -1.7188 -1.4100
 2688SOL    HW2 9506   4.917   5.335   6.677  0.1329  0.1123  1.0163
 2689SOL     OW 9507   5.956   3.676   9.930  0.3283 -0.3574  0.4743
 2689SOL    HW1 9508   6.009   3.720   9.996  0.6801 -1.0072  0.6417
 2689SOL    HW2 9509   5.903   3.745   9.891  0.5549  0.1322  1.0207
 2690SOL     OW 9510   6.638   3.225  12.442 -0.0036  0.3758 -0.3207
 2690SOL    HW1 9511   6.573   3.193  12.504 -0.3326  0.9481 -0.3624
 2690SOL    HW2 9512   6.599   3.211  12.356 -0.2235  1.0356 -0.3325
 2691SOL     OW 9513   4.015   1.628   8.464 -0.5231  0.5188  0.1564
 2691SOL    HW1 9514   4.056   1.709   8.433 -2.0269  1.0692 -0.4944
 2691SOL    HW2 9515   4.066   1.603   8.541  0.7811  1.3620 -0.4090
 2692SOL     OW 9516   1.768   5.428   5.210 -0.0660  0.0235  0.2727
 2692SOL    HW1 9517   1.777   5.468   5.124 -0.9789  0.1523  0.2352
 2692SOL    HW2 9518   1.734   5.497   5.266 -0.8357 -0.4501  0.4043
 2693SOL     OW 9519   1.407   4.974   9.894 -0.1665  0.7386  0.0629
 2693SOL    HW1 9520   1.397   4.882   9.869  0.1532  0.6242  0.3459
 2693SOL    HW2 9521   1.329   4.994   9.946 -0.6314  0.8587 -0.6706
 2694SOL     OW 9522   1.240   5.603  12.130  0.2973 -0.2066 -0.4145
 2694SOL    HW1 9523   1.266   5.511  12.127 -0.0659 -0.3207 -0.2020
 2694SOL    HW2 9524   1.309   5.646  12.182 -0.1679 -0.5898  0.5463
 2695SOL     OW 9525   0.154   7.945   5.459  0.0013 -0.9730 -0.1836
 2695SOL    HW1 9526   0.132   8.032   5.427 -0.2119 -0.3819  1.5168
 2695SOL    HW2 9527   0.213   7.909   5.392  0.7746  0.7856 -0.4892
 2696SOL     OW 9528   6.630   3.866   4.271 -0.2525  0.1768 -0.6132
 2696SOL    HW1 9529   6.571   3.925   4.319  0.7765  1.0559 -0.4090
 2696SOL    HW2 9530   6.644   3.793   4.332 -2.3730 -0.8734 -1.2664
 2697SOL     OW 9531   3.435   5.903   9.260  0.1163 -0.0085  0.2232
 2697SOL    HW1 9532   3.525   5.899   9.228  0.3780 -2.0725  1.0879
 2697SOL    HW2 9533   3.381   5.892   9.181  0.5813  1.0969 -0.2775
 2698SOL     OW 9534   1.488   3.272  11.307 -0.4310  0.2264 -0.2252
 2698SOL    HW1 9535   1.514   3.329  11.379  0.5683 -0.1673 -0.2588
 2698SOL    HW2 9536   1.476   3.186  11.348 -2.0933  0.4735 -0.1445
 2699SOL     OW 9537   2.711   5.609   5.216  0.3396 -0.2221  0.3469
 2699SOL    HW1 9538   2.737   5.518   5.230 -0.3720 -0.6552 -0.9569
 2699SOL    HW2 9539   2.789   5.660   5.235  2.1272 -1.4209 -2.9783
 2700SOL     OW 9540   7.158   4.504   0.200 -0.0329 -0.3822 -0.3294
 2700SOL    HW1 9541   7.069   4.536   0.185  0.3695  1.3245  0.6908
 2700SOL    HW2 9542   7.214   4.564   0.152  0.6122 -1.3095 -0.7756
 2701SOL     OW 9543   1.967   3.834   1.586  0.1293 -0.6873  0.3174
 2701SOL    HW1 9544   2.061   3.856   1.592  0.0867 -0.5695  0.5872
 2701SOL    HW2 9545   1.952   3.819   1.492  0.6472 -1.7616  0.3980
 2702SOL     OW 9546   1.931   1.180  11.875  0.2718 -0.0095  0.3465
 2702SOL    HW1 9547   2.018   1.151  11.905  1.5332  0.8838 -2.1421
 2702SOL    HW2 9548   1.889   1.099  11.844  1.2285 -0.1348 -0.6891
 2703SOL     OW 9549   5.271   5.179   5.124  0.4312  0.5274  0.2688
 2703SOL    HW1 9550   5.250   5.262   5.167 -3.3618  0.5405 -1.2142
 2703SOL    HW2 9551   5.210   5.116   5.162  2.4328 -1.3836  0.5117
 2704SOL     OW 9552   5.110   5.694   2.110 -0.0246 -0.1951  0.0847
 2704SOL    HW1 9553   5.058   5.750   2.052 -0.3310 -0.4033  0.1505
 2704SOL    HW2 9554   5.068   5.703   2.196  1.9633  2.1204  0.9118
 2705SOL     OW 9555   0.255   4.524   5.954 -0.3420 -0.4790 -0.4458
 2705SOL    HW1 9556   0.254   4.604   6.007 -1.3723 -0.7581  0.0009
 2705SOL    HW2 9557   0.283   4.455   6.015 -0.1610 -0.5687 -0.6322
 2706SOL     OW 9558   2.779   2.177   1.760 -0.3861  0.2082  0.0969
 2706SOL    HW1 9559   2.793   2.200   1.852  0.6081 -0.8825  0.2340
 2706SOL    HW2 9560   2.707   2.114   1.761 -0.4451  0.2753  0.1100
 2707SOL     OW 9561   5.562   7.035   4.472  0.1187 -0.0299 -0.2412
 2707SOL    HW1 9562   5.600   7.118   4.444  1.4270 -0.6137 -0.2747
 2707SOL    HW2 9563   5.565   7.038   4.567 -0.1908  0.1175 -0.2357
 2708SOL     OW 9564   7.977   3.284   2.174  0.0077 -0.3724 -0.1576
 2708SOL    HW1 9565   7.957   3.283   2.081  1.4792 -0.0396 -0.4940
 2708SOL    HW2 9566   8.070   3.304   2.179 -0.4805  1.9804  1.4574
 2709SOL     OW 9567   5.957   2.811   4.080 -0.4416 -0.1417 -0.2901
 2709SOL    HW1 9568   6.043   2.798   4.121 -1.2023  0.6367  1.6660
 2709SOL    HW2 9569   5.931   2.723   4.052  0.5500 -0.5471  0.0141
 2710SOL     OW 9570   5.351   4.323   3.948  0.0697 -0.3876  0.4087
 2710SOL    HW1 9571   5.447   4.317   3.955  0.0800  0.5721  1.5859
 2710SOL    HW2 9572   5.322   4.335   4.039 -1.2271 -1.2424  0.1323
 2711SOL     OW 9573   4.907   0.441   8.638 -0.3934 -0.2030  0.3797
 2711SOL    HW1 9574   4.990   0.394   8.629 -0.5161 -0.3762  0.1543
 2711SOL    HW2 9575   4.893   0.481   8.552  0.3244  1.2694  0.9132
 2712SOL     OW 9576   5.331   2.628  12.044 -0.8311  0.0707  0.0387
 2712SOL    HW1 9577   5.378   2.564  11.992 -2.0825 -0.7481 -0.1231
 2712SOL    HW2 9578   5.275   2.576  12.102 -0.2557  0.9701  1.4831
 2713SOL     OW 9579   6.244   4.737   8.791  0.4352 -0.0581  0.0864
 2713SOL    HW1 9580   6.266   4.761   8.881 -0.6845  1.2921  0.0215
 2713SOL    HW2 9581   6.232   4.820   8.746 -1.0134 -0.7125 -0.8092
 2714SOL     OW 9582   1.754   0.607   8.317 -0.1519  0.2035 -0.2543
 2714SOL    HW1 9583   1.797   0.690   8.336 -0.0267  0.1110 -0.1290
 2714SOL    HW2 9584   1.713   0.620   8.232  0.7555  0.0512 -0.7222
 2715SOL     OW 9585   6.546   5.599   2.443 -0.2681 -0.8085  0.0759
 2715SOL    HW1 9586   6.599   5.520   2.432 -0.6629 -0.8194 -2.2452
 2715SOL    HW2 9587   6.469   5.569   2.491 -0.3053 -1.7906 -0.5581
 2716SOL     OW 9588   6.235   2.457   1.570 -0.2570  0.3147 -0.8455
 2716SOL    HW1 9589   6.274   2.432   1.654 -0.6662 -0.3962 -0.8644
 2716SOL    HW2 9590   6.296   2.521   1.534  0.1494  0.2937 -0.2076
 2717SOL     OW 9591   0.502   4.424  10.211 -0.0005 -0.0124  0.1580
 2717SOL    HW1 9592   0.571   4.390  10.268 -0.2190  1.2683  1.2284
 2717SOL    HW2 9593   0.421   4.407  10.259 -0.2167  0.7500  0.0779
 2718SOL     OW 9594   7.207   7.457   2.925  0.1811 -0.2495  0.0798
 2718SOL    HW1 9595   7.195   7.552   2.926 -0.9102 -0.3763  1.0982
 2718SOL    HW2 9596   7.119   7.422   2.917  0.4585 -1.1984  1.0279
 2719SOL     OW 9597   0.555   1.816   1.311 -0.6352 -0.5901  0.3039
 2719SOL    HW1 9598   0.550   1.792   1.403 -1.1919  0.1767  0.4792
 2719SOL    HW2 9599   0.479   1.871   1.296 -1.1200 -1.5210 -0.8629
 2720SOL     OW 9600   4.703   2.768  11.952  0.1447  0.1677 -0.7468
 2720SOL    HW1 9601   4.778   2.742  12.006 -0.1946 -0.8456 -0.7451
 2720SOL    HW2 9602   4.650   2.689  11.946 -0.4647  0.6288 -1.5146
 2721SOL     OW 9603   7.044   2.218  11.642 -0.2454 -0.2405  0.3586
 2721SOL    HW1 9604   7.106   2.192  11.710  0.1272 -0.7139 -0.1480
 2721SOL    HW2 9605   7.094   2.278  11.586 -0.8726  1.0066  1.0968
 2722SOL     OW 9606   0.256   1.307   8.174  0.2966  0.1178 -0.7697
 2722SOL    HW1 9607   0.182   1.299   8.114 -1.0674  0.8795  0.7226
 2722SOL    HW2 9608   0.242   1.390   8.219  1.5566 -0.1601  0.2143
 2723SOL     OW 9609   7.383   7.895  11.492 -0.3723  0.0249 -0.0624
 2723SOL    HW1 9610   7.289   7.895  11.474 -0.4165  0.3897  0.1574
 2723SOL    HW2 9611   7.415   7.978  11.456 -0.2591  0.2190  0.4619
 2724SOL     OW 9612   6.895   7.922   3.682  0.3773 -0.3984 -0.2421
 2724SOL    HW1 9613   6.931   7.867   3.613 -0.2259  0.3991 -1.2197
 2724SOL    HW2 9614   6.849   7.861   3.740  0.7234 -1.0583 -0.6512
 2725SOL     OW 9615   4.528   3.259   5.041  0.1183  0.0037  0.3442
 2725SOL    HW1 9616   4.446   3.270   4.993  1.4892  0.6448 -2.0561
 2725SOL    HW2 9617   4.522   3.322   5.113 -0.8881  1.1897 -0.7112
 2726SOL     OW 9618   0.972   3.452   4.069  0.1776 -0.0718 -0.1102
 2726SOL    HW1 9619   1.056   3.414   4.045  0.9803  0.3576  1.8189
 2726SOL    HW2 9620   0.992   3.513   4.139 -1.7607 -0.0094  0.4637
 2727SOL     OW 9621   1.863   7.003  11.488  0.2124  0.1020  0.4328
 2727SOL    HW1 9622   1.896   6.918  11.516 -1.6401 -0.7729  0.1111
 2727SOL    HW2 9623   1.837   6.990  11.397  0.1418  1.1011  0.2980
 2728SOL     OW 9624   5.674   4.893  10.201 -0.5927  0.4217 -0.4193
 2728SOL    HW1 9625   5.717   4.978  10.210  0.6186 -0.3033  1.4782
 2728SOL    HW2 9626   5.744   4.830  10.217 -1.8717 -0.8727  0.3393
 2729SOL     OW 9627   1.207   3.374   3.992  0.0610  0.4554 -0.0034
 2729SOL    HW1 9628   1.262   3.445   4.025 -0.5410  0.1465  1.7491
 2729SOL    HW2 9629   1.200   3.391   3.898  2.3751  1.0027 -0.1292
 2730SOL     OW 9630   5.619   6.973   4.187  0.3617 -0.3109 -0.0894
 2730SOL    HW1 9631   5.596   7.017   4.269 -3.3264 -0.9186 -0.6353
 2730SOL    HW2 9632   5.674   7.036   4.141 -3.4820  3.4481 -0.2201
 2731SOL     OW 9633   5.648   4.496   6.204 -0.0288 -0.2712  0.2085
 2731SOL    HW1 9634   5.670   4.573   6.152  1.3109 -0.8757 -0.1602
 2731SOL    HW2 9635   5.553   4.491   6.201 -0.0144 -0.9492 -3.2139
 2732SOL     OW 9636   3.820   5.535   2.430  0.7902  0.2450  0.1071
 2732SOL    HW1 9637   3.764   5.601   2.470  1.6905  1.3497 -0.4096
 2732SOL    HW2 9638   3.899   5.535   2.483 -0.0718 -2.1597  1.5769
 2733SOL     OW 9639   6.917   4.939   9.933  0.5030 -0.3503 -0.3376
 2733SOL    HW1 9640   6.865   4.938   9.853 -0.7201  1.6782  0.3710
 2733SOL    HW2 9641   6.892   5.020   9.978  1.6041 -1.1073  1.8083
 2734SOL     OW 9642   1.198   7.860   0.148 -0.3062  0.4297  0.0205
 2734SOL    HW1 9643   1.107   7.835   0.134  0.1954 -0.9046 -1.0571
 2734SOL    HW2 9644   1.221   7.911   0.070  0.3572 -0.7206 -0.5549
 2735SOL     OW 9645   2.869   2.512  11.827  0.1769 -0.2939 -0.2535
 2735SOL    HW1 9646   2.874   2.590  11.881 -0.4878 -0.0291 -0.5678
 2735SOL    HW2 9647   2.937   2.524  11.760 -0.5519  0.4602 -0.8723
 2736SOL     OW 9648   3.505   0.513   9.656  0.0571 -0.2001  0.3835
 2736SOL    HW1 9649   3.457   0.459   9.594  0.3072  0.4246 -0.3778
 2736SOL    HW2 9650   3.538   0.452   9.722  0.0574 -0.9242 -0.2811
 2737SOL     OW 9651   6.025   7.278   7.231  0.1310  0.1395 -0.0661
 2737SOL    HW1 9652   5.985   7.305   7.148 -2.6126  0.4450  1.2382
 2737SOL    HW2 9653   5.969   7.316   7.298  0.2453 -2.8847  1.9298
 2738SOL     OW 9654   0.278   5.556   2.831 -0.1336 -0.4569 -0.2999
 2738SOL    HW1 9655   0.344   5.488   2.825 -0.3848 -0.6479 -1.0227
 2738SOL    HW2 9656   0.285   5.590   2.920  1.3985 -0.0066 -0.5661
 2739SOL     OW 9657   2.879   4.615   9.122 -0.2231  0.1033  0.1132
 2739SOL    HW1 9658   2.897   4.534   9.170 -0.3006  0.0190  0.0026
 2739SOL    HW2 9659   2.965   4.651   9.101 -0.1257 -1.0619 -1.7122
 2740SOL     OW 9660   5.005   5.661   5.335  0.2791  0.2148 -0.0563
 2740SOL    HW1 9661   4.941   5.620   5.277  0.5917 -0.2081 -0.1088
 2740SOL    HW2 9662   5.065   5.706   5.276 -0.4426  1.3212  0.0322
 2741SOL     OW 9663   4.550   7.529  12.055 -0.4971 -0.2120  0.0973
 2741SOL    HW1 9664   4.563   7.459  12.120 -1.2929 -0.0057  0.4888
 2741SOL    HW2 9665   4.567   7.487  11.971  0.0415 -0.6138  0.3997
 2742SOL     OW 9666   1.506   7.493   6.722 -0.3953  0.3739 -0.2448
 2742SOL    HW1 9667   1.554   7.575   6.729  0.3434 -0.1261  0.8229
 2742SOL    HW2 9668   1.478   7.474   6.812 -1.5704  0.0458 -0.6584
 2743SOL     OW 9669   6.235   1.705   0.784 -0.5286  0.2466  0.2129
 2743SOL    HW1 9670   6.327   1.727   0.790 -0.0112 -1.9196  1.0668
 2743SOL    HW2 9671   6.214   1.666   0.868 -1.5822 -1.5030 -0.8029
 2744SOL     OW 9672   6.163   4.261   6.027 -0.1796  0.2326  0.0805
 2744SOL    HW1 9673   6.080   4.235   6.066 -0.5232  1.7120  0.4056
 2744SOL    HW2 9674   6.196   4.330   6.085 -0.0576  1.5561 -1.4649
 2745SOL     OW 9675   2.936   3.566   1.539  0.1013  0.5834  0.3508
 2745SOL    HW1 9676   3.005   3.582   1.602  1.0807  1.5499 -0.9284
 2745SOL    HW2 9677   2.952   3.476   1.509  1.4291  1.1277 -0.6544
 2746SOL     OW 9678   0.672   0.278   8.903 -0.1796 -0.0278 -0.0360
 2746SOL    HW1 9679   0.718   0.296   8.985  2.0034 -1.1863 -0.9302
 2746SOL    HW2 9680   0.713   0.337   8.839 -0.9636 -0.0628 -0.5959
 2747SOL     OW 9681   4.601   5.546   3.780  0.2351 -0.2161  0.8240
 2747SOL    HW1 9682   4.603   5.589   3.865 -0.1186  0.9072  0.2826
 2747SOL    HW2 9683   4.535   5.594   3.730  0.5881 -0.7238 -0.1567
 2748SOL     OW 9684   6.845   5.044   6.282  0.2047  0.4118 -0.2558
 2748SOL    HW1 9685   6.884   5.047   6.370  0.3619  1.2030 -0.3509
 2748SOL    HW2 9686   6.910   5.083   6.225  0.3428 -0.6098 -0.8342
 2749SOL     OW 9687   6.180   0.877  12.010  0.2732  0.1578 -0.5031
 2749SOL    HW1 9688   6.124   0.919  12.076  0.5254  0.3764 -0.4263
 2749SOL    HW2 9689   6.199   0.946  11.947  0.4675  0.0890 -0.5209
 2750SOL     OW 9690   4.409   1.859   2.520 -0.3476  0.2203  0.2706
 2750SOL    HW1 9691   4.350   1.907   2.578 -0.6825  1.9878 -1.4602
 2750SOL    HW2 9692   4.436   1.923   2.454  3.1727 -0.6386  0.7118
 2751SOL     OW 9693   7.563   6.830   5.751 -0.0010  0.6005 -0.0004
 2751SOL    HW1 9694   7.586   6.776   5.676  0.8151 -1.7689  1.8213
 2751SOL    HW2 9695   7.469   6.814   5.765  0.2544 -0.4922  0.5791
 2752SOL     OW 9696   0.742   4.490   6.819 -0.0270  0.4780 -0.6418
 2752SOL    HW1 9697   0.719   4.544   6.895  3.0973  0.3483  0.5380
 2752SOL    HW2 9698   0.682   4.519   6.750 -3.2816  0.3559  1.8868
 2753SOL     OW 9699   6.867   1.774   2.357  0.2203 -0.3005 -0.0144
 2753SOL    HW1 9700   6.853   1.683   2.330 -1.3160 -0.0571 -0.1360
 2753SOL    HW2 9701   6.808   1.825   2.302  1.1543  0.8064 -0.0307
 2754SOL     OW 9702   2.493   5.630   2.101 -0.1852  0.2981  0.1419
 2754SOL    HW1 9703   2.509   5.723   2.088  1.5426  0.2441  1.6396
 2754SOL    HW2 9704   2.525   5.611   2.189 -0.7774 -1.6682 -0.0065
 2755SOL     OW 9705   4.987   7.511   1.061 -0.6200 -0.7519  0.0551
 2755SOL    HW1 9706   4.959   7.561   0.984  0.5173  1.3317  0.9403
 2755SOL    HW2 9707   4.922   7.532   1.128 -1.1787 -1.9640 -0.0865
 2756SOL     OW 9708   6.635   5.860   1.431  0.0673 -0.7710  0.4406
 2756SOL    HW1 9709   6.698   5.834   1.363 -0.9173 -0.1026 -0.7859
 2756SOL    HW2 9710   6.557   5.807   1.412 -0.8459  0.7101 -0.1176
 2757SOL     OW 9711   4.426   4.529   3.006  0.5295 -0.0842 -0.2762
 2757SOL    HW1 9712   4.496   4.595   3.004 -0.1733  0.7103  0.6027
 2757SOL    HW2 9713   4.470   4.447   2.986  1.3669  0.6965 -1.7775
 2758SOL     OW 9714   7.404   7.208   3.807  0.0921  0.0105  0.0753
 2758SOL    HW1 9715   7.324   7.168   3.772 -1.5015  2.8035  0.2147
 2758SOL    HW2 9716   7.426   7.276   3.744  0.4482  1.3985  1.6250
 2759SOL     OW 9717   1.407   5.988   4.275 -0.9660  0.0110 -0.0437
 2759SOL    HW1 9718   1.390   6.020   4.186 -0.3448 -1.3013 -0.6632
 2759SOL    HW2 9719   1.495   5.952   4.271 -0.5831  0.7348  1.3583
 2760SOL     OW 9720   4.633   4.054  10.989  0.1682 -0.4720  0.2896
 2760SOL    HW1 9721   4.650   4.100  11.072 -1.1390 -0.3417  0.5003
 2760SOL    HW2 9722   4.664   3.965  11.005  1.1929 -0.1157  0.4338
 2761SOL     OW 9723   4.513   1.247   6.258  0.2654  0.1508  0.1055
 2761SOL    HW1 9724   4.489   1.294   6.338  0.1566  0.9574 -0.3890
 2761SOL    HW2 9725   4.477   1.159   6.270  0.7862  0.0694  1.2011
 2762SOL     OW 9726   6.393   6.300  11.434 -0.0317 -0.4838  0.0117
 2762SOL    HW1 9727   6.336   6.375  11.452 -0.1493 -0.9903  2.0583
 2762SOL    HW2 9728   6.480   6.328  11.463  0.0699 -0.8781  0.0976
 2763SOL     OW 9729   4.040   5.111   6.659  0.1113 -0.6056  0.0684
 2763SOL    HW1 9730   3.987   5.034   6.682 -3.0910  1.0667 -1.0326
 2763SOL    HW2 9731   4.081   5.087   6.576  0.3227 -1.6180  0.4524
 2764SOL     OW 9732   4.000   0.989   1.483  0.7354  0.4892 -0.1937
 2764SOL    HW1 9733   3.929   0.996   1.420  1.8593 -0.1666 -1.5781
 2764SOL    HW2 9734   3.981   0.908   1.532  1.0428 -0.2546 -1.2633
 2765SOL     OW 9735   0.106   4.899  10.407  0.1063  0.2230  0.8780
 2765SOL    HW1 9736   0.148   4.978  10.439  0.6817  0.0520  0.5517
 2765SOL    HW2 9737   0.056   4.867  10.482  1.4088 -0.1546  1.6134
 2766SOL     OW 9738   6.974   6.429   3.296 -0.8100 -0.2726  0.4420
 2766SOL    HW1 9739   6.920   6.434   3.375 -0.0960 -2.0522  1.0841
 2766SOL    HW2 9740   7.003   6.338   3.292  0.1229  0.0573 -1.2497
 2767SOL     OW 9741   0.045   4.620  12.159  0.0002  0.0485 -0.5975
 2767SOL    HW1 9742   0.113   4.580  12.105 -1.0764 -0.2585 -1.7644
 2767SOL    HW2 9743  -0.014   4.662  12.096 -0.3987  1.0951  0.4467
 2768SOL     OW 9744   5.473   3.337  10.869 -0.2300  0.5356  0.2668
 2768SOL    HW1 9745   5.445   3.380  10.788 -0.6736  1.7551  1.0345
 2768SOL    HW2 9746   5.403   3.358  10.932  0.8524  0.9345  1.3737
 2769SOL     OW 9747   1.107   7.172   7.647 -0.2729 -0.3077  0.1816
 2769SOL    HW1 9748   1.034   7.174   7.708 -0.6484 -1.3043 -0.2114
 2769SOL    HW2 9749   1.084   7.105   7.583  0.3323  0.3657 -0.7833
 2770SOL     OW 9750   3.448   2.547  10.532 -0.0543  0.3162  0.1030
 2770SOL    HW1 9751   3.521   2.587  10.483 -0.3822  0.6141 -0.1515
 2770SOL    HW2 9752   3.464   2.573  10.623 -1.3481  2.8284 -0.2819
 2771SOL     OW 9753   6.516   0.239   2.476  0.6334 -0.1508 -0.6859
 2771SOL    HW1 9754   6.578   0.296   2.521  0.3686 -0.6060  0.2790
 2771SOL    HW2 9755   6.510   0.276   2.387  3.5786 -1.0795 -1.3904
 2772SOL     OW 9756   2.080   4.789   2.953  0.1507  0.1847  0.4541
 2772SOL    HW1 9757   2.106   4.867   2.905  2.0100  1.4939  3.2715
 2772SOL    HW2 9758   1.995   4.810   2.991 -1.4783 -0.9767 -2.2781
 2773SOL     OW 9759   1.428   0.812   8.504 -0.9347  0.3539  0.0116
 2773SOL    HW1 9760   1.471   0.858   8.432  1.0096  0.4233  1.1493
 2773SOL    HW2 9761   1.495   0.753   8.538 -2.2682 -0.7370  0.8486
 2774SOL     OW 9762   6.124   0.768   5.471 -0.0451  0.0545  0.2111
 2774SOL    HW1 9763   6.199   0.826   5.456 -0.0915  0.3384  1.0306
 2774SOL    HW2 9764   6.132   0.741   5.562  0.6652 -2.2385 -0.4678
 2775SOL     OW 9765   5.551   3.892   0.271 -0.1314  0.1901 -0.0434
 2775SOL    HW1 9766   5.526   3.813   0.223 -1.1071 -0.4080  1.3405
 2775SOL    HW2 9767   5.468   3.939   0.284  0.1527  0.5030  0.7126
 2776SOL     OW 9768   3.155   5.859  10.256 -0.3241  0.4370 -0.1293
 2776SOL    HW1 9769   3.123   5.822  10.338  0.8828 -0.0009  0.1690
 2776SOL    HW2 9770   3.223   5.797  10.227 -0.9469  0.4055 -1.6293
 2777SOL     OW 9771   5.262   3.026   6.638 -0.2673  0.0763 -0.3076
 2777SOL    HW1 9772   5.355   3.048   6.631 -0.8074  3.0114  0.4865
 2777SOL    HW2 9773   5.246   3.018   6.732 -0.9284  0.1791 -0.4047
 2778SOL     OW 9774   2.513   2.022   6.989 -0.6399  0.0976  0.0330
 2778SOL    HW1 9775   2.525   1.946   7.046 -1.9759 -0.1356  0.0250
 2778SOL    HW2 9776   2.480   2.091   7.048 -1.0767  0.1531 -0.2768
 2779SOL     OW 9777   0.552   0.613  11.373 -0.0849  0.3111  0.5733
 2779SOL    HW1 9778   0.612   0.678  11.337  1.6030 -1.4628  0.0151
 2779SOL    HW2 9779   0.514   0.570  11.297  0.2600 -0.6259  0.9245
 2780SOL     OW 9780   7.640   5.087   1.879  0.1277 -0.1458 -1.0627
 2780SOL    HW1 9781   7.674   5.046   1.959  0.0303  1.0333 -0.3844
 2780SOL    HW2 9782   7.552   5.117   1.904 -0.0867 -0.1892 -1.7627
 2781SOL     OW 9783   6.807   7.034   5.891  0.2302 -0.9209 -0.4141
 2781SOL    HW1 9784   6.883   6.982   5.917  1.0540  0.0657 -0.7863
 2781SOL    HW2 9785   6.844   7.119   5.864 -1.1407  0.2826  1.2665
 2782SOL     OW 9786   6.189   0.407  11.213  0.0342  0.3766 -0.1207
 2782SOL    HW1 9787   6.182   0.420  11.119  1.0242  0.2028 -0.2293
 2782SOL    HW2 9788   6.099   0.397  11.243 -0.2125 -1.1346 -1.2725
 2783SOL     OW 9789   5.492   6.696  11.729 -0.1698  0.6154 -0.8210
 2783SOL    HW1 9790   5.587   6.686  11.734 -0.2116  0.7330  1.7385
 2783SOL    HW2 9791   5.473   6.705  11.636  2.3810  1.2019 -1.3483
 2784SOL     OW 9792   5.693   3.853   8.923  0.4905  0.1116 -0.9288
 2784SOL    HW1 9793   5.728   3.877   9.009  1.3098  1.4219 -1.6027
 2784SOL    HW2 9794   5.632   3.923   8.901  0.3769 -0.1545 -1.4777
 2785SOL     OW 9795   4.442   4.930   1.500  0.2531  0.0450 -0.2161
 2785SOL    HW1 9796   4.494   4.971   1.431 -1.4606 -1.5408 -2.5728
 2785SOL    HW2 9797   4.355   4.970   1.491 -0.1004 -0.4754  0.7846
 2786SOL     OW 9798   3.977   7.642   9.821  0.0006 -0.2476 -0.0384
 2786SOL    HW1 9799   3.927   7.642   9.739  0.8934  0.4804 -0.6053
 2786SOL    HW2 9800   3.942   7.716   9.871  0.4282  0.2070 -0.3974
 2787SOL     OW 9801   2.073   2.638   7.292  0.6422  0.0467  0.0278
 2787SOL    HW1 9802   2.165   2.618   7.307  0.5166 -0.9992 -0.5596
 2787SOL    HW2 9803   2.064   2.643   7.197  0.1690  0.5623  0.0900
 2788SOL     OW 9804   0.839   2.375   1.822  0.1382  0.4527 -0.3558
 2788SOL    HW1 9805   0.802   2.287   1.828 -0.5192  0.8199  1.4463
 2788SOL    HW2 9806   0.868   2.382   1.731 -0.8703 -1.1920 -0.8522
 2789SOL     OW 9807   6.991   3.513  10.636 -0.0178 -0.6910 -0.4144
 2789SOL    HW1 9808   6.958   3.529  10.724  1.9234 -2.0348  0.6255
 2789SOL    HW2 9809   6.924   3.550  10.578 -1.9787 -0.9280  1.5798
 2790SOL     OW 9810   6.862   3.687   1.054 -0.1132  0.0795 -0.6277
 2790SOL    HW1 9811   6.938   3.727   1.012  1.1973 -3.4692 -2.0218
 2790SOL    HW2 9812   6.833   3.620   0.992 -0.4640 -2.8812  2.4648
 2791SOL     OW 9813   1.360   5.175   2.339  0.4677 -0.6241 -0.1992
 2791SOL    HW1 9814   1.415   5.101   2.313 -0.2101 -1.7096  1.3246
 2791SOL    HW2 9815   1.301   5.139   2.405 -0.7125  1.0022 -0.3164
 2792SOL     OW 9816   4.081   6.182   2.078 -0.0958  0.2598 -0.0304
 2792SOL    HW1 9817   4.027   6.112   2.113 -3.5386  2.7024  0.0855
 2792SOL    HW2 9818   4.128   6.216   2.154 -0.1817 -0.4757  0.3577
 2793SOL     OW 9819   5.007   2.402   6.304 -0.6773  0.4382 -0.1125
 2793SOL    HW1 9820   5.090   2.437   6.272 -0.2515 -0.7470 -0.3656
 2793SOL    HW2 9821   4.983   2.459   6.377  1.4443 -0.3724  1.3320
 2794SOL     OW 9822   0.318   3.931   4.702  0.1057 -0.1914  0.4916
 2794SOL    HW1 9823   0.299   4.007   4.646 -0.0869 -0.0584  0.7401
 2794SOL    HW2 9824   0.411   3.941   4.724  0.4471 -0.7622 -0.5933
 2795SOL     OW 9825   6.276   2.372   4.096 -0.4071  0.0748 -0.1536
 2795SOL    HW1 9826   6.344   2.420   4.144 -0.2407 -0.1785 -0.1321
 2795SOL    HW2 9827   6.320   2.292   4.066 -0.6439  0.0012 -0.3070
 2796SOL     OW 9828   3.634   7.641   1.926  0.7722  0.4106 -0.1266
 2796SOL    HW1 9829   3.546   7.603   1.924  0.9173 -0.0400  1.1653
 2796SOL    HW2 9830   3.632   7.704   1.998  1.4136  0.6407 -0.3050
 2797SOL     OW 9831   5.425   4.517  11.001  0.0855 -0.0640  0.5478
 2797SOL    HW1 9832   5.506   4.534  11.050  0.1300 -0.0803  0.4807
 2797SOL    HW2 9833   5.439   4.561  10.917  1.0610 -2.1357 -0.4614
 2798SOL     OW 9834   0.832   0.648   6.845 -0.0502 -0.1944  0.1581
 2798SOL    HW1 9835   0.858   0.740   6.843  0.2741 -0.2773  0.3878
 2798SOL    HW2 9836   0.737   0.649   6.830  0.0090  0.1497 -0.1861
 2799SOL     OW 9837   3.774   6.229   1.644 -0.5011 -0.2533  0.1598
 2799SOL    HW1 9838   3.826   6.155   1.611 -0.4315  0.1940 -0.7633
 2799SOL    HW2 9839   3.775   6.218   1.739 -1.0654 -1.8273  0.0192
 2800SOL     OW 9840   4.608   0.651   5.046  0.8191  0.1209 -0.2461
 2800SOL    HW1 9841   4.688   0.677   5.001  0.1716  0.7520 -1.0549
 2800SOL    HW2 9842   4.572   0.580   4.993  0.5432  0.2329 -0.2114
 2801SOL     OW 9843   7.444   4.288   1.165  0.0916  0.3546  0.3603
 2801SOL    HW1 9844   7.359   4.320   1.196 -0.4355 -0.6715  0.0460
 2801SOL    HW2 9845   7.428   4.263   1.074  0.4843 -0.6591  0.5552
 2802SOL     OW 9846   7.755   5.551  11.110  0.0408  0.4968  0.3566
 2802SOL    HW1 9847   7.729   5.562  11.019  0.5045  1.6935  0.3530
 2802SOL    HW2 9848   7.679   5.579  11.161 -0.3268 -0.4557  0.3515
 2803SOL     OW 9849   7.849   4.277   5.255 -0.8006 -0.1512 -0.5215
 2803SOL    HW1 9850   7.808   4.352   5.299 -0.0310  0.0044 -0.0552
 2803SOL    HW2 9851   7.837   4.294   5.162 -0.1791  0.8098 -0.4293
 2804SOL     OW 9852   0.661   1.606   2.990 -0.4147  0.7370  0.2370
 2804SOL    HW1 9853   0.620   1.687   3.020 -2.3343  0.0281 -0.3530
 2804SOL    HW2 9854   0.610   1.536   3.032 -0.8484 -0.2001 -1.7475
 2805SOL     OW 9855   6.635   0.634   1.769 -0.3259 -0.1741 -0.6736
 2805SOL    HW1 9856   6.710   0.653   1.826  0.3592 -0.3276 -1.4987
 2805SOL    HW2 9857   6.591   0.718   1.758 -1.8608 -0.5255  1.9352
 2806SOL     OW 9858   0.332   6.147   3.565  0.1782 -0.6353 -0.5251
 2806SOL    HW1 9859   0.328   6.198   3.646  2.3424  0.1522 -0.8566
 2806SOL    HW2 9860   0.371   6.206   3.501  0.1161 -1.8112 -1.6805
 2807SOL     OW 9861   0.161   0.084   0.456  0.4627 -0.2990 -0.5316
 2807SOL    HW1 9862   0.075   0.084   0.414  0.7650 -1.9609 -1.2202
 2807SOL    HW2 9863   0.154   0.019   0.525  0.6742  0.7861  0.5502
 2808SOL     OW 9864   0.893   1.554   6.819  0.2915 -1.0119  0.9124
 2808SOL    HW1 9865   0.989   1.547   6.821  0.8261  2.4732 -1.8910
 2808SOL    HW2 9866   0.867   1.505   6.741  0.1815  0.2832  0.1093
 2809SOL     OW 9867   6.484   7.662   0.617 -0.4539  0.1927  0.5037
 2809SOL    HW1 9868   6.512   7.673   0.526  0.0198 -1.6986  0.3943
 2809SOL    HW2 9869   6.466   7.752   0.647 -0.6062  0.8494 -1.4267
 2810SOL     OW 9870   5.066   0.641   6.864  0.5755  0.0984 -0.0634
 2810SOL    HW1 9871   5.154   0.610   6.846 -0.2208 -2.1088 -0.5147
 2810SOL    HW2 9872   5.031   0.579   6.929 -0.9813  0.2779 -0.6716
 2811SOL     OW 9873   5.222   2.329   2.805  0.0602  0.0903 -0.4612
 2811SOL    HW1 9874   5.192   2.419   2.819 -0.4111  0.0869 -1.3266
 2811SOL    HW2 9875   5.144   2.275   2.817  0.0976 -0.0933 -1.0123
 2812SOL     OW 9876   3.237   3.091   9.339  0.0714  0.1701 -0.5985
 2812SOL    HW1 9877   3.327   3.102   9.369  0.5981 -1.2419 -1.6024
 2812SOL    HW2 9878   3.244   3.066   9.247 -1.3008 -0.8501 -0.4627
 2813SOL     OW 9879   6.687   4.797   6.018 -0.5974  0.1434  0.1981
 2813SOL    HW1 9880   6.612   4.752   6.057 -0.6774 -1.3705 -1.5451
 2813SOL    HW2 9881   6.761   4.769   6.072 -0.8797 -0.8327  0.1092
 2814SOL     OW 9882   3.491   7.761   4.461 -0.3729 -0.2001 -0.0453
 2814SOL    HW1 9883   3.551   7.710   4.406 -0.5145 -0.5577  0.1259
 2814SOL    HW2 9884   3.476   7.705   4.537 -2.3353 -0.9153 -0.8906
 2815SOL     OW 9885   6.025   3.546   6.064 -0.1374  0.2958  0.0110
 2815SOL    HW1 9886   6.073   3.627   6.081  0.0168  0.4349 -1.0224
 2815SOL    HW2 9887   5.953   3.547   6.127 -0.0510  1.1652  0.1073
 2816SOL     OW 9888   0.387   7.816   9.113  0.0550  0.2254  0.0836
 2816SOL    HW1 9889   0.442   7.804   9.190  0.5168  0.5431 -0.1890
 2816SOL    HW2 9890   0.421   7.753   9.049 -0.5617 -0.2966  0.2520
 2817SOL     OW 9891   3.642   4.901   9.860  0.4435 -0.2726 -0.1432
 2817SOL    HW1 9892   3.667   4.814   9.893  1.9768 -0.8410 -2.5392
 2817SOL    HW2 9893   3.725   4.944   9.841 -0.3322  1.0947 -0.5359
 2818SOL     OW 9894   5.509   7.627   5.089 -0.7048  0.4941 -0.3924
 2818SOL    HW1 9895   5.455   7.627   5.010 -0.6773  0.5863 -0.4106
 2818SOL    HW2 9896   5.598   7.613   5.057 -0.5652  1.5128 -0.4618
 2819SOL     OW 9897   4.010   5.423   6.470  0.1273 -0.0844 -0.1685
 2819SOL    HW1 9898   3.968   5.455   6.550  0.7764  0.9846 -0.2260
 2819SOL    HW2 9899   4.044   5.502   6.428  1.4073 -0.8058 -0.5599
 2820SOL     OW 9900   2.183   4.284   6.006  0.0795 -0.3839 -0.0710
 2820SOL    HW1 9901   2.166   4.272   5.913  0.8117 -1.6750 -0.0668
 2820SOL    HW2 9902   2.134   4.363   6.030 -1.3665 -0.9127 -1.1893
 2821SOL     OW 9903   2.122   0.184   6.621 -0.0919 -0.0744  0.6330
 2821SOL    HW1 9904   2.145   0.092   6.611 -3.1939 -1.0175  1.0863
 2821SOL    HW2 9905   2.026   0.184   6.629 -0.1700  3.1664  1.0080
 2822SOL     OW 9906   7.422   0.610   3.420 -0.4341 -0.0004 -0.0421
 2822SOL    HW1 9907   7.330   0.635   3.413 -0.3628 -0.0413 -1.4505
 2822SOL    HW2 9908   7.430   0.532   3.365  0.0763 -1.1039  1.5174
 2823SOL     OW 9909   3.885   6.517   6.010 -0.5446  0.4119  0.3009
 2823SOL    HW1 9910   3.892   6.429   6.048  1.7853  0.1508 -0.5805
 2823SOL    HW2 9911   3.948   6.569   6.059  0.7085  0.6651 -1.4902
 2824SOL     OW 9912   2.571   7.229   7.977 -0.4244 -0.5423 -0.9467
 2824SOL    HW1 9913   2.651   7.278   7.956  0.2110 -0.8378  0.5886
 2824SOL    HW2 9914   2.500   7.285   7.946  0.3530 -0.5399 -2.8982
 2825SOL     OW 9915   4.687   1.230   5.495  0.8827  0.2293 -0.4729
 2825SOL    HW1 9916   4.683   1.233   5.399 -0.6179 -1.1966 -0.5031
 2825SOL    HW2 9917   4.703   1.138   5.516 -1.6396 -0.0402  0.6401
 2826SOL     OW 9918   7.165   1.143   0.378  0.2383 -0.4579  0.3228
 2826SOL    HW1 9919   7.242   1.111   0.331  0.8061 -0.2865  1.1167
 2826SOL    HW2 9920   7.115   1.190   0.311  0.3176 -1.4163 -0.4316
 2827SOL     OW 9921   0.265   7.981   4.350  0.5507  0.0588  0.3550
 2827SOL    HW1 9922   0.229   7.897   4.379  0.7092  0.0836  0.6248
 2827SOL    HW2 9923   0.348   7.989   4.397  0.7769  0.1327 -0.0494
 2828SOL     OW 9924   5.833   2.396   7.353 -0.2917  0.2861 -0.1924
 2828SOL    HW1 9925   5.801   2.438   7.273 -0.5572  0.9709  0.2648
 2828SOL    HW2 9926   5.857   2.469   7.410 -0.2739 -0.1946  0.4186
 2829SOL     OW 9927   1.937   2.402   6.998  0.1604 -0.6798  0.2009
 2829SOL    HW1 9928   1.944   2.383   6.904  0.9308 -0.5781  0.2346
 2829SOL    HW2 9929   1.876   2.336   7.031 -0.5065 -0.4121 -0.4588
 2830SOL     OW 9930   3.228   0.414   7.628 -0.6086  0.3327 -0.0168
 2830SOL    HW1 9931   3.237   0.434   7.534 -0.4298 -0.6667 -0.2227
 2830SOL    HW2 9932   3.239   0.319   7.633  2.2386  0.6387  1.3610
 2831SOL     OW 9933   0.964   2.885   5.233 -0.1291  0.1761 -0.0856
 2831SOL    HW1 9934   0.894   2.943   5.264 -1.8317 -1.4745 -0.6436
 2831SOL    HW2 9935   0.925   2.798   5.232  1.6002 -0.6599 -1.5099
 2832SOL     OW 9936   4.721   7.695   1.404 -0.1471  0.2297 -0.5975
 2832SOL    HW1 9937   4.645   7.700   1.346 -0.5024  0.4100 -0.1188
 2832SOL    HW2 9938   4.693   7.737   1.485  0.6461  0.8016 -0.6082
 2833SOL     OW 9939   3.588   7.288   3.802  0.8541  0.1178  0.2561
 2833SOL    HW1 9940   3.602   7.340   3.723  0.8295  0.0374  0.2001
 2833SOL    HW2 9941   3.532   7.216   3.775  0.6872  0.1961  0.3889
 2834SOL     OW 9942   4.646   2.563  11.312  0.2134 -0.2281 -0.0159
 2834SOL    HW1 9943   4.664   2.476  11.347 -2.8951 -1.0078 -0.0326
 2834SOL    HW2 9944   4.626   2.617  11.389 -0.0216 -0.1441 -0.1323
 2835SOL     OW 9945   3.464   0.694   2.331 -0.2784  0.3287  0.2867
 2835SOL    HW1 9946   3.478   0.777   2.376 -0.2567 -0.0471  0.9932
 2835SOL    HW2 9947   3.511   0.630   2.385 -2.3449 -0.5357  1.1451
 2836SOL     OW 9948   0.545   7.091  11.443  0.0402  0.4815  0.2244
 2836SOL    HW1 9949   0.632   7.113  11.478 -1.2218 -0.1955  4.4134
 2836SOL    HW2 9950   0.490   7.166  11.468 -1.2294 -0.6421  0.9452
 2837SOL     OW 9951   4.462   5.608   0.243 -0.4120  0.3826 -0.3132
 2837SOL    HW1 9952   4.377   5.590   0.204  0.0135 -0.5152 -0.8649
 2837SOL    HW2 9953   4.473   5.703   0.236 -1.9933  0.7193  1.1144
 2838SOL     OW 9954   3.332   2.838   9.532  0.1014  0.1225  0.4765
 2838SOL    HW1 9955   3.401   2.876   9.477  1.1126 -1.5554  0.5205
 2838SOL    HW2 9956   3.280   2.913   9.560  1.3316  1.3382 -0.3505
 2839SOL     OW 9957   3.115   3.270   2.655  0.2287  0.2609 -0.5397
 2839SOL    HW1 9958   3.193   3.218   2.636  0.2751  0.2742 -0.3819
 2839SOL    HW2 9959   3.127   3.351   2.604 -0.8319 -0.7430 -2.4931
 2840SOL     OW 9960   6.173   5.460   4.233  0.2178 -0.8064 -0.6209
 2840SOL    HW1 9961   6.142   5.398   4.298  1.1846 -0.3712  0.3021
 2840SOL    HW2 9962   6.233   5.518   4.281  0.7708 -0.3063 -1.8354
 2841SOL     OW 9963   5.910   4.395  12.204 -0.5539  0.7756 -0.6442
 2841SOL    HW1 9964   5.970   4.371  12.275 -0.5746  1.3890 -0.4206
 2841SOL    HW2 9965   5.933   4.336  12.132 -0.5034  0.1800 -0.1455
 2842SOL     OW 9966   7.222   4.042   6.754  1.0616  0.0790 -0.0646
 2842SOL    HW1 9967   7.192   3.951   6.747  1.6173 -0.0448 -1.1575
 2842SOL    HW2 9968   7.266   4.047   6.839  1.7624 -0.9107 -0.3474
 2843SOL     OW 9969   0.765   6.042   2.060  0.4291  0.3753  0.4909
 2843SOL    HW1 9970   0.672   6.054   2.080  0.0550  3.6376 -2.2584
 2843SOL    HW2 9971   0.810   6.103   2.118  0.4329  1.6215 -0.7961
 2844SOL     OW 9972   0.392   5.902  12.384 -0.1197  0.0573  0.2323
 2844SOL    HW1 9973   0.426   5.928  12.299 -1.0528  1.2238  0.1836
 2844SOL    HW2 9974   0.470   5.886  12.437  0.4834 -1.2540 -0.9713
 2845SOL     OW 9975   1.787   7.487  10.529 -0.6549  0.1865 -0.6153
 2845SOL    HW1 9976   1.750   7.429  10.463 -0.7874  1.1548 -1.4107
 2845SOL    HW2 9977   1.721   7.555  10.542 -0.0481  0.7722 -0.5123
 2846SOL     OW 9978   1.347   1.569   8.964 -0.2171 -0.2503  0.2781
 2846SOL    HW1 9979   1.292   1.565   8.887 -1.9489 -0.0496  1.4470
 2846SOL    HW2 9980   1.437   1.566   8.930 -0.9177  0.0211 -1.7229
 2847SOL     OW 9981   5.392   3.262   1.249 -0.8340  0.1680  0.0077
 2847SOL    HW1 9982   5.437   3.337   1.288 -0.6534 -1.0407  2.3439
 2847SOL    HW2 9983   5.413   3.266   1.156  0.9706  1.7786  0.4254
 2848SOL     OW 9984   5.600   2.726   7.625 -0.4880  0.1353  0.1305
 2848SOL    HW1 9985   5.685   2.769   7.623 -0.4461  0.1498  1.3334
 2848SOL    HW2 9986   5.618   2.639   7.660 -0.9086  0.0193  0.0625
 2849SOL     OW 9987   6.757   6.176   6.589  0.2057  0.1515 -0.8070
 2849SOL    HW1 9988   6.732   6.187   6.498 -0.1722 -0.4137 -0.7825
 2849SOL    HW2 9989   6.791   6.261   6.616  1.9995 -0.1426 -1.9755
 2850SOL     OW 9990   0.369   5.034   7.342 -0.1047 -0.0467  0.3365
 2850SOL    HW1 9991   0.320   5.082   7.408  2.1011  1.7386  0.7751
 2850SOL    HW2 9992   0.412   4.963   7.391  1.0245  0.8996  0.7732
 2851SOL     OW 9993   7.267   1.697  12.346  0.2898  0.0453 -0.1029
 2851SOL    HW1 9994   7.245   1.790  12.346 -0.5995 -0.1544  0.4957
 2851SOL    HW2 9995   7.225   1.663  12.267  0.9270  0.2093 -0.5232
 2852SOL     OW 9996   0.791   0.048  10.614 -0.0651 -0.2225 -0.2063
 2852SOL    HW1 9997   0.873   0.074  10.572  0.3155 -1.5102 -0.3275
 2852SOL    HW2 9998   0.723   0.087  10.560  0.4489  1.8443  0.5513
 2853SOL     OW 9999   3.223   3.160   8.938 -0.2128  0.5187  0.0170
 2853SOL    HW110000   3.294   3.172   9.001 -1.1705  4.2948  0.6279
 2853SOL    HW210001   3.164   3.096   8.980  1.3836 -0.5401  0.7470
 2854SOL     OW10002   7.168   2.456  11.764  0.1710  0.1619  0.2431
 2854SOL    HW110003   7.175   2.551  11.771  1.0089  0.1109  0.1356
 2854SOL    HW210004   7.208   2.435  11.679 -2.4998 -0.0213 -1.0984
 2855SOL     OW10005   0.991   4.847   8.083 -0.1567 -0.3686 -0.5294
 2855SOL    HW110006   1.053   4.876   8.149 -0.3654 -1.5276  0.2159
 2855SOL    HW210007   1.045   4.814   8.011  0.0755  0.5271 -0.7675
 2856SOL     OW10008   2.171   1.908  11.056 -0.0254  0.7412  0.1155
 2856SOL    HW110009   2.089   1.921  11.104 -0.1263 -0.4823  0.3272
 2856SOL    HW210010   2.145   1.856  10.980  0.6920 -0.6311  0.7702
 2857SOL     OW10011   3.593   5.060   2.493 -0.2521 -0.2921 -0.2157
 2857SOL    HW110012   3.598   5.090   2.584  2.4033 -0.4883 -0.2409
 2857SOL    HW210013   3.605   5.139   2.441  0.3685 -0.4923 -0.3736
 2858SOL     OW10014   2.357   1.663   0.992  0.1146  0.0329 -0.4273
 2858SOL    HW110015   2.391   1.752   0.989  0.1937  0.0969  1.2864
 2858SOL    HW210016   2.413   1.618   1.056 -1.9248 -0.3069  1.2533
 2859SOL     OW10017   1.395   6.464   8.006  0.5591  0.6577 -0.3189
 2859SOL    HW110018   1.410   6.403   8.079  2.2862 -0.6726 -1.7028
 2859SOL    HW210019   1.402   6.411   7.928 -1.3329  2.0453 -1.5319
 2860SOL     OW10020   4.643   7.769  10.059 -0.0117 -0.4593  0.0239
 2860SOL    HW110021   4.715   7.831  10.065  0.7827 -1.1319 -1.8342
 2860SOL    HW210022   4.565   7.822  10.046  0.3917  0.2081  0.3141
 2861SOL     OW10023   1.001   2.205   4.174  0.0236 -0.8831 -0.6142
 2861SOL    HW110024   0.922   2.173   4.130 -0.9031 -0.1574  0.4458
 2861SOL    HW210025   0.999   2.164   4.261  0.3343 -0.1910 -0.2697
 2862SOL     OW10026   7.031   4.769   2.639  0.5793  0.5363 -0.0471
 2862SOL    HW110027   7.007   4.701   2.702  1.2412  1.6161  1.4078
 2862SOL    HW210028   7.013   4.730   2.553 -1.8544 -0.4172  0.8160
 2863SOL     OW10029   3.886   6.073   1.169  0.4567 -0.0238 -0.3022
 2863SOL    HW110030   3.949   6.140   1.195  0.6528  0.3353 -1.6345
 2863SOL    HW210031   3.899   6.062   1.075 -1.6806  0.3219 -0.7032
 2864SOL     OW10032   5.297   3.083   2.237  0.3220  0.0269 -0.1389
 2864SOL    HW110033   5.211   3.112   2.266 -0.3957 -2.9018  0.9872
 2864SOL    HW210034   5.295   2.988   2.246  2.1631 -0.6420 -4.2776
 2865SOL     OW10035   1.345   1.763  11.800 -0.5718  0.4503  0.2225
 2865SOL    HW110036   1.276   1.817  11.761 -0.9068  0.3797  0.7089
 2865SOL    HW210037   1.360   1.802  11.886  0.2793  0.7075 -0.0277
 2866SOL     OW10038   0.301   7.404   7.023  0.2285 -0.2907 -0.0060
 2866SOL    HW110039   0.344   7.458   7.089  0.0379 -1.3135  0.9825
 2866SOL    HW210040   0.303   7.458   6.944 -0.4135  1.3749  1.0452
 2867SOL     OW10041   4.575   5.404   8.965 -0.2604 -0.2299  0.6332
 2867SOL    HW110042   4.532   5.482   8.931  0.0581  0.2376  1.2707
 2867SOL    HW210043   4.504   5.346   8.990 -0.5060 -0.7759 -1.1924
 2868SOL     OW10044   7.085   5.360   1.636 -0.3919  0.1470 -0.0859
 2868SOL    HW110045   7.004   5.312   1.653  0.0395 -1.1179 -1.4353
 2868SOL    HW210046   7.067   5.449   1.667 -1.8468 -0.4120  0.7760
 2869SOL     OW10047   0.031   4.908  10.891  0.1844 -0.7531 -0.0586
 2869SOL    HW110048  -0.047   4.907  10.946 -0.2318 -1.6740 -0.6424
 2869SOL    HW210049   0.102   4.932  10.951 -0.2655 -1.6824  0.8867
 2870SOL     OW10050   0.597   4.620   9.592 -0.0814  0.5683 -0.4408
 2870SOL    HW110051   0.521   4.633   9.534  0.2144  0.8660 -0.7714
 2870SOL    HW210052   0.568   4.653   9.677 -0.3734  0.5476 -0.5296
 2871SOL     OW10053   5.551   3.461  12.464  0.5813  0.3383  0.3041
 2871SOL    HW110054   5.485   3.425  12.404 -2.4541  2.5255  2.0002
 2871SOL    HW210055   5.617   3.500  12.408  0.2838 -1.6127 -1.5219
 2872SOL     OW10056   3.232   0.261   8.672  0.1048 -0.0474 -0.1797
 2872SOL    HW110057   3.206   0.319   8.600 -0.7288 -1.0597 -0.7179
 2872SOL    HW210058   3.302   0.207   8.635  0.1018 -0.1468 -0.0422
 2873SOL     OW10059   3.330   1.219   0.467 -0.1667  0.2182  0.3967
 2873SOL    HW110060   3.409   1.253   0.425  0.6212 -0.0271  1.6251
 2873SOL    HW210061   3.261   1.229   0.401  0.7103  1.2094 -0.3978
 2874SOL     OW10062   2.390   4.682   9.521  0.0113 -0.8675 -0.3587
 2874SOL    HW110063   2.295   4.672   9.516 -0.1216 -1.2931  1.9122
 2874SOL    HW210064   2.419   4.685   9.429 -2.3537  1.2593 -1.1625
 2875SOL     OW10065   3.838   3.388   9.463  0.1993 -0.4241  0.2612
 2875SOL    HW110066   3.845   3.476   9.499 -1.2338  0.6015 -1.7657
 2875SOL    HW210067   3.804   3.335   9.535 -1.3443  1.2436  0.8336
 2876SOL     OW10068   3.518   5.352   5.935 -0.0832 -0.4601 -0.0228
 2876SOL    HW110069   3.467   5.425   5.971  0.3202 -0.1694 -0.0341
 2876SOL    HW210070   3.467   5.322   5.860 -0.2752 -0.2125  0.0057
 2877SOL     OW10071   0.261   0.791  10.567  0.2603  0.3630  0.1767
 2877SOL    HW110072   0.258   0.696  10.575  2.3520  0.1482 -0.8962
 2877SOL    HW210073   0.282   0.822  10.655  1.8387 -0.3640  0.0916
 2878SOL     OW10074   3.185   4.821   5.972  0.4806 -0.5132  0.7352
 2878SOL    HW110075   3.119   4.791   6.035 -0.7802  1.8807  0.7059
 2878SOL    HW210076   3.203   4.745   5.917 -2.4495 -1.2550  0.6344
 2879SOL     OW10077   3.827   5.865   3.500 -0.5796  0.3931 -0.3122
 2879SOL    HW110078   3.875   5.795   3.544 -2.9832 -1.8045 -1.0029
 2879SOL    HW210079   3.747   5.876   3.551 -0.8777  1.7132 -1.0099
 2880SOL     OW10080   7.588   3.110   2.415 -0.1492 -0.0093 -0.4930
 2880SOL    HW110081   7.617   3.118   2.506  0.2354  0.1160 -0.6248
 2880SOL    HW210082   7.541   3.027   2.411 -0.0127 -0.0977 -0.2237
 2881SOL     OW10083   0.133   2.512   1.686 -0.4853  0.6381 -0.1200
 2881SOL    HW110084   0.186   2.546   1.758  0.5839  0.9446 -1.0135
 2881SOL    HW210085   0.079   2.587   1.659 -1.2134  0.3996  0.6224
 2882SOL     OW10086   2.335   3.777   2.705  0.3648 -0.0905 -0.0999
 2882SOL    HW110087   2.374   3.864   2.696 -0.0978  0.0695 -0.6402
 2882SOL    HW210088   2.410   3.718   2.712  0.7140  0.2392 -0.8932
 2883SOL     OW10089   0.891   7.551   4.957  0.1170 -0.5558 -0.2047
 2883SOL    HW110090   0.808   7.599   4.948 -0.9333 -2.2607  0.0053
 2883SOL    HW210091   0.932   7.559   4.870  1.7090  3.5787  0.6752
 2884SOL     OW10092   4.502   0.930   6.241 -0.6463  0.0787  0.0365
 2884SOL    HW110093   4.590   0.898   6.261 -0.3796  0.1785 -0.9238
 2884SOL    HW210094   4.466   0.956   6.326  0.1592 -0.1855  0.4688
 2885SOL     OW10095   0.337   6.459  11.084  0.1381 -0.5521 -0.2467
 2885SOL    HW110096   0.294   6.522  11.027 -2.3464 -0.7086  1.3124
 2885SOL    HW210097   0.308   6.374  11.051  0.2697 -0.7244  0.0804
 2886SOL     OW10098   6.673   3.397  10.187  0.0819  0.2381  0.0098
 2886SOL    HW110099   6.732   3.451  10.134  0.2863 -0.2815 -0.2900
 2886SOL    HW210100   6.662   3.447  10.268  2.7044 -0.6473  1.0163
 2887SOL     OW10101   2.255   0.743   0.634  0.4345 -0.4989 -0.1616
 2887SOL    HW110102   2.187   0.778   0.691 -0.5713 -1.0335 -0.9922
 2887SOL    HW210103   2.334   0.792   0.657 -0.4957  0.9746  0.0062
 2888SOL     OW10104   3.596   2.540   0.722 -0.2230  0.0074 -0.0318
 2888SOL    HW110105   3.535   2.524   0.651 -0.5158  1.1340 -0.0557
 2888SOL    HW210106   3.541   2.569   0.795  0.2785  1.2532 -0.1263
 2889SOL     OW10107   6.317   4.450  12.373 -0.2630 -0.4667 -0.1800
 2889SOL    HW110108   6.308   4.416  12.284 -0.8225 -0.0340 -0.2934
 2889SOL    HW210109   6.377   4.389  12.416  0.9793 -0.0076 -1.2013
 2890SOL     OW10110   7.012   2.926   9.919 -0.4176  0.3671 -0.1096
 2890SOL    HW110111   7.071   2.982   9.971  0.0271  0.4929 -0.7401
 2890SOL    HW210112   7.014   2.964   9.831 -1.1825  0.1660 -0.2214
 2891SOL     OW10113   1.296   5.562   3.675  0.2761 -0.5439 -0.2972
 2891SOL    HW110114   1.375   5.611   3.654 -0.8112  1.4143 -0.1280
 2891SOL    HW210115   1.262   5.536   3.589  0.2886  0.0206 -0.4844
 2892SOL     OW10116   2.360   4.720   1.699 -0.0726  0.5092  0.2286
 2892SOL    HW110117   2.437   4.748   1.649 -1.1194 -0.2986 -1.9639
 2892SOL    HW210118   2.374   4.626   1.713  0.2610  0.7479  1.6128
 2893SOL     OW10119   6.361   0.882  11.233  0.3347 -0.0213 -0.2234
 2893SOL    HW110120   6.356   0.790  11.257  0.4221  0.0694  0.1518
 2893SOL    HW210121   6.416   0.884  11.154 -1.2528 -0.4883 -1.4038
 2894SOL     OW10122   3.808   5.634  11.981  0.1597 -0.3249  0.8690
 2894SOL    HW110123   3.745   5.702  11.960  0.8750 -0.6264 -3.0413
 2894SOL    HW210124   3.759   5.571  12.035 -2.6305 -0.0628 -1.1551
 2895SOL     OW10125   7.743   7.052   2.435 -0.2844 -0.9791  0.0815
 2895SOL    HW110126   7.662   7.082   2.476 -0.5967 -2.2476  0.4556
 2895SOL    HW210127   7.812   7.087   2.491 -0.7109 -3.0383  2.0615
 2896SOL     OW10128   3.164   3.943   1.456  0.5624 -0.5102 -0.3239
 2896SOL    HW110129   3.129   4.011   1.399  0.4767 -0.3217 -0.0455
 2896SOL    HW210130   3.129   3.861   1.420  0.1813 -0.3580 -0.3005
 2897SOL     OW10131   3.964   5.718   5.847 -0.1699 -0.1798 -0.2621
 2897SOL    HW110132   3.893   5.767   5.889 -0.3814  1.3160 -2.2540
 2897SOL    HW210133   3.920   5.655   5.790  0.1231 -1.9940  1.4040
 2898SOL     OW10134   0.221   6.052   1.855  0.6582  0.1043 -0.2858
 2898SOL    HW110135   0.285   6.124   1.847  1.0231 -0.1075  0.5940
 2898SOL    HW210136   0.211   6.020   1.766  2.2206 -0.2258 -0.3825
 2899SOL     OW10137   5.838   3.940   2.439 -0.6241  0.3401  0.1138
 2899SOL    HW110138   5.905   3.998   2.404  1.8650 -0.5114  3.0167
 2899SOL    HW210139   5.756   3.988   2.427  0.8371  2.7147 -1.0458
 2900SOL     OW10140   4.864   5.980   9.647 -0.7219  0.2369  0.0012
 2900SOL    HW110141   4.868   6.071   9.616  0.6442  0.2256  0.0730
 2900SOL    HW210142   4.924   5.978   9.722 -0.7327 -0.7238 -0.0098
 2901SOL     OW10143   1.978   2.888   7.468 -0.2958  0.4781 -0.1791
 2901SOL    HW110144   1.922   2.864   7.543  0.2040  2.8375  1.0786
 2901SOL    HW210145   2.024   2.808   7.445 -2.0883 -0.8487  0.6028
 2902SOL     OW10146   5.982   1.191   6.266  0.3462 -0.3874  0.3222
 2902SOL    HW110147   5.930   1.271   6.271 -0.7573 -1.1285  1.5665
 2902SOL    HW210148   6.013   1.188   6.176  0.1982  1.2954  0.1876
 2903SOL     OW10149   4.226   1.301   5.484 -0.2338 -0.4881 -0.4297
 2903SOL    HW110150   4.300   1.283   5.541 -0.7563 -1.2391  0.0237
 2903SOL    HW210151   4.206   1.393   5.500  0.9021 -0.1387 -0.9269
 2904SOL     OW10152   4.535   2.153   3.208 -0.6173 -0.2252  0.4064
 2904SOL    HW110153   4.576   2.085   3.155 -1.5515  0.2808 -1.0207
 2904SOL    HW210154   4.464   2.187   3.154 -0.9499  1.0540  1.5664
 2905SOL     OW10155   7.543   2.852   9.421 -0.5719 -0.1353 -0.4744
 2905SOL    HW110156   7.484   2.833   9.348 -2.2633  0.0206  0.8026
 2905SOL    HW210157   7.536   2.775   9.478  0.7949 -0.2925 -0.4607
 2906SOL     OW10158   5.631   5.841   0.847  0.1118  0.2264 -0.0557
 2906SOL    HW110159   5.688   5.767   0.865  0.2130  0.2713 -0.1840
 2906SOL    HW210160   5.681   5.894   0.784 -1.0972 -1.0043 -2.1688
 2907SOL     OW10161   0.305   4.108   9.331 -0.3699 -0.1917  0.3510
 2907SOL    HW110162   0.321   4.102   9.237 -0.2632  2.3368  0.1374
 2907SOL    HW210163   0.251   4.186   9.341  0.7225  0.3629  2.4946
 2908SOL     OW10164   7.967   6.078   3.729 -0.0576 -0.3169 -0.0295
 2908SOL    HW110165   7.875   6.083   3.701 -0.9563 -0.9203  2.5427
 2908SOL    HW210166   7.996   5.992   3.701 -0.3435 -0.2092 -0.6654
 2909SOL     OW10167   3.402   4.081   9.736  0.1004 -0.7994  0.2707
 2909SOL    HW110168   3.369   4.041   9.816  0.5804  2.5336  2.3730
 2909SOL    HW210169   3.497   4.070   9.741  0.1843 -0.0596  0.5547
 2910SOL     OW10170   0.309   6.609   2.678 -0.0537  0.6380  0.1536
 2910SOL    HW110171   0.368   6.533   2.671 -1.6889 -0.6897  0.1596
 2910SOL    HW210172   0.344   6.672   2.615 -0.3829 -1.3595 -2.1678
 2911SOL     OW10173   0.206   2.647   0.574  0.2696 -0.4590  0.1548
 2911SOL    HW110174   0.262   2.669   0.499  0.5302  0.4430  0.5947
 2911SOL    HW210175   0.127   2.611   0.535  0.1517  0.5614 -0.6069
 2912SOL     OW10176   5.261   1.179   7.944  0.0402  0.0179  0.2775
 2912SOL    HW110177   5.297   1.107   7.891 -0.0920  0.7221 -0.8057
 2912SOL    HW210178   5.217   1.235   7.880 -0.6558  0.5802  1.2328
 2913SOL     OW10179   4.794   7.795   1.035 -0.1125 -0.6270  0.0726
 2913SOL    HW110180   4.880   7.816   1.070 -0.0428 -2.3889  1.0845
 2913SOL    HW210181   4.810   7.774   0.943 -0.0392  2.3873 -0.6956
 2914SOL     OW10182   4.319   2.049  11.392  0.0028 -0.3431  0.1277
 2914SOL    HW110183   4.322   2.035  11.486 -0.7232  0.0233  0.2178
 2914SOL    HW210184   4.268   2.130  11.382 -0.6418 -0.8264 -0.6075
 2915SOL     OW10185   3.244   0.482   6.253 -0.1456  0.3347  0.0553
 2915SOL    HW110186   3.257   0.439   6.338  1.5508  0.3705 -0.1428
 2915SOL    HW210187   3.183   0.425   6.207 -1.0468  0.2800  1.2611
 2916SOL     OW10188   2.609   6.491   7.457 -0.1388  0.3015 -0.4129
 2916SOL    HW110189   2.655   6.505   7.374 -1.0884 -0.5481 -1.1075
 2916SOL    HW210190   2.531   6.547   7.451 -0.9254 -0.8067 -0.7022
 2917SOL     OW10191   6.149   7.144   6.914  0.0570 -0.1089 -0.5087
 2917SOL    HW110192   6.078   7.197   6.880 -0.6333 -1.1392 -0.7043
 2917SOL    HW210193   6.222   7.206   6.925 -1.2112  1.2174  0.8547
 2918SOL     OW10194   6.922   0.443  11.762 -0.1986 -0.0207 -0.0030
 2918SOL    HW110195   6.839   0.397  11.749  0.7637 -1.2402 -2.5611
 2918SOL    HW210196   6.971   0.387  11.823  0.2778 -1.6241 -1.7322
 2919SOL     OW10197   7.243   6.273   2.757  0.0852 -0.3421  0.7597
 2919SOL    HW110198   7.266   6.184   2.786  0.7155 -0.5260 -0.2500
 2919SOL    HW210199   7.271   6.276   2.666 -0.0119  0.8751  0.7590
 2920SOL     OW10200   2.942   5.633   6.396  0.1171  0.0891  0.7297
 2920SOL    HW110201   2.915   5.669   6.480 -1.5890  0.4359  0.0769
 2920SOL    HW210202   2.970   5.709   6.345 -0.7900  0.1544  0.3115
 2921SOL     OW10203   5.137   2.382   1.035 -0.6686 -0.0218 -0.4037
 2921SOL    HW110204   5.196   2.395   0.961  0.6297 -0.1521  0.5711
 2921SOL    HW210205   5.080   2.310   1.008 -1.0165  0.7060 -1.7232
 2922SOL     OW10206   1.908   5.000   8.113  0.2334  0.1672  0.1955
 2922SOL    HW110207   1.988   4.960   8.146  1.3844  1.4491 -0.9110
 2922SOL    HW210208   1.922   5.094   8.123 -0.5357  0.4698 -1.2920
 2923SOL     OW10209   1.787   5.571   1.666  0.1643  0.1340 -0.4730
 2923SOL    HW110210   1.772   5.646   1.609  1.9462  1.8035  1.1055
 2923SOL    HW210211   1.879   5.578   1.692  0.1948 -2.1825  0.3534
 2924SOL     OW10212   1.020   3.523  10.186 -0.2396  0.3096 -0.0415
 2924SOL    HW110213   1.114   3.527  10.202 -0.2266 -1.2152  0.3764
 2924SOL    HW210214   0.998   3.430  10.191 -1.3711  0.3663 -2.4291
 2925SOL     OW10215   0.519   7.760   6.453  0.5724 -0.1744 -0.1855
 2925SOL    HW110216   0.424   7.762   6.467  0.8486  1.8892  1.8049
 2925SOL    HW210217   0.528   7.773   6.358 -1.1205  2.4454 -0.0892
 2926SOL     OW10218   2.489   0.323   1.071  0.2731  0.7215 -0.1839
 2926SOL    HW110219   2.553   0.323   1.142 -1.5931 -0.4424  1.6394
 2926SOL    HW210220   2.490   0.233   1.038 -2.6367 -0.3485  2.1814
 2927SOL     OW10221   0.829   7.618   5.885  0.1283 -0.1502 -0.6135
 2927SOL    HW110222   0.825   7.574   5.970  2.5307 -0.4718 -0.6039
 2927SOL    HW210223   0.754   7.583   5.836 -0.3289 -1.2009  0.7761
 2928SOL     OW10224   4.713   6.195   1.298  0.2557 -0.4167  0.6867
 2928SOL    HW110225   4.759   6.233   1.373  1.4547 -1.2912  0.4183
 2928SOL    HW210226   4.776   6.197   1.227 -0.9951  0.7255 -0.4290
 2929SOL     OW10227   5.779   4.810   8.500 -0.1806  0.8713 -0.5625
 2929SOL    HW110228   5.804   4.900   8.480 -0.7111  0.6924 -2.1225
 2929SOL    HW210229   5.854   4.757   8.473 -0.2753  0.7504 -0.5878
 2930SOL     OW10230   2.609   1.656   2.810  0.0867 -0.2539 -0.1102
 2930SOL    HW110231   2.541   1.667   2.743 -1.1151 -1.7465  0.7830
 2930SOL    HW210232   2.609   1.738   2.859 -2.4488 -0.8244  1.0267
 2931SOL     OW10233   5.166   5.682  10.185  0.4892  0.1023 -0.2604
 2931SOL    HW110234   5.076   5.649  10.176 -0.4145  2.4751 -0.7150
 2931SOL    HW210235   5.218   5.623  10.131 -0.9435 -0.7512 -0.7852
 2932SOL     OW10236   6.849   1.903   8.862 -0.6331 -0.1284 -0.0798
 2932SOL    HW110237   6.852   1.818   8.817 -1.9119 -0.4458  0.3981
 2932SOL    HW210238   6.873   1.966   8.794 -3.6366 -0.4706 -1.6651
 2933SOL     OW10239   3.823   3.868  10.290  0.1987  0.0995 -0.8386
 2933SOL    HW110240   3.866   3.816  10.222  0.2129  1.7273 -2.1242
 2933SOL    HW210241   3.759   3.921  10.243 -0.7016  0.3358  0.5983
 2934SOL     OW10242   6.297   6.677   9.155 -0.0159 -0.1808  0.5235
 2934SOL    HW110243   6.203   6.676   9.138 -0.0418 -0.9538  0.6840
 2934SOL    HW210244   6.335   6.720   9.079 -0.3008 -1.8082 -0.5743
 2935SOL     OW10245   7.745   5.322  10.750 -0.1583  0.1889  0.0954
 2935SOL    HW110246   7.717   5.237  10.785  0.3362 -0.1778 -0.3912
 2935SOL    HW210247   7.838   5.326  10.769 -0.1320  0.5143 -0.1009
 2936SOL     OW10248   7.361   4.504   6.466  0.1104 -0.0364 -0.2518
 2936SOL    HW110249   7.364   4.486   6.372 -0.8795 -0.3193 -0.2399
 2936SOL    HW210250   7.274   4.476   6.493  0.3443  0.1480  0.7350
 2937SOL     OW10251   3.547   1.832   4.441 -0.2318  0.4180 -0.7871
 2937SOL    HW110252   3.472   1.867   4.488  0.1936 -0.9576  1.0230
 2937SOL    HW210253   3.563   1.746   4.480  0.8944 -0.3140 -2.6822
 2938SOL     OW10254   1.229   4.406   8.973 -0.2923  0.5580  0.0700
 2938SOL    HW110255   1.249   4.313   8.980 -0.1243  0.4118 -1.9415
 2938SOL    HW210256   1.179   4.426   9.053 -0.3048 -1.2310  0.5434
 2939SOL     OW10257   4.207   7.654   1.851  0.0121  0.0462 -0.1668
 2939SOL    HW110258   4.256   7.579   1.819  0.2456  0.6482 -1.2892
 2939SOL    HW210259   4.179   7.629   1.939  1.0733 -0.8834 -0.0667
 2940SOL     OW10260   6.009   1.521   5.912 -0.0652  0.6012 -0.1402
 2940SOL    HW110261   6.078   1.516   5.845  0.6461  3.2218  0.2877
 2940SOL    HW210262   6.036   1.593   5.969 -1.9332  0.0767  1.5390
 2941SOL     OW10263   1.936   4.459   9.454  0.2227  0.8603  0.0473
 2941SOL    HW110264   2.008   4.522   9.454 -1.3041  2.6920  0.4013
 2941SOL    HW210265   1.857   4.513   9.451 -1.3273 -0.8286  4.0034
 2942SOL     OW10266   7.522   7.878   3.474 -0.4636 -0.4294 -0.1371
 2942SOL    HW110267   7.591   7.908   3.415  0.7566 -1.9578  0.4454
 2942SOL    HW210268   7.525   7.782   3.468  0.2544 -0.7038  2.9306
 2943SOL     OW10269   0.658   3.603   0.491 -0.1569  0.5278  0.6136
 2943SOL    HW110270   0.737   3.616   0.544  0.3478 -0.4074  0.1296
 2943SOL    HW210271   0.653   3.680   0.435  0.3007  0.6845  0.7824
 2944SOL     OW10272   2.070   4.529  11.950 -0.0294  0.0381  0.0785
 2944SOL    HW110273   2.137   4.561  12.010  0.2368  1.1174 -0.7719
 2944SOL    HW210274   2.088   4.436  11.941  0.5445  0.0632  0.8693
 2945SOL     OW10275   6.934   3.498   8.189 -0.0692  0.3477  0.4147
 2945SOL    HW110276   6.949   3.419   8.241 -0.2131 -0.0051 -0.0711
 2945SOL    HW210277   6.896   3.560   8.251 -1.1333 -0.3824  0.5188
 2946SOL     OW10278   1.455   3.071   8.084  0.2611 -0.3747  0.2066
 2946SOL    HW110279   1.520   3.109   8.143 -0.4943  3.8327 -1.3030
 2946SOL    HW210280   1.499   3.066   8.000 -0.0277 -2.0221  0.1199
 2947SOL     OW10281   2.651   7.563   3.517  0.5932 -0.7315 -0.2293
 2947SOL    HW110282   2.729   7.605   3.553 -0.0299 -0.2539  0.5844
 2947SOL    HW210283   2.584   7.631   3.520  0.0763 -1.2149 -0.6882
 2948SOL     OW10284   2.105   3.001   7.033  0.0782 -0.6223 -0.3492
 2948SOL    HW110285   2.112   3.090   7.067 -0.0469 -0.0791 -1.7068
 2948SOL    HW210286   2.043   2.958   7.091 -0.7575  0.5198 -0.3639
 2949SOL     OW10287   0.122   2.117  10.717 -0.0397 -0.8946 -0.3852
 2949SOL    HW110288   0.050   2.081  10.768 -0.4082 -0.4384 -0.5747
 2949SOL    HW210289   0.141   2.050  10.651 -0.3313 -0.9902 -0.3722
 2950SOL     OW10290   3.275   1.625  10.367  0.1642 -0.0837 -0.2480
 2950SOL    HW110291   3.326   1.682  10.309  2.9002 -0.8843  1.1576
 2950SOL    HW210292   3.265   1.543  10.318 -0.4064  0.3308 -0.8228
 2951SOL     OW10293   0.738   3.389   6.775  0.7832  0.5000 -0.0263
 2951SOL    HW110294   0.693   3.319   6.821 -0.2715  1.0851 -0.1440
 2951SOL    HW210295   0.755   3.354   6.688  1.8857 -0.2459  0.4694
 2952SOL     OW10296   3.568   2.073   4.080 -0.8652 -0.1265 -0.0168
 2952SOL    HW110297   3.577   2.123   4.161  0.3085 -1.3208  0.6394
 2952SOL    HW210298   3.626   2.117   4.018 -1.7745  0.7988 -0.2215
 2953SOL     OW10299   5.339   2.038   8.806  0.2482  0.3385 -0.0643
 2953SOL    HW110300   5.302   1.952   8.788 -0.0524  0.8203 -1.9583
 2953SOL    HW210301   5.325   2.051   8.900  2.7912 -2.8259  0.9556
 2954SOL     OW10302   3.000   4.646   8.794  0.2503 -0.3079  0.1370
 2954SOL    HW110303   2.995   4.663   8.700  1.4027 -0.1152  0.0904
 2954SOL    HW210304   2.911   4.625   8.820 -0.5338  1.8446 -0.5841
 2955SOL     OW10305   4.176   5.723   2.502  0.2865  0.0294  0.0349
 2955SOL    HW110306   4.267   5.696   2.513  0.1890  0.3345  1.9274
 2955SOL    HW210307   4.172   5.811   2.539 -0.8463 -0.1314  0.3373
 2956SOL     OW10308   7.132   5.982  10.979  0.7228 -0.1120 -0.4332
 2956SOL    HW110309   7.108   6.065  10.938 -0.1117  0.0242  0.2983
 2956SOL    HW210310   7.048   5.936  10.990  1.2882 -1.6837 -2.1128
 2957SOL     OW10311   1.309   4.317  11.818 -0.1092  0.2940 -0.4157
 2957SOL    HW110312   1.297   4.326  11.912  2.8001 -1.2831  0.2337
 2957SOL    HW210313   1.322   4.223  11.805 -1.1126  0.3876 -2.5310
 2958SOL     OW10314   7.010   0.746   7.211  0.5761 -0.0633 -0.2776
 2958SOL    HW110315   7.082   0.694   7.175 -0.2382 -0.6848 -1.0560
 2958SOL    HW210316   6.965   0.688   7.272 -1.1891 -0.8541 -2.1824
 2959SOL     OW10317   5.426   2.719  10.769 -0.0709 -0.4043  0.4088
 2959SOL    HW110318   5.415   2.725  10.864  0.5923  0.2509  0.4563
 2959SOL    HW210319   5.503   2.664  10.758 -0.5313 -1.0179  0.2260
 2960SOL     OW10320   7.005   3.675  11.661 -0.4853 -0.0433 -0.1517
 2960SOL    HW110321   6.965   3.690  11.747 -1.2998  0.4883 -0.6079
 2960SOL    HW210322   6.945   3.717  11.599 -0.2126 -0.9262 -1.0363
 2961SOL     OW10323   6.462   7.606   1.992  0.6624  0.1737 -0.8596
 2961SOL    HW110324   6.505   7.624   1.909  1.8603  4.0146  0.4012
 2961SOL    HW210325   6.529   7.563   2.045 -0.3380 -3.0438 -1.9006
 2962SOL     OW10326   4.260   4.015   4.169 -0.1504 -0.5991 -0.3407
 2962SOL    HW110327   4.244   4.079   4.238 -0.3312 -0.5395 -0.4408
 2962SOL    HW210328   4.212   3.937   4.198  0.3201 -0.7962 -0.0612
 2963SOL     OW10329   7.175   0.052   4.310 -0.2052  0.1181 -0.0470
 2963SOL    HW110330   7.140   0.118   4.371 -1.0137  1.4562 -1.8571
 2963SOL    HW210331   7.270   0.065   4.311 -0.0408 -0.9048  1.9973
 2964SOL     OW10332   5.349   0.096   6.743 -0.4715 -0.4202  0.6726
 2964SOL    HW110333   5.355   0.138   6.829 -1.8380 -1.9128  1.5457
 2964SOL    HW210334   5.335   0.003   6.762 -0.5208 -0.8399 -1.1758
 2965SOL     OW10335   2.653   5.698   8.106  0.4057  0.2523  0.4596
 2965SOL    HW110336   2.581   5.666   8.052 -1.7170  3.0543  1.4477
 2965SOL    HW210337   2.710   5.745   8.044  0.8967 -1.0629 -0.1381
 2966SOL     OW10338   5.298   7.477   6.216  0.1568  0.7030 -0.7581
 2966SOL    HW110339   5.259   7.547   6.267 -0.7078  0.9188 -1.6815
 2966SOL    HW210340   5.229   7.449   6.155  0.5475 -0.7991 -0.5670
 2967SOL     OW10341   2.869   5.811   3.808 -0.6621  0.5648  0.2064
 2967SOL    HW110342   2.868   5.738   3.747 -3.0740  0.4288  0.2995
 2967SOL    HW210343   2.951   5.801   3.857 -0.9870 -2.2036  0.3502
 2968SOL     OW10344   4.235   3.849   2.176  0.2404  0.5511  0.2490
 2968SOL    HW110345   4.240   3.913   2.105  0.5554 -1.2608 -1.4597
 2968SOL    HW210346   4.274   3.770   2.139 -0.1108 -0.6386  2.2790
 2969SOL     OW10347   6.833   1.670   1.556 -0.5043 -0.0765  0.1007
 2969SOL    HW110348   6.741   1.680   1.535 -0.0473  1.1570 -1.4588
 2969SOL    HW210349   6.873   1.753   1.531  1.3050 -1.1713 -0.8496
 2970SOL     OW10350   6.613   1.726  11.284  0.4199 -0.4843  0.3771
 2970SOL    HW110351   6.697   1.770  11.301  0.4303 -0.7499  1.0569
 2970SOL    HW210352   6.547   1.791  11.309  0.4094  0.0080 -0.8976
 2971SOL     OW10353   5.554   4.879   9.480  0.3308  0.1754 -0.0836
 2971SOL    HW110354   5.610   4.885   9.558 -0.6380  1.2989  0.5548
 2971SOL    HW210355   5.500   4.958   9.483 -2.1190 -1.4077 -0.0464
 2972SOL     OW10356   1.776   1.965   8.281  0.2323  0.1848  0.0460
 2972SOL    HW110357   1.704   2.028   8.287  0.3355  0.2575  0.6769
 2972SOL    HW210358   1.760   1.916   8.201  0.2701  1.1624 -0.5665
 2973SOL     OW10359   3.294   2.018   3.922 -0.3586 -0.2472 -0.6680
 2973SOL    HW110360   3.298   1.975   4.007 -0.2135  0.1181 -0.4914
 2973SOL    HW210361   3.303   1.947   3.859  2.1006 -0.2658 -0.3748
 2974SOL     OW10362   2.453   7.555  11.962  0.5485 -0.2306  0.5160
 2974SOL    HW110363   2.370   7.560  12.010  0.6675 -1.1830  0.8306
 2974SOL    HW210364   2.436   7.602  11.880  0.1848  0.9567  1.2498
 2975SOL     OW10365   0.685   4.981   2.915 -0.2756 -0.6588 -0.2669
 2975SOL    HW110366   0.658   5.026   2.995 -0.6847 -0.5364 -0.4671
 2975SOL    HW210367   0.729   5.049   2.863 -0.5995 -0.5684 -0.4272
 2976SOL     OW10368   1.397   0.580   6.019 -0.4954  0.0319  0.0125
 2976SOL    HW110369   1.383   0.662   6.065  0.0651  0.7920 -1.1156
 2976SOL    HW210370   1.340   0.586   5.942 -0.0611 -0.3922 -0.3512
 2977SOL     OW10371   2.759   2.021  10.480  0.2124 -0.2448  0.4003
 2977SOL    HW110372   2.822   2.091  10.497  1.8178 -1.5625  0.1478
 2977SOL    HW210373   2.741   1.983  10.566 -1.3703  0.9845  0.6701
 2978SOL     OW10374   0.192   2.431  10.331  0.0265  0.5187 -0.2390
 2978SOL    HW110375   0.181   2.392  10.417 -1.1963 -1.0804 -1.0448
 2978SOL    HW210376   0.270   2.486  10.338 -0.3472  0.8611  1.9990
 2979SOL     OW10377   7.011   3.983   6.287  0.3561 -0.3722  0.1229
 2979SOL    HW110378   6.948   4.045   6.251 -0.7187 -2.0399 -0.9659
 2979SOL    HW210379   6.997   3.986   6.382 -1.6680 -0.9981 -0.1212
 2980SOL     OW10380   0.162   2.412   9.931 -0.0916  0.5352 -0.0834
 2980SOL    HW110381   0.156   2.354   9.855 -0.9964 -0.3423  0.6471
 2980SOL    HW210382   0.100   2.483   9.912  1.4525  1.6549 -1.2549
 2981SOL     OW10383   5.067   7.242   2.191 -0.6158 -0.7532 -0.5529
 2981SOL    HW110384   5.104   7.302   2.126 -2.1102  2.4958  1.3495
 2981SOL    HW210385   4.977   7.226   2.162 -1.1349  0.3202  0.3799
 2982SOL     OW10386   2.718   2.927   0.304 -0.1318 -0.3743 -0.2884
 2982SOL    HW110387   2.770   2.855   0.268  0.8877 -0.2101  0.7841
 2982SOL    HW210388   2.725   2.997   0.239  2.0124  0.0652  0.3496
 2983SOL     OW10389   2.619   2.776  10.223  0.0412  0.2499  0.3753
 2983SOL    HW110390   2.563   2.846  10.257 -0.9315 -0.3786  0.0735
 2983SOL    HW210391   2.565   2.698  10.223  1.4191 -0.7656  1.6522
 2984SOL     OW10392   1.519   2.426   1.526  0.2964 -0.0225  0.0313
 2984SOL    HW110393   1.434   2.387   1.544 -1.3160  2.5844 -1.3026
 2984SOL    HW210394   1.503   2.487   1.454  3.3170  0.5707 -0.2865
 2985SOL     OW10395   7.330   6.693   7.424 -0.0200 -0.1740  0.4558
 2985SOL    HW110396   7.403   6.660   7.477  1.6294  1.6060 -0.5502
 2985SOL    HW210397   7.337   6.646   7.341  0.1470  0.1519  0.2811
 2986SOL     OW10398   1.053   3.115   6.585 -0.2158  0.8576  0.1617
 2986SOL    HW110399   0.997   3.192   6.583  0.0405  1.0273 -0.7578
 2986SOL    HW210400   1.034   3.069   6.503  1.4045  1.2273 -0.4588
 2987SOL     OW10401   4.163   3.017  10.922 -0.0298 -0.3393  0.2054
 2987SOL    HW110402   4.163   3.095  10.978 -0.1432  0.5514 -1.0045
 2987SOL    HW210403   4.096   3.034  10.856  1.1782 -0.6634 -1.1612
 2988SOL     OW10404   4.872   7.426   5.163 -0.2027  0.1083  0.3128
 2988SOL    HW110405   4.895   7.391   5.077 -1.9761  0.2619 -0.2715
 2988SOL    HW210406   4.928   7.503   5.174  2.2875 -1.6306  0.7181
 2989SOL     OW10407   2.993   1.044   1.773 -0.0970  0.4239 -0.0532
 2989SOL    HW110408   3.007   1.018   1.864  0.8515  0.9199 -0.0420
 2989SOL    HW210409   2.942   0.973   1.735  0.9403 -0.6006  0.4311
 2990SOL     OW10410   5.744   2.078   6.782  0.3033  0.2668  0.2749
 2990SOL    HW110411   5.711   2.129   6.856 -1.5120  0.9425 -0.9156
 2990SOL    HW210412   5.685   2.003   6.775  1.4808 -0.7201  0.5102
 2991SOL     OW10413   2.264   7.777   4.349  0.0451  0.1455 -0.7065
 2991SOL    HW110414   2.272   7.702   4.408  0.9643  0.8554  0.1098
 2991SOL    HW210415   2.170   7.796   4.348  0.0549  0.4902  1.0487
 2992SOL     OW10416   5.349   1.962   9.458 -0.4548  0.0744 -0.2080
 2992SOL    HW110417   5.293   1.936   9.531 -1.4695 -0.5066 -1.1649
 2992SOL    HW210418   5.294   1.953   9.380  1.0295 -0.8150 -1.2255
 2993SOL     OW10419   5.609   3.821   9.461  0.4230 -0.5707 -0.0337
 2993SOL    HW110420   5.549   3.763   9.414 -0.5830  0.7861 -0.4892
 2993SOL    HW210421   5.559   3.852   9.536  0.6638  0.2974 -0.2206
 2994SOL     OW10422   7.573   4.053   3.112 -0.1960 -0.0699  0.2736
 2994SOL    HW110423   7.583   3.957   3.108  0.5184  0.0118 -3.4293
 2994SOL    HW210424   7.479   4.066   3.117 -0.3547 -1.0027  0.0835
 2995SOL     OW10425   4.306   6.091   7.977 -0.2504 -0.2893  0.1543
 2995SOL    HW110426   4.330   6.161   7.917 -0.4829 -0.8767 -0.6348
 2995SOL    HW210427   4.212   6.082   7.967 -0.1138 -1.2693 -0.3820
 2996SOL     OW10428   2.878   4.993   9.176 -0.6099 -0.0992  0.0324
 2996SOL    HW110429   2.972   4.988   9.193  0.3522  2.1439 -3.4781
 2996SOL    HW210430   2.854   5.082   9.200 -1.1636  0.1802 -1.4204
 2997SOL     OW10431   6.142   6.100  12.001  0.0143 -0.3035 -0.3083
 2997SOL    HW110432   6.080   6.153  12.052  0.1326 -0.8400  0.4163
 2997SOL    HW210433   6.140   6.138  11.913 -0.1928  0.6471  0.0983
 2998SOL     OW10434   6.345   4.296  11.779  0.5805 -0.1852 -0.3032
 2998SOL    HW110435   6.379   4.383  11.797  0.0672 -0.4880  2.5194
 2998SOL    HW210436   6.409   4.236  11.819  0.9476 -1.1507 -2.2137
 2999SOL     OW10437   1.596   5.638   6.608 -0.2059  0.5072 -0.5694
 2999SOL    HW110438   1.602   5.672   6.518 -0.5912 -1.4059 -1.3556
 2999SOL    HW210439   1.507   5.658   6.635  0.2263  2.0573 -0.1579
 3000SOL     OW10440   0.228   1.932   3.978 -0.3158  0.2518 -0.2071
 3000SOL    HW110441   0.317   1.948   3.946  0.0435 -1.1200 -0.0036
 3000SOL    HW210442   0.202   2.013   4.020  0.3351  1.1077 -1.4093
 3001SOL     OW10443   2.798   5.762   0.608 -0.0404  0.0537 -0.0914
 3001SOL    HW110444   2.802   5.832   0.543  1.8629  1.0118  0.9743
 3001SOL    HW210445   2.798   5.681   0.556  0.7534  0.7958 -1.2976
 3002SOL     OW10446   5.945   3.559   6.777  0.1344 -0.5346 -0.4761
 3002SOL    HW110447   5.926   3.634   6.834  0.1797 -0.1663 -0.9451
 3002SOL    HW210448   5.894   3.487   6.815  0.2039 -0.3039  0.0599
 3003SOL     OW10449   3.869   5.140   4.392 -0.3985 -0.1244 -0.2975
 3003SOL    HW110450   3.816   5.219   4.380  1.0663  1.1257  1.1589
 3003SOL    HW210451   3.854   5.090   4.311 -0.9166  1.8923 -1.5426
 3004SOL     OW10452   7.651   3.178   4.026  0.0690  0.0168  0.1878
 3004SOL    HW110453   7.650   3.120   3.950 -4.2072 -0.0014  0.0047
 3004SOL    HW210454   7.643   3.266   3.988  1.2576  0.3243  0.6038
 3005SOL     OW10455   3.661   4.890   6.816  0.4335 -0.3732  0.3227
 3005SOL    HW110456   3.575   4.848   6.810  0.2232  0.1811 -0.7608
 3005SOL    HW210457   3.654   4.949   6.891 -0.1083 -0.4019  0.2998
 3006SOL     OW10458   7.191   6.928   3.450  0.2069  0.3968  0.0704
 3006SOL    HW110459   7.174   6.845   3.405  0.5272  0.2189  0.2779
 3006SOL    HW210460   7.281   6.951   3.427 -0.0783  0.9980 -0.4743
 3007SOL     OW10461   5.050   5.337   6.948 -0.3021 -0.3362 -0.2449
 3007SOL    HW110462   4.971   5.355   6.999 -0.0170 -0.0671  0.1042
 3007SOL    HW210463   5.056   5.242   6.945  1.1734 -0.4281  2.5676
 3008SOL     OW10464   1.011   4.935   4.972 -0.2430  0.2856 -0.8681
 3008SOL    HW110465   1.053   4.877   5.036 -0.0603 -0.6755 -1.8294
 3008SOL    HW210466   0.981   5.010   5.024 -0.0860 -0.4537  0.3381
 3009SOL     OW10467   5.513   5.828   9.160 -0.1361 -0.6006  0.1260
 3009SOL    HW110468   5.563   5.865   9.088 -0.3069 -0.2662  0.1795
 3009SOL    HW210469   5.541   5.878   9.237  1.5335 -2.2551  0.6629
 3010SOL     OW10470   7.660   7.160  10.192 -0.2286 -0.0064 -0.2968
 3010SOL    HW110471   7.717   7.216  10.139  1.1112 -0.3466  0.7308
 3010SOL    HW210472   7.617   7.219  10.253 -1.3132  0.3066 -1.3419
 3011SOL     OW10473   1.708   1.333   3.410 -0.0198 -0.6244 -0.0891
 3011SOL    HW110474   1.635   1.347   3.351 -0.5335  0.9121  0.8668
 3011SOL    HW210475   1.740   1.420   3.431  0.4507 -1.1452  1.5181
 3012SOL     OW10476   3.849   6.807   9.465 -0.2690  0.1690  0.2483
 3012SOL    HW110477   3.891   6.755   9.396  0.5547  0.5865  0.4237
 3012SOL    HW210478   3.900   6.788   9.543 -0.6309  0.4174  0.5481
 3013SOL     OW10479   4.958   4.283   5.831 -0.2404 -0.8198  0.4598
 3013SOL    HW110480   4.864   4.293   5.822 -0.3294 -0.4430  1.6243
 3013SOL    HW210481   4.976   4.305   5.922  0.9202 -1.3139  0.3718
 3014SOL     OW10482   3.365   2.757   3.777  0.4238 -0.3400 -0.6639
 3014SOL    HW110483   3.367   2.844   3.736 -0.1092  0.4262  0.8728
 3014SOL    HW210484   3.436   2.709   3.733 -0.4211  0.2433 -2.8204
 3015SOL     OW10485   5.667   7.683   3.369 -0.4721  0.0679  0.4155
 3015SOL    HW110486   5.660   7.756   3.430 -0.9177 -0.7813  1.4119
 3015SOL    HW210487   5.596   7.697   3.306 -1.4843 -0.2500  1.4429
 3016SOL     OW10488   0.857   3.443   4.975  0.0815 -0.3647  0.2526
 3016SOL    HW110489   0.934   3.480   4.931  0.8857 -1.0704  1.0413
 3016SOL    HW210490   0.798   3.518   4.986  0.7434  0.2352 -0.1535
 3017SOL     OW10491   5.778   4.029  10.249 -0.4119  0.3044 -0.6668
 3017SOL    HW110492   5.748   4.050  10.337 -2.4610  0.0422 -1.2411
 3017SOL    HW210493   5.698   4.026  10.197  0.7667  0.6701 -2.5981
 3018SOL     OW10494   1.016   5.513   2.354  0.0507  0.4101  0.7204
 3018SOL    HW110495   1.101   5.471   2.364  0.0577  0.6111  1.5764
 3018SOL    HW210496   0.986   5.527   2.444 -1.7323 -1.3507  0.4803
 3019SOL     OW10497   1.239   4.032   1.402 -0.2638  0.0056  0.0443
 3019SOL    HW110498   1.170   4.021   1.468 -0.0198  0.0221  0.3037
 3019SOL    HW210499   1.289   3.950   1.405  0.7800  0.6527  1.0815
 3020SOL     OW10500   6.033   7.711   7.243 -0.1690  0.1351  0.4445
 3020SOL    HW110501   6.070   7.667   7.166  0.5659  1.1443  0.2016
 3020SOL    HW210502   5.941   7.726   7.220  0.0436  0.4387 -0.2432
 3021SOL     OW10503   3.935   7.448  10.376 -0.3186 -0.5759  0.2180
 3021SOL    HW110504   3.874   7.375  10.376 -0.5511 -0.3877 -0.0569
 3021SOL    HW210505   4.002   7.423  10.313 -1.4576  0.2848 -1.4396
 3022SOL     OW10506   1.357   1.940   2.600  0.4489  0.2754 -0.4345
 3022SOL    HW110507   1.365   1.873   2.532 -0.1004 -1.2785  0.9739
 3022SOL    HW210508   1.269   1.976   2.587 -1.2329 -2.7062  1.7115
 3023SOL     OW10509   1.652   3.330   1.221 -0.1674  0.3389  0.0883
 3023SOL    HW110510   1.645   3.272   1.296  1.4689  0.8958  0.7159
 3023SOL    HW210511   1.616   3.279   1.148 -0.0013 -0.9450  0.8756
 3024SOL     OW10512   4.661   7.777  11.672  0.1166 -0.5952  0.0223
 3024SOL    HW110513   4.640   7.772  11.579 -0.0527  2.6333 -0.2159
 3024SOL    HW210514   4.582   7.746  11.717  0.0789 -1.8579 -0.8665
 3025SOL     OW10515   3.560   5.199   6.154  0.2022  0.3727  0.1578
 3025SOL    HW110516   3.527   5.117   6.116 -0.8648  2.3803 -3.7200
 3025SOL    HW210517   3.555   5.262   6.083  2.3161  3.5451  2.5661
 3026SOL     OW10518   1.053   3.757  12.458  0.6288 -0.7781 -0.4370
 3026SOL    HW110519   0.993   3.790  12.525  0.6819 -0.3707 -0.5892
 3026SOL    HW210520   1.010   3.678  12.425  0.7561 -1.1687  0.3003
 3027SOL     OW10521   0.437   0.931   4.788  0.0391  0.2519  0.2512
 3027SOL    HW110522   0.511   0.990   4.774  2.1410 -2.3670 -0.4375
 3027SOL    HW210523   0.477   0.845   4.802 -2.9010 -1.4754 -1.0943
 3028SOL     OW10524   3.478   1.375   0.060  0.4793  0.3309 -0.0500
 3028SOL    HW110525   3.452   1.384  -0.032  1.0812  0.2547 -0.2301
 3028SOL    HW210526   3.516   1.288   0.066  1.1643  0.6368  0.0912
 3029SOL     OW10527   0.295   4.486   9.161  0.0733 -0.1847  0.3577
 3029SOL    HW110528   0.320   4.473   9.252 -1.2712 -1.7736  0.5480
 3029SOL    HW210529   0.220   4.546   9.164 -1.0446 -1.5382  0.4846
 3030SOL     OW10530   0.496   3.393   4.599  0.3216 -0.0455 -0.0574
 3030SOL    HW110531   0.520   3.311   4.556 -0.7065 -0.1805 -0.3999
 3030SOL    HW210532   0.513   3.461   4.533 -2.3504 -0.3560 -1.1925
 3031SOL     OW10533   5.252   3.542   3.332 -0.0942 -0.1454 -0.6835
 3031SOL    HW110534   5.283   3.517   3.419 -1.3537  0.3295 -0.0763
 3031SOL    HW210535   5.331   3.558   3.281  0.6568 -0.7023  0.2979
 3032SOL     OW10536   7.268   3.421   6.866  0.8300  0.1206 -0.0747
 3032SOL    HW110537   7.265   3.329   6.841 -1.0431  0.4726 -1.3918
 3032SOL    HW210538   7.352   3.432   6.909  1.2168 -2.1306 -0.1610
 3033SOL     OW10539   3.344   6.420   0.041 -0.4260 -0.8209  0.1341
 3033SOL    HW110540   3.274   6.481   0.067 -0.5250 -0.7891 -0.2019
 3033SOL    HW210541   3.388   6.398   0.123 -0.9134 -0.9440  0.3654
 3034SOL     OW10542   6.666   2.244   9.041 -0.3971 -0.3673  0.2054
 3034SOL    HW110543   6.590   2.302   9.032 -0.3108 -0.1941  0.5740
 3034SOL    HW210544   6.741   2.300   9.024 -0.3363 -0.4633  0.1617
 3035SOL     OW10545   6.325   1.593   4.873 -0.1197 -0.5367 -0.0218
 3035SOL    HW110546   6.376   1.628   4.946 -0.5456  2.2692 -0.9798
 3035SOL    HW210547   6.234   1.613   4.894 -0.3528 -0.7439 -0.7886
 3036SOL     OW10548   7.918   4.629   1.948  0.5115  0.2251 -0.5886
 3036SOL    HW110549   7.950   4.671   2.028 -1.3236 -0.4121  0.5528
 3036SOL    HW210550   7.963   4.544   1.945  1.4394  0.7106 -0.8892
 3037SOL     OW10551   5.866   1.732  11.214  0.0940  0.7744  0.2987
 3037SOL    HW110552   5.953   1.759  11.187  0.1315  1.4749  1.0981
 3037SOL    HW210553   5.824   1.703  11.133  1.7306 -1.5524  0.1690
 3038SOL     OW10554   2.145   0.683   5.043 -0.1809  0.4317 -0.2509
 3038SOL    HW110555   2.144   0.599   4.999 -0.4728 -1.1372  2.5136
 3038SOL    HW210556   2.064   0.684   5.095  0.5674  1.6908  0.9853
 3039SOL     OW10557   3.712   0.335   4.067 -0.1958  0.0947 -0.1240
 3039SOL    HW110558   3.647   0.389   4.111 -0.6268  0.1355 -0.7911
 3039SOL    HW210559   3.693   0.246   4.097 -0.8014  0.0597 -0.5953
 3040SOL     OW10560   2.415   3.510  11.481  0.0127  0.2650  0.1037
 3040SOL    HW110561   2.500   3.484  11.517 -0.0183 -0.5038 -0.3509
 3040SOL    HW210562   2.437   3.550  11.396 -0.1413 -0.8599 -0.4809
 3041SOL     OW10563   3.998   1.341   2.580 -0.0714 -0.7140  0.1305
 3041SOL    HW110564   3.924   1.368   2.635  0.9684 -0.5295  1.5060
 3041SOL    HW210565   4.073   1.390   2.615  0.9493 -1.8233 -0.4207
 3042SOL     OW10566   7.891   2.929   4.819  0.3515  0.3406 -0.0790
 3042SOL    HW110567   7.898   2.864   4.889 -0.0161  0.5068  0.1139
 3042SOL    HW210568   7.813   2.903   4.770 -0.1784  1.0141  0.3923
 3043SOL     OW10569   5.193   1.193   7.559 -0.1585  0.1965 -0.1778
 3043SOL    HW110570   5.104   1.179   7.592 -0.2064 -1.3857 -0.8824
 3043SOL    HW210571   5.191   1.281   7.521 -1.4703  0.1187 -0.3238
 3044SOL     OW10572   2.260   2.572   5.784  0.4829 -0.6575  0.2576
 3044SOL    HW110573   2.190   2.630   5.814  1.2598  1.4824 -1.7812
 3044SOL    HW210574   2.216   2.509   5.726  0.2350  1.0170 -1.4604
 3045SOL     OW10575   5.343   5.543   8.270 -0.3587 -0.1177 -0.4064
 3045SOL    HW110576   5.253   5.573   8.263  0.2234  1.9124  0.1146
 3045SOL    HW210577   5.373   5.574   8.355  0.2555 -2.5632  0.3715
 3046SOL     OW10578   0.156   1.431  11.464  0.1477  0.5121 -0.2018
 3046SOL    HW110579   0.208   1.511  11.460  1.3483 -0.2872 -1.4633
 3046SOL    HW210580   0.213   1.363  11.429 -1.1467 -0.7537  0.0283
 3047SOL     OW10581   7.502   1.202   6.434  0.4422  0.0352 -0.0366
 3047SOL    HW110582   7.585   1.241   6.406 -0.3211  1.5327 -0.3648
 3047SOL    HW210583   7.474   1.149   6.359  0.4305  0.6853 -0.5105
 3048SOL     OW10584   7.827   6.384   5.259  0.0642  0.1533 -0.3176
 3048SOL    HW110585   7.895   6.320   5.241  0.7167  0.9567 -0.7658
 3048SOL    HW210586   7.793   6.359   5.345 -1.8006 -2.6100 -1.7108
 3049SOL     OW10587   2.537   4.781   8.590  0.2920  0.6414 -0.1716
 3049SOL    HW110588   2.502   4.868   8.569  1.1770  1.4243  1.4420
 3049SOL    HW210589   2.591   4.758   8.515  0.7066  1.8625 -0.2679
 3050SOL     OW10590   7.041   7.285   8.097 -0.3468 -0.0408 -0.4925
 3050SOL    HW110591   7.024   7.373   8.062  0.5019 -0.0883 -1.0813
 3050SOL    HW210592   7.134   7.270   8.077  0.4169  0.2029  2.4567
 3051SOL     OW10593   4.980   3.755  11.894  0.0351 -0.4869 -0.0734
 3051SOL    HW110594   4.892   3.779  11.923  0.2165 -0.0304  0.1010
 3051SOL    HW210595   5.038   3.783  11.965  0.2836 -1.1833  0.0103
 3052SOL     OW10596   3.190   7.440  10.199 -0.7317 -0.2126  0.3250
 3052SOL    HW110597   3.182   7.370  10.263 -1.6869  2.1774  3.0497
 3052SOL    HW210598   3.271   7.485  10.223 -1.5846  1.2795  0.5749
 3053SOL     OW10599   5.931   6.142   0.390  0.2499 -0.1245  0.1755
 3053SOL    HW110600   5.888   6.057   0.390  0.7061 -0.3539 -0.0645
 3053SOL    HW210601   5.859   6.205   0.403 -0.0616 -0.5514  0.5552
 3054SOL     OW10602   1.802   0.296   3.250 -0.1800 -0.0292  0.0418
 3054SOL    HW110603   1.766   0.233   3.313 -0.6420 -0.3982 -0.5740
 3054SOL    HW210604   1.848   0.242   3.185 -1.6576  0.1314 -1.1961
 3055SOL     OW10605   0.690   5.597  12.003  0.3665 -0.0211 -0.0535
 3055SOL    HW110606   0.781   5.624  11.988  1.0735 -1.6690  0.9475
 3055SOL    HW210607   0.671   5.628  12.092  0.5414 -1.0699  0.3688
 3056SOL     OW10608   0.777   2.404   5.420  0.0266  0.0629 -0.3455
 3056SOL    HW110609   0.802   2.387   5.330  2.9165 -0.2150  0.4265
 3056SOL    HW210610   0.780   2.318   5.463  0.8060  0.4897  0.4839
 3057SOL     OW10611   7.377   1.470   3.584  0.2636 -0.3749 -0.2728
 3057SOL    HW110612   7.343   1.509   3.503  0.6067  0.3113 -0.0919
 3057SOL    HW210613   7.463   1.436   3.560 -0.3386 -1.7159 -0.6188
 3058SOL     OW10614   6.949   5.138  12.145 -0.7179 -0.1501  0.0279
 3058SOL    HW110615   6.956   5.103  12.056 -0.3384 -2.8810  1.0296
 3058SOL    HW210616   7.040   5.147  12.173 -0.8441  0.0127  0.3746
 3059SOL     OW10617   7.231   3.634   9.716  0.0172  0.1042  0.3771
 3059SOL    HW110618   7.204   3.644   9.808  0.7898 -0.3908  0.6770
 3059SOL    HW210619   7.183   3.557   9.686 -0.4868  0.4610  0.2645
 3060SOL     OW10620   0.734   1.584   7.721 -0.2006 -0.3942  0.3759
 3060SOL    HW110621   0.770   1.511   7.671 -0.6431 -0.1388 -0.3325
 3060SOL    HW210622   0.640   1.569   7.722 -0.3058  0.2234  0.1217
 3061SOL     OW10623   2.089   6.216   3.996 -0.0412  0.0736 -0.4804
 3061SOL    HW110624   2.014   6.276   3.992  0.3708  0.6745  0.5625
 3061SOL    HW210625   2.125   6.217   3.907  0.0426  1.5014 -0.4587
 3062SOL     OW10626   5.502   3.909   6.458 -0.4554 -0.4726  0.4921
 3062SOL    HW110627   5.456   3.851   6.397  0.2385 -0.0714 -0.4338
 3062SOL    HW210628   5.502   3.994   6.415 -0.2681 -0.1005  1.2227
 3063SOL     OW10629   3.095   3.261   3.907  0.4890  0.2268 -0.3835
 3063SOL    HW110630   3.190   3.273   3.898  0.4727 -0.3174 -1.4779
 3063SOL    HW210631   3.061   3.279   3.819 -0.6404  2.1801  0.3877
 3064SOL     OW10632   5.108   4.044  11.044  0.6207  0.6800 -0.1061
 3064SOL    HW110633   5.121   3.958  11.004  0.2252  0.0308  1.1087
 3064SOL    HW210634   5.153   4.038  11.129  1.8676  2.1854 -0.6247
 3065SOL     OW10635   2.116   0.017  10.104  0.3104  0.0703 -0.1447
 3065SOL    HW110636   2.086   0.097  10.147  0.6159  0.8782 -1.3810
 3065SOL    HW210637   2.053   0.002  10.033  1.0899  0.0736 -0.8556
 3066SOL     OW10638   2.979   5.947   5.040  0.0292 -0.2983  0.2355
 3066SOL    HW110639   2.912   5.923   5.103  1.2878  2.6511  2.9557
 3066SOL    HW210640   3.035   5.870   5.032 -1.4355 -1.4602  0.9800
 3067SOL     OW10641   0.298   6.497  12.384 -0.6335  0.3540  0.2980
 3067SOL    HW110642   0.376   6.552  12.390 -1.1866  1.2433 -0.3516
 3067SOL    HW210643   0.319   6.420  12.435  1.6029 -0.5327 -1.7703
 3068SOL     OW10644   2.884   4.637   2.044 -0.5019  0.0756 -0.1463
 3068SOL    HW110645   2.959   4.691   2.020 -2.1858  2.4528 -0.3892
 3068SOL    HW210646   2.831   4.693   2.101 -2.8116 -0.9688 -1.1442
 3069SOL     OW10647   5.211   0.906  10.330  0.2855 -0.4549 -0.0835
 3069SOL    HW110648   5.194   0.935  10.420  0.6849 -2.8646  0.8711
 3069SOL    HW210649   5.296   0.944  10.308 -0.7224  1.8300 -0.2847
 3070SOL     OW10650   0.271   0.104  12.447 -0.0879  0.1181 -0.2157
 3070SOL    HW110651   0.282   0.043  12.520 -0.0439  0.8230  0.3725
 3070SOL    HW210652   0.359   0.136  12.428 -0.1628  0.2965 -0.2664
 3071SOL     OW10653   4.912   7.734   4.163 -0.3817 -0.1944 -0.1050
 3071SOL    HW110654   4.907   7.672   4.236  1.6559 -0.3008  0.0011
 3071SOL    HW210655   4.904   7.820   4.204 -0.4634 -0.2981  0.0961
 3072SOL     OW10656   7.031   1.338  12.381 -0.6844 -0.7149 -0.1633
 3072SOL    HW110657   7.044   1.250  12.348  1.1650 -0.4779 -0.1726
 3072SOL    HW210658   7.003   1.389  12.304 -0.5829 -1.0460 -0.4185
 3073SOL     OW10659   5.938   1.048   5.556 -0.2457  0.2096 -0.2062
 3073SOL    HW110660   5.860   1.072   5.606 -0.1365 -0.3040  0.2151
 3073SOL    HW210661   5.998   1.013   5.621  0.5050  0.9818 -0.4610
 3074SOL     OW10662   5.420   4.902   5.208 -0.5992 -0.2152 -0.0382
 3074SOL    HW110663   5.335   4.859   5.207 -0.8028  0.1551 -2.0333
 3074SOL    HW210664   5.405   4.986   5.166  0.5080  0.3938  0.7321
 3075SOL     OW10665   2.812   5.143   7.845 -0.5531 -0.6583 -0.2927
 3075SOL    HW110666   2.906   5.158   7.834 -0.1423 -2.4959  0.3423
 3075SOL    HW210667   2.775   5.230   7.857  1.3183  0.0102  1.1517
 3076SOL     OW10668   0.603   2.180   0.862 -0.0965  0.3410 -0.6037
 3076SOL    HW110669   0.618   2.101   0.914 -0.5171 -0.6135 -1.8764
 3076SOL    HW210670   0.673   2.180   0.797  0.4154  1.5129 -0.0836
 3077SOL     OW10671   2.868   2.017   6.998  0.0121 -0.1150  0.5467
 3077SOL    HW110672   2.869   2.106   7.031 -0.9942  0.1309 -0.0514
 3077SOL    HW210673   2.958   1.986   7.011  0.4013  1.0102  0.6686
 3078SOL     OW10674   3.713   7.179   4.202 -0.0593  0.0749  0.1974
 3078SOL    HW110675   3.684   7.088   4.194  2.6298 -1.4468  4.3240
 3078SOL    HW210676   3.809   7.173   4.203  0.1894  2.9260  0.9479
 3079SOL     OW10677   3.072   4.920   4.255 -0.0531 -0.0695  0.6246
 3079SOL    HW110678   3.065   4.884   4.167  0.5518 -0.8109  0.8700
 3079SOL    HW210679   3.139   4.989   4.247 -1.4943  1.3195  0.0705
 3080SOL     OW10680   0.662   1.344  12.432  0.9092  0.2184 -0.2086
 3080SOL    HW110681   0.617   1.267  12.396  0.1507  0.7347 -0.4041
 3080SOL    HW210682   0.725   1.308  12.495  1.7575 -0.6700 -1.5058
 3081SOL     OW10683   2.764   3.517   0.821  0.1977 -0.3732  0.4266
 3081SOL    HW110684   2.685   3.466   0.803  0.0222 -0.5489  1.6269
 3081SOL    HW210685   2.834   3.470   0.776 -0.2124 -0.8217  0.2488
 3082SOL     OW10686   1.856   2.044   1.128  0.3679  0.5878  0.0292
 3082SOL    HW110687   1.910   2.066   1.204  0.0151  1.0386  0.1551
 3082SOL    HW210688   1.887   2.103   1.059  1.0749 -0.2133 -0.3476
 3083SOL     OW10689   4.567   0.730   3.095  0.0230  0.0818 -0.0170
 3083SOL    HW110690   4.528   0.806   3.138  1.4603 -0.0543  1.6655
 3083SOL    HW210691   4.527   0.655   3.139 -0.6193 -0.1208 -0.9415
 3084SOL     OW10692   7.531   3.721   7.790 -0.0117  0.0826 -0.5036
 3084SOL    HW110693   7.460   3.762   7.838  1.0817 -0.1171  1.3621
 3084SOL    HW210694   7.602   3.785   7.793  0.2859 -0.1853 -1.3846
 3085SOL     OW10695   7.718   7.764   4.505 -0.0828  0.3320  0.2389
 3085SOL    HW110696   7.764   7.683   4.527 -0.0582  0.2285 -0.1779
 3085SOL    HW210697   7.755   7.790   4.421  2.1508  2.4765  1.7655
 3086SOL     OW10698   4.586   5.141   0.064 -0.6052  0.2735 -0.1401
 3086SOL    HW110699   4.505   5.110   0.104  0.7188 -2.7994  0.4343
 3086SOL    HW210700   4.642   5.165   0.139 -0.2293  0.3159 -0.4305
 3087SOL     OW10701   2.000   1.200   7.600 -0.1889  0.1671  0.4847
 3087SOL    HW110702   1.985   1.114   7.561 -1.1526  1.0061 -1.0896
 3087SOL    HW210703   1.992   1.261   7.528 -0.7852  1.6976  1.7864
 3088SOL     OW10704   1.155   3.313   9.536  0.2715  0.1622 -0.4773
 3088SOL    HW110705   1.115   3.242   9.586 -1.1073  0.1079 -1.5701
 3088SOL    HW210706   1.088   3.382   9.536  0.7313  0.6226 -1.2038
 3089SOL     OW10707   7.967   2.083  11.078 -0.5773  0.1722 -0.5219
 3089SOL    HW110708   7.965   2.090  11.173 -1.1062 -0.4024 -0.4800
 3089SOL    HW210709   7.923   1.999  11.059 -1.6856  0.9015 -1.3253
 3090SOL     OW10710   1.473   6.087  12.136  0.1256  0.2812  0.0570
 3090SOL    HW110711   1.425   6.031  12.074 -0.2614  1.1398 -0.4446
 3090SOL    HW210712   1.565   6.064  12.123 -0.0437 -0.3912  0.0202
 3091SOL     OW10713   4.845   3.276   8.794  0.0781  0.1032  0.0526
 3091SOL    HW110714   4.891   3.330   8.729 -0.5647  0.2763 -0.2760
 3091SOL    HW210715   4.773   3.332   8.824 -1.4621 -1.0098 -1.3187
 3092SOL     OW10716   0.630   4.784   1.553  0.1363  0.7547 -0.5019
 3092SOL    HW110717   0.713   4.832   1.559  0.6730  0.0867 -1.9669
 3092SOL    HW210718   0.656   4.692   1.563 -0.6824  0.6419  0.7769
 3093SOL     OW10719   0.802   3.701  10.119 -0.3768  0.2361 -0.2998
 3093SOL    HW110720   0.806   3.781  10.172 -1.9874 -1.3060  2.3914
 3093SOL    HW210721   0.894   3.679  10.102  0.1633  1.4926  0.7895
 3094SOL     OW10722   6.086   3.900   3.629  0.4556  0.4583  0.2798
 3094SOL    HW110723   6.140   3.907   3.550  0.2291 -0.6954  0.0115
 3094SOL    HW210724   6.125   3.828   3.678 -0.0492  0.4794  0.7140
 3095SOL     OW10725   1.707   1.392   8.539  0.4513  0.5304  0.0511
 3095SOL    HW110726   1.779   1.440   8.498  1.5414 -0.2298  1.0074
 3095SOL    HW210727   1.635   1.455   8.542  0.8563  1.1312 -1.4599
 3096SOL     OW10728   1.225   0.988   1.953 -0.1184  0.3924 -0.5772
 3096SOL    HW110729   1.292   0.919   1.961  0.9403  1.3435 -0.8889
 3096SOL    HW210730   1.149   0.953   1.999  0.1672 -1.2413 -1.2593
 3097SOL     OW10731   7.634   6.999  10.521 -0.0799 -0.2380 -0.2087
 3097SOL    HW110732   7.700   7.030  10.583 -0.6030 -1.1333  0.8317
 3097SOL    HW210733   7.680   6.993  10.437  1.0533 -0.4759  0.4081
 3098SOL     OW10734   5.675   1.250   0.772  0.9755 -0.1598 -0.5942
 3098SOL    HW110735   5.731   1.321   0.741 -0.6176  0.1770 -3.0793
 3098SOL    HW210736   5.625   1.288   0.844  1.8993  0.4128 -0.2380
 3099SOL     OW10737   7.357   1.409   7.969 -0.1216 -0.0921 -0.0604
 3099SOL    HW110738   7.319   1.382   7.885 -0.2767  0.3903 -0.1514
 3099SOL    HW210739   7.424   1.473   7.945 -0.6573  0.5934  0.2094
 3100SOL     OW10740   1.047   1.612  11.122 -0.6760  0.1563  0.2334
 3100SOL    HW110741   0.989   1.598  11.047  0.3343 -1.8643 -0.2405
 3100SOL    HW210742   0.988   1.635  11.194 -2.1746 -2.2477 -0.1198
 3101SOL     OW10743   7.301   7.621   3.680 -0.0481  0.1107  0.1902
 3101SOL    HW110744   7.341   7.707   3.694 -0.4588  0.0230  2.2480
 3101SOL    HW210745   7.242   7.610   3.755 -2.8701 -0.3790 -1.9148
 3102SOL     OW10746   3.557   1.655   9.410 -0.8015 -0.1135 -0.1254
 3102SOL    HW110747   3.537   1.621   9.498 -2.3917  0.6130 -0.1745
 3102SOL    HW210748   3.587   1.579   9.361 -1.2840 -0.8134  0.6404
 3103SOL     OW10749   1.259   2.571  11.917 -0.1235 -0.1207  0.3525
 3103SOL    HW110750   1.204   2.594  11.842 -2.0581  0.2223  1.7728
 3103SOL    HW210751   1.261   2.476  11.918  0.6656 -0.1335 -0.6031
 3104SOL     OW10752   4.128   3.172   4.766  0.7206 -0.3428 -0.0829
 3104SOL    HW110753   4.193   3.121   4.718 -0.0845  0.9752 -2.8108
 3104SOL    HW210754   4.045   3.152   4.722  0.2833  2.6896 -0.8690
 3105SOL     OW10755   7.935   6.829   1.673 -0.3193  0.0386 -0.2559
 3105SOL    HW110756   7.987   6.748   1.678  0.8279  0.8034  1.3150
 3105SOL    HW210757   7.923   6.844   1.579 -0.3312 -1.8055 -0.5830
 3106SOL     OW10758   4.337   2.792   0.086 -0.2807  0.1088 -0.4747
 3106SOL    HW110759   4.352   2.886   0.093  0.7392 -0.0098 -0.9049
 3106SOL    HW210760   4.388   2.753   0.157  0.7346 -0.2329 -1.3583
 3107SOL     OW10761   1.163   4.250   8.256  0.2847  0.5751 -0.3102
 3107SOL    HW110762   1.168   4.204   8.340  0.2723 -0.2065 -0.7274
 3107SOL    HW210763   1.134   4.183   8.194  0.7958  1.0141 -1.0370
 3108SOL     OW10764   4.091   5.858  11.541  0.2007  0.5669 -0.2342
 3108SOL    HW110765   4.059   5.796  11.607  0.8911  1.0215  0.5462
 3108SOL    HW210766   4.142   5.804  11.481 -1.1585 -0.0036 -0.9414
 3109SOL     OW10767   1.915   7.959   9.918  0.5401 -0.2348  0.1955
 3109SOL    HW110768   1.865   8.025   9.870 -0.6808 -1.1631  0.1518
 3109SOL    HW210769   1.975   7.923   9.853  1.5111  1.0757  0.3132
 3110SOL     OW10770   5.459   4.776   6.811  0.1956 -0.2391 -0.6582
 3110SOL    HW110771   5.461   4.831   6.889 -0.8852  1.4301 -1.7417
 3110SOL    HW210772   5.506   4.827   6.745 -0.5349 -0.7580 -1.6118
 3111SOL     OW10773   1.298   7.149   8.649 -0.5736 -0.2659 -0.0990
 3111SOL    HW110774   1.380   7.167   8.694 -0.8284  0.7075  0.0042
 3111SOL    HW210775   1.316   7.169   8.557 -0.4339 -0.9675 -0.2307
 3112SOL     OW10776   1.124   4.476   9.235 -0.6002  0.0712 -0.9147
 3112SOL    HW110777   1.043   4.522   9.254 -0.6406 -0.2996 -0.1574
 3112SOL    HW210778   1.175   4.483   9.316  0.7329  1.5304 -1.8102
 3113SOL     OW10779   2.041   7.941   4.872 -0.3624 -0.5602 -0.2784
 3113SOL    HW110780   2.122   7.893   4.887 -0.1040 -0.6011 -1.6429
 3113SOL    HW210781   1.980   7.875   4.839 -0.0255 -0.0071 -2.1101
 3114SOL     OW10782   6.818   3.112  10.341 -0.2217 -0.4634  0.2051
 3114SOL    HW110783   6.910   3.136  10.347 -1.0997  3.2739  1.5926
 3114SOL    HW210784   6.800   3.107  10.247  1.0862  0.3425 -0.1142
 3115SOL     OW10785   5.545   6.954   8.858  0.0679  0.3849  0.2340
 3115SOL    HW110786   5.575   6.930   8.770  1.1247 -0.7854  0.8720
 3115SOL    HW210787   5.496   6.877   8.888 -2.8475  1.8697 -0.3762
 3116SOL     OW10788   4.306   6.751   3.612  0.4071 -0.0784  0.0359
 3116SOL    HW110789   4.371   6.702   3.562 -0.3981 -2.1787  0.9413
 3116SOL    HW210790   4.236   6.688   3.628 -0.4078  1.2082  1.7982
 3117SOL     OW10791   2.459   3.282   1.777  0.1717  0.1336 -0.1164
 3117SOL    HW110792   2.464   3.313   1.687 -0.5215 -1.8929 -0.8952
 3117SOL    HW210793   2.456   3.187   1.770 -3.8924 -0.1171  1.7460
 3118SOL     OW10794   7.947   5.846   9.075  0.0995 -0.0719  0.2173
 3118SOL    HW110795   7.881   5.915   9.070  1.0706  1.0309  1.7660
 3118SOL    HW210796   7.958   5.817   8.985 -1.1855  0.9752 -0.3090
 3119SOL     OW10797   5.094   7.927   9.135 -0.5049  0.0575  0.2952
 3119SOL    HW110798   5.029   7.937   9.065  1.3524  2.8059 -1.2087
 3119SOL    HW210799   5.096   7.833   9.152 -0.9592 -0.8170 -3.4723
 3120SOL     OW10800   1.392   7.223   1.077  0.0105 -0.2201 -0.1480
 3120SOL    HW110801   1.458   7.186   1.135 -0.0675 -1.5177 -0.8522
 3120SOL    HW210802   1.319   7.161   1.080 -0.6863  0.5622 -0.3415
 3121SOL     OW10803   7.191   6.543   0.270  0.0036  0.3292 -0.1894
 3121SOL    HW110804   7.151   6.626   0.295 -0.7804  0.0308 -0.4223
 3121SOL    HW210805   7.177   6.537   0.176 -1.7177 -0.9700  0.1097
 3122SOL     OW10806   6.029   6.300   5.952 -0.0938 -0.3591 -0.1779
 3122SOL    HW110807   6.019   6.228   5.889 -0.3782 -0.9656  0.5532
 3122SOL    HW210808   5.941   6.316   5.985 -0.2774  1.2746 -1.3432
 3123SOL     OW10809   2.194   4.116   5.628  0.4256  0.4960  0.5966
 3123SOL    HW110810   2.256   4.183   5.657  1.9099 -0.5754  0.0429
 3123SOL    HW210811   2.242   4.033   5.634 -0.3322 -0.1903 -1.5001
 3124SOL     OW10812   1.024   2.565  11.444  0.0052 -0.5514  0.5116
 3124SOL    HW110813   0.942   2.610  11.424  0.4992  0.0391 -0.2492
 3124SOL    HW210814   1.041   2.513  11.366  0.4523 -0.5159  0.5872
 3125SOL     OW10815   6.763   6.521   1.404 -0.1185  0.2499 -0.0419
 3125SOL    HW110816   6.818   6.495   1.478  1.8933  0.0431 -1.5318
 3125SOL    HW210817   6.810   6.489   1.327 -2.1686  0.4154 -1.4292
 3126SOL     OW10818   5.998   3.150   5.226  0.6549  0.0485  0.4279
 3126SOL    HW110819   6.019   3.143   5.133  4.5563 -1.1433  1.1898
 3126SOL    HW210820   6.054   3.221   5.258  1.2263 -1.1305  2.2192
 3127SOL     OW10821   0.904   2.206   0.961 -0.1150 -0.1200  0.1509
 3127SOL    HW110822   0.845   2.212   1.036 -2.7973 -2.0747 -1.6630
 3127SOL    HW210823   0.958   2.129   0.978 -0.5178 -0.3906  0.1931
 3128SOL     OW10824   5.095   7.981   5.079  0.3947 -0.1133 -0.6350
 3128SOL    HW110825   5.098   7.893   5.043 -0.5652 -0.0248 -0.9504
 3128SOL    HW210826   5.085   7.968   5.174 -5.5903 -0.5514 -0.9438
 3129SOL     OW10827   5.044   2.641   0.548  0.3922 -0.7677 -0.2444
 3129SOL    HW110828   5.107   2.570   0.554  1.3282  0.1560  2.4083
 3129SOL    HW210829   4.980   2.622   0.616  0.3041  0.5574  0.0675
 3130SOL     OW10830   6.536   5.870   0.401 -0.4929 -0.9203  0.0097
 3130SOL    HW110831   6.563   5.924   0.326  0.8377  0.2474  1.2619
 3130SOL    HW210832   6.503   5.933   0.465 -0.4215 -1.7557  0.8886
 3131SOL     OW10833   5.604   4.150   1.887  0.4967  0.0067  0.4868
 3131SOL    HW110834   5.549   4.228   1.886 -1.7148 -1.4701  0.3571
 3131SOL    HW210835   5.557   4.086   1.833  2.4538 -1.2861  0.2090
 3132SOL     OW10836   6.494   4.871  11.094  0.3556 -0.8712 -0.0516
 3132SOL    HW110837   6.548   4.943  11.062  1.1414 -1.6407 -0.4982
 3132SOL    HW210838   6.411   4.881  11.049  0.9816 -1.1330 -1.3108
 3133SOL     OW10839   1.090   3.273   2.490 -0.5051  0.8147  0.1530
 3133SOL    HW110840   1.082   3.198   2.549  0.5329  1.3960  1.0746
 3133SOL    HW210841   1.032   3.340   2.527 -0.6999  0.8017 -0.1231
 3134SOL     OW10842   7.520   1.465  11.450 -0.3865 -0.4053  0.8858
 3134SOL    HW110843   7.496   1.380  11.415 -1.1096 -1.0222  2.7320
 3134SOL    HW210844   7.554   1.514  11.375  0.0775 -2.3097 -0.2132
 3135SOL     OW10845   6.850   0.116   5.569  0.2778  0.3892 -0.2398
 3135SOL    HW110846   6.803   0.166   5.636  1.8783  0.2487  1.0564
 3135SOL    HW210847   6.882   0.182   5.508  2.0985  0.9980  1.2820
 3136SOL     OW10848   2.293   3.699   1.067 -0.3586  0.5386 -0.3626
 3136SOL    HW110849   2.372   3.650   1.090 -0.3352  0.9310  0.4209
 3136SOL    HW210850   2.252   3.647   0.999  0.5163  0.2708 -0.6958
 3137SOL     OW10851   0.779   6.058   2.871 -0.7188  0.2620 -0.0802
 3137SOL    HW110852   0.756   5.972   2.836  1.2031 -0.0803 -0.6053
 3137SOL    HW210853   0.803   6.109   2.794  1.1926  0.2687  0.4872
 3138SOL     OW10854   4.687   0.136  11.339  0.1450 -0.4820 -0.0669
 3138SOL    HW110855   4.600   0.101  11.358 -0.5549  0.9747 -0.4237
 3138SOL    HW210856   4.713   0.183  11.418  0.5526 -0.8005 -0.0080
 3139SOL     OW10857   3.199   6.199   3.561 -0.5646  0.2046 -0.3411
 3139SOL    HW110858   3.292   6.224   3.564 -0.7981  1.1008 -0.2607
 3139SOL    HW210859   3.162   6.241   3.639 -1.5535  2.0306 -1.7315
 3140SOL     OW10860   4.696   4.004   2.216 -0.1323 -0.0124  0.4072
 3140SOL    HW110861   4.735   3.918   2.231  0.8783  0.3955  0.2189
 3140SOL    HW210862   4.671   4.004   2.124 -0.7142 -0.3216  0.5599
 3141SOL     OW10863   5.511   4.236  10.226  0.5698  0.0854  0.0180
 3141SOL    HW110864   5.525   4.284  10.144  1.4163  0.2939  0.2804
 3141SOL    HW210865   5.456   4.162  10.200  0.8164  0.1508 -0.7362
 3142SOL     OW10866   4.806   5.647   9.883  0.9148  0.3517 -0.3385
 3142SOL    HW110867   4.734   5.598   9.842  0.8146  1.1649 -1.1651
 3142SOL    HW210868   4.880   5.586   9.883  0.3052 -0.4009  0.2836
 3143SOL     OW10869   1.229   4.777   4.661  0.2141 -0.1325 -0.2468
 3143SOL    HW110870   1.218   4.728   4.743  0.0359 -0.4537 -0.4647
 3143SOL    HW210871   1.140   4.797   4.633  0.2749  2.3001  1.0229
 3144SOL     OW10872   3.224   4.629  10.114 -0.0906  0.3131 -0.2761
 3144SOL    HW110873   3.303   4.577  10.102  0.1033  0.6291 -0.3815
 3144SOL    HW210874   3.216   4.638  10.209 -0.7911 -0.9123 -0.1968
 3145SOL     OW10875   1.428   7.740   8.295  0.9548  0.0758  0.6342
 3145SOL    HW110876   1.386   7.669   8.245  0.6256  1.4006 -1.0972
 3145SOL    HW210877   1.382   7.740   8.379  0.5585 -1.3722  0.4482
 3146SOL     OW10878   6.885   6.107  10.475  0.1740  0.3176  0.7142
 3146SOL    HW110879   6.815   6.061  10.522 -1.0474  0.3966 -0.9101
 3146SOL    HW210880   6.850   6.195  10.460  0.8937  0.5701  0.4547
 3147SOL     OW10881   4.199   1.228  11.768  0.2553 -0.2847  0.4502
 3147SOL    HW110882   4.267   1.296  11.772 -0.0760  0.1254 -0.7638
 3147SOL    HW210883   4.224   1.174  11.693 -0.9586  0.0885 -0.2329
 3148SOL     OW10884   7.393   5.771  10.626  0.2337 -0.4091  0.0161
 3148SOL    HW110885   7.318   5.749  10.681 -0.0558  1.2438  0.3244
 3148SOL    HW210886   7.457   5.809  10.687  0.6601 -0.2755 -0.5065
 3149SOL     OW10887   5.398   7.205   4.099 -0.2037 -0.2052  0.5349
 3149SOL    HW110888   5.472   7.222   4.040  0.6363 -1.2208  1.2462
 3149SOL    HW210889   5.340   7.148   4.049 -0.0466 -0.1440  0.2810
 3150SOL     OW10890   4.105   0.690   6.715  0.3274 -0.3169  0.6315
 3150SOL    HW110891   4.044   0.685   6.641 -0.6841  0.4012  1.3920
 3150SOL    HW210892   4.053   0.725   6.787  1.1818 -1.3831  1.8144
 3151SOL     OW10893   4.155   5.309   9.263  0.2258 -0.5431  0.0927
 3151SOL    HW110894   4.248   5.323   9.246  0.1439  0.2791  0.2848
 3151SOL    HW210895   4.126   5.388   9.308  0.0438 -1.8796  2.5209
 3152SOL     OW10896   1.766   7.976  10.731 -0.4426  0.6265  0.0523
 3152SOL    HW110897   1.799   7.955  10.644 -1.4442  1.5276 -0.5727
 3152SOL    HW210898   1.771   8.071  10.736 -1.8534  0.7069  0.3568
 3153SOL     OW10899   7.109   5.823   8.698 -0.0070 -0.4713  0.6632
 3153SOL    HW110900   7.184   5.779   8.656  0.8182  1.2032  0.3076
 3153SOL    HW210901   7.038   5.815   8.635  0.6682  0.2887 -0.2256
 3154SOL     OW10902   2.951   6.616   4.982  0.1718  0.2107  0.1394
 3154SOL    HW110903   2.875   6.567   5.014  0.4339 -0.5000 -0.2787
 3154SOL    HW210904   2.993   6.650   5.061 -0.3255  0.2163  0.4034
 3155SOL     OW10905   3.981   0.387  10.025 -0.0442 -0.1611  0.1915
 3155SOL    HW110906   3.891   0.407  10.001 -0.1289 -0.6358  0.1040
 3155SOL    HW210907   3.979   0.375  10.120  0.1698  1.0712  0.3728
 3156SOL     OW10908   5.272   3.181   2.583 -0.8507 -0.1413  0.0829
 3156SOL    HW110909   5.269   3.214   2.673 -1.1650 -1.5515  0.6182
 3156SOL    HW210910   5.222   3.245   2.532  0.6768  1.5386  0.5937
 3157SOL     OW10911   6.440   3.438   5.096  0.0817 -0.1881  0.3681
 3157SOL    HW110912   6.442   3.407   5.006  1.7672 -1.0658  0.6700
 3157SOL    HW210913   6.520   3.405   5.135 -0.8051 -0.1938  2.3296
 3158SOL     OW10914   5.009   4.659   6.866 -0.4325 -0.1635 -0.2275
 3158SOL    HW110915   5.093   4.667   6.820 -0.7789 -1.2240 -1.0863
 3158SOL    HW210916   4.961   4.738   6.843 -0.0783 -0.0554 -0.6076
 3159SOL     OW10917   4.225   6.961   0.879 -0.1301  0.2451 -0.4983
 3159SOL    HW110918   4.144   6.995   0.915 -0.0117 -0.7228  0.7593
 3159SOL    HW210919   4.198   6.898   0.812 -0.4123  0.1581 -0.3019
 3160SOL     OW10920   1.961   4.455   4.289  0.1742  0.4034  0.4561
 3160SOL    HW110921   1.897   4.387   4.312  0.6292 -0.9170 -1.9361
 3160SOL    HW210922   1.909   4.523   4.246  0.0458  0.5497  0.8321
 3161SOL     OW10923   4.351   7.204   2.906  0.0078  0.3262  0.2268
 3161SOL    HW110924   4.328   7.207   2.813 -2.0974  0.5343  0.7210
 3161SOL    HW210925   4.377   7.113   2.921 -0.5680  0.0539 -0.3607
 3162SOL     OW10926   2.727   3.143   9.817 -0.1756 -0.2994  0.1080
 3162SOL    HW110927   2.709   3.098   9.900  0.9916 -2.1774 -0.6026
 3162SOL    HW210928   2.822   3.137   9.807 -0.1832  0.8879 -0.8445
 3163SOL     OW10929   7.045   6.305   0.321  0.2350  0.9675  0.2945
 3163SOL    HW110930   6.955   6.337   0.310 -0.3919  0.2659  2.7067
 3163SOL    HW210931   7.099   6.384   0.320 -0.7159  1.6552  1.1732
 3164SOL     OW10932   5.754   6.580  10.170  0.7475 -0.2677 -0.3622
 3164SOL    HW110933   5.756   6.583  10.074 -1.1884 -0.6941 -0.4508
 3164SOL    HW210934   5.746   6.672  10.197 -1.6625 -0.2969 -0.7698
 3165SOL     OW10935   5.937   2.724   8.308 -0.3771 -0.2405 -0.3770
 3165SOL    HW110936   5.907   2.648   8.259 -2.0059 -0.1177  0.3655
 3165SOL    HW210937   6.031   2.729   8.289 -0.4554 -1.7368 -1.3522
 3166SOL     OW10938   4.101   7.370   9.783 -0.4398  0.5890 -0.4736
 3166SOL    HW110939   4.140   7.450   9.816 -2.1383  1.3181 -0.1252
 3166SOL    HW210940   4.009   7.392   9.769 -1.2075 -1.5826  0.6699
 3167SOL     OW10941   2.758   0.161   2.209 -0.5677  0.2703 -0.2087
 3167SOL    HW110942   2.715   0.206   2.137 -2.0197 -0.0497  0.4173
 3167SOL    HW210943   2.815   0.097   2.167  0.4107  1.6601 -1.0803
 3168SOL     OW10944   3.902   0.644   4.321  0.0481  0.5167  0.3974
 3168SOL    HW110945   3.974   0.664   4.381  0.9279 -1.6168  0.1574
 3168SOL    HW210946   3.863   0.564   4.356 -0.0336 -0.2414 -1.3002
 3169SOL     OW10947   4.991   5.987  10.199 -0.1200 -0.8526 -0.0436
 3169SOL    HW110948   5.042   5.933  10.259  0.0213 -0.9650 -0.2632
 3169SOL    HW210949   4.915   5.933  10.176 -0.3115 -0.7063  0.2408
 3170SOL     OW10950   1.911   3.360   5.552  0.6840  0.2364  0.3768
 3170SOL    HW110951   1.822   3.341   5.583 -0.1096  0.3618 -1.6492
 3170SOL    HW210952   1.934   3.442   5.596 -1.3360  1.6735 -1.0454
 3171SOL     OW10953   7.444   4.629   8.127 -0.2920 -0.1542  0.2673
 3171SOL    HW110954   7.490   4.655   8.207 -0.2955 -0.6717  0.4442
 3171SOL    HW210955   7.427   4.711   8.081  1.2381  0.0390 -0.0292
 3172SOL     OW10956   0.375   4.920   2.834 -0.4569 -0.0648 -0.5173
 3172SOL    HW110957   0.406   4.965   2.913  0.9235  1.9678 -2.1113
 3172SOL    HW210958   0.409   4.972   2.761 -1.2835 -2.1114 -2.5001
 3173SOL     OW10959   1.106   3.637   0.794  0.1525  0.5033  0.2183
 3173SOL    HW110960   1.144   3.712   0.750 -0.7951  1.1400  0.4626
 3173SOL    HW210961   1.099   3.664   0.886 -0.8998  0.4224  0.1740
 3174SOL     OW10962   3.318   4.002   2.725  0.1280  0.6747  0.0270
 3174SOL    HW110963   3.366   4.035   2.649  1.9205  0.9935  1.2180
 3174SOL    HW210964   3.292   4.081   2.772 -0.6290  0.4738 -0.0538
 3175SOL     OW10965   5.471   7.361   7.052  0.1698 -0.1205  0.1775
 3175SOL    HW110966   5.515   7.399   6.976 -1.2256  0.9732 -0.1140
 3175SOL    HW210967   5.417   7.291   7.015 -2.6079  2.1251 -0.3142
 3176SOL     OW10968   4.237   0.443   2.690  0.4850  0.3896  0.2452
 3176SOL    HW110969   4.319   0.473   2.651 -0.3856  1.4369 -0.8655
 3176SOL    HW210970   4.263   0.410   2.776  1.8826  2.1437  0.5795
 3177SOL     OW10971   0.962   0.290   6.216 -0.4023 -0.1542  0.0238
 3177SOL    HW110972   1.055   0.310   6.216 -0.2317 -0.8452  1.0892
 3177SOL    HW210973   0.956   0.199   6.188 -0.8971  0.3071 -1.4688
 3178SOL     OW10974   6.439   3.270  10.964 -0.1860  0.2060  0.6146
 3178SOL    HW110975   6.464   3.267  10.871 -1.3345  0.5876  0.2744
 3178SOL    HW210976   6.425   3.362  10.982  0.8632  0.2153  1.4154
 3179SOL     OW10977   6.049   5.600   6.455  0.1671 -0.1621 -0.0887
 3179SOL    HW110978   6.120   5.539   6.438  0.7483  0.5072 -0.1318
 3179SOL    HW210979   6.017   5.626   6.369  1.2119  1.0508 -0.1407
 3180SOL     OW10980   7.820   5.957  10.819  0.2016 -0.5715  0.0585
 3180SOL    HW110981   7.772   6.006  10.752 -0.1384 -0.7421  0.1793
 3180SOL    HW210982   7.842   5.874  10.776  2.0252  0.2174 -0.6455
 3181SOL     OW10983   4.888   3.529   1.344 -0.1541  0.1915 -0.2565
 3181SOL    HW110984   4.844   3.530   1.259 -1.4675  0.8079  0.4085
 3181SOL    HW210985   4.886   3.437   1.371  0.4710 -0.0418 -0.9809
 3182SOL     OW10986   7.309   4.157   3.982  0.3311 -0.1428 -0.0625
 3182SOL    HW110987   7.226   4.110   3.991 -0.5288  1.4279  0.6169
 3182SOL    HW210988   7.306   4.195   3.894  1.3308 -1.8205 -0.8843
 3183SOL     OW10989   1.931   0.421  10.613  0.1113 -0.4950 -0.1085
 3183SOL    HW110990   1.909   0.514  10.622 -0.5515 -0.6121 -0.4590
 3183SOL    HW210991   2.023   0.422  10.585 -0.4408  0.1627 -2.1332
 3184SOL     OW10992   4.344   0.733   2.877 -0.0914  0.0944  0.0911
 3184SOL    HW110993   4.375   0.824   2.886  0.9589 -0.3286  1.0062
 3184SOL    HW210994   4.307   0.712   2.962  0.1329 -0.5001  0.0470
 3185SOL     OW10995   1.200   6.431   1.174  0.0594 -0.0461 -0.1901
 3185SOL    HW110996   1.157   6.346   1.162 -0.2252  0.1898 -0.9453
 3185SOL    HW210997   1.197   6.446   1.268 -0.4587 -0.5817 -0.1080
 3186SOL     OW10998   3.132   7.902  11.499  0.5195 -0.5241  0.2779
 3186SOL    HW110999   3.203   7.966  11.497  0.2198 -0.1770  0.6728
 3186SOL    HW211000   3.177   7.818  11.510  1.0893 -0.7150 -2.6691
 3187SOL     OW11001   0.007   6.256   4.301  0.4897  0.4857  0.1746
 3187SOL    HW111002   0.043   6.304   4.376  1.6442  2.3915 -1.5005
 3187SOL    HW211003   0.061   6.283   4.227  0.9741 -3.1810 -1.0182
 3188SOL     OW11004   5.491   6.245   4.321 -0.1531 -0.0990  0.1348
 3188SOL    HW111005   5.535   6.319   4.362  0.4345 -0.8030  0.8005
 3188SOL    HW211006   5.444   6.202   4.392  2.3677 -2.4144  0.5559
 3189SOL     OW11007   5.699   5.383   9.365  0.4724  0.4626  0.0273
 3189SOL    HW111008   5.727   5.329   9.438 -0.0690 -2.2025 -1.5849
 3189SOL    HW211009   5.604   5.391   9.377  0.3089 -0.3899 -0.5783
 3190SOL     OW11010   4.279   3.608   5.828 -0.1986  0.1314  0.3010
 3190SOL    HW111011   4.343   3.573   5.766 -0.0874  0.4893  0.2100
 3190SOL    HW211012   4.321   3.601   5.913 -1.1589 -2.3427  0.6581
 3191SOL     OW11013   6.071   4.191   1.014  0.1039  0.1410  0.1555
 3191SOL    HW111014   6.154   4.143   1.015 -0.2997 -0.5700 -0.0675
 3191SOL    HW211015   6.096   4.281   0.992  0.7484 -0.2142 -0.6123
 3192SOL     OW11016   7.046   7.039   1.810 -0.0049  0.3353 -0.2535
 3192SOL    HW111017   7.120   6.980   1.793  0.0701  1.0084 -2.6497
 3192SOL    HW211018   6.971   6.996   1.769 -0.6579  0.3699  0.8685
 3193SOL     OW11019   7.442   6.172   6.381 -0.0936  0.4929 -0.2116
 3193SOL    HW111020   7.467   6.176   6.288  0.2512  0.7872 -0.1086
 3193SOL    HW211021   7.508   6.225   6.426 -0.6302  0.8873  0.1260
 3194SOL     OW11022   0.857   6.420   5.965  0.4687 -0.3797 -0.2423
 3194SOL    HW111023   0.938   6.419   5.913  0.1174  1.6635 -0.9160
 3194SOL    HW211024   0.833   6.512   5.970 -2.0875 -0.9567 -0.4322
 3195SOL     OW11025   0.737   2.041   4.538 -0.5634 -0.4755  0.3324
 3195SOL    HW111026   0.680   2.044   4.615  1.8949 -1.1670  2.3418
 3195SOL    HW211027   0.711   2.117   4.486 -2.2427  0.1268  1.9367
 3196SOL     OW11028   7.755   1.398   9.589  0.1155  0.2261  0.3941
 3196SOL    HW111029   7.745   1.427   9.680 -0.7304  0.7800  0.1395
 3196SOL    HW211030   7.813   1.464   9.550  0.9417 -0.3244  0.6604
 3197SOL     OW11031   2.574   7.193   0.584 -0.5523 -0.8395  0.6489
 3197SOL    HW111032   2.592   7.109   0.541  0.2710 -0.4120  0.1188
 3197SOL    HW211033   2.661   7.226   0.608 -0.6384  0.9102 -1.1931
 3198SOL     OW11034   3.567   1.221   8.038  0.2197  0.2480  0.1262
 3198SOL    HW111035   3.524   1.306   8.047  1.0199  0.7328 -0.4978
 3198SOL    HW211036   3.497   1.157   8.053 -0.4504  1.0130  0.3347
 3199SOL     OW11037   0.839   1.077   4.778 -0.3935  0.4005 -0.3997
 3199SOL    HW111038   0.821   1.054   4.869 -1.3049 -0.7661 -0.8512
 3199SOL    HW211039   0.755   1.110   4.745 -0.1605  0.4727 -0.9236
 3200SOL     OW11040   4.389   7.285   6.403  0.0916 -0.0718  0.1189
 3200SOL    HW111041   4.394   7.321   6.492 -1.1980 -0.2774  0.2919
 3200SOL    HW211042   4.456   7.333   6.354  0.1290  0.7601  0.9528
 3201SOL     OW11043   7.185   4.497   7.926 -0.7019  0.3725  0.0173
 3201SOL    HW111044   7.182   4.548   8.007 -0.0472  0.1210  0.2122
 3201SOL    HW211045   7.152   4.410   7.951 -1.1092  0.4820 -0.1383
 3202SOL     OW11046   2.071   7.430  10.552  0.0006  0.2955  0.1214
 3202SOL    HW111047   1.995   7.480  10.523 -1.1720 -1.0685  0.7029
 3202SOL    HW211048   2.116   7.487  10.614  0.6579  1.9186 -1.7287
 3203SOL     OW11049   5.094   4.024   5.793  0.1867  0.2960  0.0251
 3203SOL    HW111050   5.078   4.094   5.856 -0.5999  1.3701 -1.3144
 3203SOL    HW211051   5.026   3.959   5.811  0.6689  0.0556  1.0107
 3204SOL     OW11052   5.949   1.377   1.014  0.4639  0.3732 -0.0593
 3204SOL    HW111053   5.855   1.375   1.028  0.6773 -0.6980  1.3719
 3204SOL    HW211054   5.959   1.376   0.919 -0.9535  1.1407 -0.2446
 3205SOL     OW11055   3.526   4.744   6.589 -0.7193  0.1262 -0.0081
 3205SOL    HW111056   3.565   4.827   6.561  2.2184 -0.4383  1.9967
 3205SOL    HW211057   3.458   4.770   6.651 -0.4590  1.0433 -0.0867
 3206SOL     OW11058   4.890   3.310   7.346 -0.2085 -0.4510  0.3554
 3206SOL    HW111059   4.928   3.314   7.434  0.1670  1.3432  0.1533
 3206SOL    HW211060   4.806   3.357   7.354 -0.0689 -0.0833 -0.2864
 3207SOL     OW11061   1.976   5.588  12.231 -0.3076 -0.0541 -0.4206
 3207SOL    HW111062   2.029   5.573  12.310  1.1978 -1.2704 -1.5946
 3207SOL    HW211063   1.905   5.645  12.260  0.7311  0.2967  1.5976
 3208SOL     OW11064   2.210   4.927   6.858 -0.0370  0.5047  0.3364
 3208SOL    HW111065   2.163   4.857   6.902  1.5363 -0.3794  0.6928
 3208SOL    HW211066   2.267   4.964   6.925  1.3905  0.0504 -0.5806
 3209SOL     OW11067   5.320   6.819   4.213 -0.8873  0.3669 -0.2609
 3209SOL    HW111068   5.402   6.868   4.204 -0.4826 -0.5056 -1.7954
 3209SOL    HW211069   5.348   6.728   4.218 -1.7458  0.1116 -0.0749
 3210SOL     OW11070   0.801   2.717   9.870 -0.4044  0.4495  0.0033
 3210SOL    HW111071   0.805   2.626   9.899 -1.1376  0.8843  1.6042
 3210SOL    HW211072   0.890   2.737   9.839 -0.2701 -0.8291 -0.4752
 3211SOL     OW11073   1.329   4.286   2.982 -0.5917  0.7486  0.1324
 3211SOL    HW111074   1.409   4.264   3.029 -0.9184 -0.1148  0.2932
 3211SOL    HW211075   1.345   4.374   2.947  0.0741  0.9489  0.9180
 3212SOL     OW11076   4.129   5.467   7.659 -0.4748  0.1765  0.2443
 3212SOL    HW111077   4.051   5.437   7.706  0.1200 -2.3117 -0.1903
 3212SOL    HW211078   4.162   5.540   7.712 -2.1737  0.2228  1.3238
 3213SOL     OW11079   2.794   0.192   5.625  0.5727 -0.5563 -0.1539
 3213SOL    HW111080   2.748   0.110   5.641  0.7167 -0.4338  0.9194
 3213SOL    HW211081   2.858   0.199   5.695 -0.1708  1.0098  0.4313
 3214SOL     OW11082   7.091   6.096   9.399 -0.0765  0.6838  0.3167
 3214SOL    HW111083   7.134   6.021   9.441 -0.4912 -0.1030 -0.6218
 3214SOL    HW211084   7.084   6.070   9.307  0.0048  1.9916 -0.0761
 3215SOL     OW11085   1.736   7.203   3.488 -0.1663  0.4322  0.2478
 3215SOL    HW111086   1.670   7.200   3.419 -0.4685  1.7855  0.4541
 3215SOL    HW211087   1.763   7.111   3.499 -1.3193 -0.0246 -0.4863
 3216SOL     OW11088   4.672   5.375   9.761  0.2154 -0.0206 -0.4022
 3216SOL    HW111089   4.698   5.322   9.837  0.8100  0.9580  0.1018
 3216SOL    HW211090   4.576   5.369   9.759  0.1820  0.0924  0.5362
 3217SOL     OW11091   1.758   4.941   7.419 -0.4010  0.0076 -0.5116
 3217SOL    HW111092   1.705   4.869   7.454 -0.6924 -0.0327 -1.0143
 3217SOL    HW211093   1.799   4.904   7.341  1.5007 -0.3934  0.6236
 3218SOL     OW11094   6.609   1.542   0.626 -0.2001  0.3617  0.1556
 3218SOL    HW111095   6.542   1.477   0.602  0.6206 -0.0250 -1.1838
 3218SOL    HW211096   6.676   1.491   0.671  0.5296  0.2261 -1.0547
 3219SOL     OW11097   4.416   5.654   2.564 -0.0725  0.1669 -0.2563
 3219SOL    HW111098   4.490   5.700   2.606  0.4539 -0.4737 -0.4673
 3219SOL    HW211099   4.456   5.578   2.521 -0.9159 -0.4327 -0.0080
 3220SOL     OW11100   4.723   4.053   3.005 -0.2557 -0.3253  0.2895
 3220SOL    HW111101   4.786   4.008   3.062  0.5800 -0.7349 -0.9225
 3220SOL    HW211102   4.765   4.054   2.919 -1.7479 -0.2735 -0.4699
 3221SOL     OW11103   2.467   1.786   9.348  0.0547 -0.5810 -0.2543
 3221SOL    HW111104   2.550   1.774   9.303  0.0561 -1.1973 -0.1051
 3221SOL    HW211105   2.408   1.823   9.282  0.1715 -1.0804 -0.6430
 3222SOL     OW11106   1.522   6.527   2.869  0.2795  0.0995  0.6116
 3222SOL    HW111107   1.455   6.478   2.916  0.7503 -0.8299  0.3291
 3222SOL    HW211108   1.506   6.618   2.893  0.3282 -0.3156  2.3729
 3223SOL     OW11109   2.217   0.460   0.245  0.3390  0.1352  0.1438
 3223SOL    HW111110   2.266   0.379   0.235  1.6693  1.0217 -0.9967
 3223SOL    HW211111   2.178   0.476   0.159 -1.3300 -0.1354  0.8158
 3224SOL     OW11112   2.390   1.219   3.591 -0.4820 -0.5744 -0.0141
 3224SOL    HW111113   2.330   1.146   3.575 -1.5583  0.3163 -0.1101
 3224SOL    HW211114   2.416   1.247   3.503  0.3876 -1.1907  0.0325
 3225SOL     OW11115   4.719   7.137   4.179  0.2445  0.5289  0.0385
 3225SOL    HW111116   4.737   7.049   4.212 -0.4503  0.4920  0.3343
 3225SOL    HW211117   4.623   7.144   4.182 -0.0815 -0.1730 -3.7058
 3226SOL     OW11118   0.887   5.111   2.760 -0.5719 -0.2720  0.3230
 3226SOL    HW111119   0.881   5.158   2.677 -1.3857 -2.2962 -0.8274
 3226SOL    HW211120   0.966   5.057   2.752 -0.7715 -0.6383  0.7774
 3227SOL     OW11121   4.180   3.808   3.385  0.0891 -0.6886 -0.1159
 3227SOL    HW111122   4.265   3.822   3.428  0.3725  1.0982 -1.1735
 3227SOL    HW211123   4.116   3.837   3.449  0.5605  3.3553 -1.2397
 3228SOL     OW11124   5.183   2.070   7.644 -0.1176  0.3034 -0.0594
 3228SOL    HW111125   5.166   2.023   7.562 -0.3734  1.8839 -0.9508
 3228SOL    HW211126   5.097   2.075   7.686  0.2187 -1.6450  1.0019
 3229SOL     OW11127   4.236   4.090   4.900  0.3128  0.0884  0.4629
 3229SOL    HW111128   4.244   4.003   4.861 -1.7922 -0.6164  1.4514
 3229SOL    HW211129   4.310   4.096   4.960  2.3916  0.3697 -1.9687
 3230SOL     OW11130   3.379   4.277   0.733 -0.5640  0.6930  0.1180
 3230SOL    HW111131   3.398   4.370   0.724 -1.2602  1.0304  1.7965
 3230SOL    HW211132   3.295   4.265   0.688  0.3683  0.4827 -1.6525
 3231SOL     OW11133   1.711   1.625   3.155  0.3328 -0.4372  0.4476
 3231SOL    HW111134   1.750   1.593   3.237 -0.8145 -0.1826  1.1034
 3231SOL    HW211135   1.618   1.632   3.173  0.1249  0.1152 -0.7322
 3232SOL     OW11136   3.907   3.665   6.257  0.1314  0.2771 -0.4153
 3232SOL    HW111137   3.887   3.572   6.257 -0.3527  0.3527  1.1272
 3232SOL    HW211138   3.834   3.705   6.306  0.4969  1.4224 -0.7723
 3233SOL     OW11139   1.717   3.492  10.633  0.3954  0.3607 -0.9598
 3233SOL    HW111140   1.795   3.506  10.579  0.4551  0.9827 -0.7301
 3233SOL    HW211141   1.744   3.428  10.699  0.4988  0.0447 -1.3118
 3234SOL     OW11142   4.303   1.140   5.152  0.1019 -0.1165  0.0150
 3234SOL    HW111143   4.241   1.119   5.082 -0.4490  1.1546  0.1028
 3234SOL    HW211144   4.247   1.153   5.229  0.2254  2.9426 -0.3093
 3235SOL     OW11145   0.145   6.432   8.186 -0.6195 -0.1062 -0.0388
 3235SOL    HW111146   0.124   6.339   8.176 -0.8626 -0.0066 -0.4658
 3235SOL    HW211147   0.238   6.438   8.164 -0.2748 -0.4442  1.2244
 3236SOL     OW11148   4.492   4.574   4.425 -0.4579 -0.2883 -0.3604
 3236SOL    HW111149   4.411   4.584   4.475 -0.4995 -0.6065 -0.3591
 3236SOL    HW211150   4.489   4.484   4.393 -0.8945  0.1944 -1.7415
 3237SOL     OW11151   1.711   0.459   8.778 -0.6359  0.3753 -0.0079
 3237SOL    HW111152   1.797   0.493   8.805 -1.0447  1.9224 -0.5380
 3237SOL    HW211153   1.699   0.380   8.831 -0.0173  1.5376  1.9733
 3238SOL     OW11154   6.428   6.599   8.762 -0.0637  0.2366 -0.0250
 3238SOL    HW111155   6.383   6.519   8.789  0.6120 -0.0903  0.1688
 3238SOL    HW211156   6.518   6.571   8.745  0.0512  0.8579 -0.4757
 3239SOL     OW11157   7.416   6.763  10.103  0.0106  0.0725  0.0751
 3239SOL    HW111158   7.387   6.732  10.017  1.7535 -1.8229  0.0859
 3239SOL    HW211159   7.497   6.715  10.119 -0.2423  0.4134  2.7682
 3240SOL     OW11160   2.903   5.362   4.705 -0.3050 -0.4815 -0.1513
 3240SOL    HW111161   2.839   5.336   4.639 -0.4795 -0.3590 -0.0297
 3240SOL    HW211162   2.866   5.441   4.744  0.3363  0.0956 -0.6829
 3241SOL     OW11163   4.419   1.987   3.388  0.6061  0.3561 -0.3248
 3241SOL    HW111164   4.423   2.026   3.475  1.6056 -0.2956 -0.0560
 3241SOL    HW211165   4.479   2.040   3.335  0.3377  0.4825 -0.5026
 3242SOL     OW11166   5.730   7.502   8.095 -0.0720 -0.7561  0.3388
 3242SOL    HW111167   5.790   7.577   8.102  1.7829 -2.1020 -0.1853
 3242SOL    HW211168   5.683   7.517   8.013  0.6854 -0.4341 -0.0470
 3243SOL     OW11169   5.671   0.027   6.598 -0.0059 -0.2658  0.2278
 3243SOL    HW111170   5.676   0.112   6.643  0.5807  0.0730 -0.4656
 3243SOL    HW211171   5.751   0.022   6.547  0.8852 -2.0846  1.7099
 3244SOL     OW11172   0.250   7.567   7.667 -0.0563 -0.3318 -0.4399
 3244SOL    HW111173   0.158   7.561   7.690  0.5385  0.4949  2.6846
 3244SOL    HW211174   0.294   7.506   7.727  1.6447  1.4762  0.2616
 3245SOL     OW11175   1.553   5.145  11.689  0.2690 -0.6938 -0.2528
 3245SOL    HW111176   1.556   5.089  11.612  1.8454 -0.9231 -0.0684
 3245SOL    HW211177   1.569   5.086  11.763 -2.5846 -0.7182  0.4659
 3246SOL     OW11178   2.378   4.169   1.828  0.2811  0.2810  0.5409
 3246SOL    HW111179   2.438   4.164   1.754  1.5662 -2.0473  1.6210
 3246SOL    HW211180   2.425   4.126   1.900 -2.2374 -0.6195  1.7740
 3247SOL     OW11181   1.072   4.257  11.665  0.6360 -0.3044  0.1193
 3247SOL    HW111182   1.130   4.303  11.726  0.4633 -0.5875  0.5003
 3247SOL    HW211183   1.090   4.165  11.681 -0.5127 -0.4188  0.8263
 3248SOL     OW11184   0.548   3.371   1.490 -0.0523 -0.4393 -0.3414
 3248SOL    HW111185   0.603   3.324   1.552 -0.9748  0.3065  1.0981
 3248SOL    HW211186   0.523   3.305   1.425  1.6087 -1.0381 -0.4046
 3249SOL     OW11187   4.931   6.847  10.852  0.3493  0.7204  0.1933
 3249SOL    HW111188   4.999   6.894  10.900  0.7155  0.1812  0.2042
 3249SOL    HW211189   4.918   6.899  10.773  1.4837  0.2915 -0.2902
 3250SOL     OW11190   4.570   7.855   4.365  0.2579 -0.6259 -0.9358
 3250SOL    HW111191   4.575   7.799   4.288  1.2464 -0.5008 -0.9812
 3250SOL    HW211192   4.568   7.944   4.330 -4.3646 -0.5265 -1.0238
 3251SOL     OW11193   5.985   4.089   8.679 -0.2843  0.0665 -0.3444
 3251SOL    HW111194   5.995   4.176   8.641 -0.0331  0.7762  1.2549
 3251SOL    HW211195   5.982   4.030   8.604  1.2189  1.2761 -1.4253
 3252SOL     OW11196   0.857   3.745   1.945  0.3679 -0.3171  0.2337
 3252SOL    HW111197   0.894   3.773   2.029 -1.4698 -1.2348  1.4160
 3252SOL    HW211198   0.783   3.804   1.931  0.9239  0.1228 -1.0060
 3253SOL     OW11199   7.638   2.299   1.954 -0.8308  0.7242  0.5286
 3253SOL    HW111200   7.612   2.390   1.971 -0.3797  0.6560  1.6685
 3253SOL    HW211201   7.594   2.277   1.872 -2.4631  1.3700  1.1911
 3254SOL     OW11202   5.750   6.532   9.905  0.0953 -0.0963  0.1170
 3254SOL    HW111203   5.805   6.591   9.854  0.5731 -0.0612  0.6727
 3254SOL    HW211204   5.807   6.457   9.925 -0.6392 -1.0045 -1.0182
 3255SOL     OW11205   4.670   6.964  11.122  0.1844  0.3887  0.5372
 3255SOL    HW111206   4.737   7.010  11.173 -1.2217  0.0317  2.8580
 3255SOL    HW211207   4.604   7.031  11.104  1.6240  1.0929 -2.9371
 3256SOL     OW11208   0.767   6.933  11.699 -0.0723 -0.6629  0.5421
 3256SOL    HW111209   0.779   7.006  11.637 -0.2553 -0.7563  0.3946
 3256SOL    HW211210   0.708   6.873  11.653 -1.2211 -0.1475  1.2933
 3257SOL     OW11211   5.667   3.378  10.325 -0.3832 -0.5293  0.9222
 3257SOL    HW111212   5.737   3.313  10.322 -0.6707 -0.8172  0.3858
 3257SOL    HW211213   5.649   3.390  10.418  1.3445  0.5923  1.1697
 3258SOL     OW11214   4.136   4.445   7.437 -0.2829 -0.4419 -0.2385
 3258SOL    HW111215   4.120   4.532   7.474 -2.1491  0.7050 -3.3530
 3258SOL    HW211216   4.049   4.404   7.434  0.1733 -1.3847 -1.2047
 3259SOL     OW11217   4.493   7.690   8.306  0.1469  0.3497 -0.0176
 3259SOL    HW111218   4.588   7.680   8.310  0.1019  0.2339  1.0507
 3259SOL    HW211219   4.467   7.709   8.396 -0.9122 -0.2940 -0.1723
 3260SOL     OW11220   6.155   0.739   3.948 -0.1546  0.0142 -0.0866
 3260SOL    HW111221   6.145   0.678   3.874 -0.9054 -1.1374  0.9266
 3260SOL    HW211222   6.217   0.804   3.916 -0.1496 -0.6690 -1.5996
 3261SOL     OW11223   6.034   5.487   6.711 -0.3088 -0.6968 -0.3285
 3261SOL    HW111224   5.963   5.429   6.739 -0.4139  0.5685  2.3591
 3261SOL    HW211225   5.992   5.552   6.656 -0.9349 -0.9012 -0.1035
 3262SOL     OW11226   7.212   3.078   9.092  0.3147 -0.0493  0.3488
 3262SOL    HW111227   7.275   3.097   9.162  2.8929 -2.8486 -0.9578
 3262SOL    HW211228   7.140   3.139   9.107  2.3464  1.9054  3.2708
 3263SOL     OW11229   7.397   3.785   3.767  0.1424 -0.2068 -0.3678
 3263SOL    HW111230   7.323   3.834   3.804 -0.3323 -0.6510 -0.7067
 3263SOL    HW211231   7.426   3.729   3.840 -0.0297 -0.2266 -0.3130
 3264SOL     OW11232   0.159   1.098  10.148 -0.0017  0.2328 -0.2595
 3264SOL    HW111233   0.146   1.188  10.118 -0.5288  0.4114  0.4827
 3264SOL    HW211234   0.172   1.106  10.242  0.7364 -0.3993 -0.3016
 3265SOL     OW11235   6.707   2.883  10.492 -0.3076 -0.3889 -0.6547
 3265SOL    HW111236   6.728   2.971  10.464 -0.8558  0.1946  0.6479
 3265SOL    HW211237   6.732   2.881  10.585 -2.2457 -0.8811 -0.0904
 3266SOL     OW11238   3.662   4.804   5.489 -0.1993  0.1601  0.9581
 3266SOL    HW111239   3.600   4.806   5.561 -0.1425 -0.7953  1.0423
 3266SOL    HW211240   3.723   4.876   5.507 -1.7170  1.6263  0.4616
 3267SOL     OW11241   4.417   1.342   8.594 -0.3285  0.5209 -0.2317
 3267SOL    HW111242   4.356   1.415   8.599 -0.3599  0.4492  0.5977
 3267SOL    HW211243   4.364   1.268   8.563 -1.4572 -0.3206  3.2818
 3268SOL     OW11244   0.777   7.783   4.786 -0.7940 -0.3603 -0.2597
 3268SOL    HW111245   0.692   7.744   4.807 -1.5407  0.8350 -1.0174
 3268SOL    HW211246   0.815   7.723   4.722 -1.4817 -0.4028 -0.6373
 3269SOL     OW11247   0.127   1.026  10.925  0.3401  0.1106 -0.0779
 3269SOL    HW111248   0.034   1.038  10.941  0.2516 -0.7815  0.1101
 3269SOL    HW211249   0.154   1.107  10.880  0.1056  1.6610  2.3719
 3270SOL     OW11250   2.078   3.840  10.969  0.5387 -0.0989 -0.4428
 3270SOL    HW111251   2.138   3.789  10.913  0.7450 -1.0471  0.6093
 3270SOL    HW211252   1.992   3.824  10.931  0.7840  0.0582 -1.0770
 3271SOL     OW11253   3.409   6.579  11.502 -0.3766 -0.1074 -0.2003
 3271SOL    HW111254   3.485   6.531  11.467  0.4713  0.9963  0.0672
 3271SOL    HW211255   3.400   6.655  11.444 -2.6042 -1.2759 -1.5125
 3272SOL     OW11256   6.166   1.474   8.156 -0.2242  0.2014 -0.2030
 3272SOL    HW111257   6.212   1.547   8.115 -0.8799  0.6770 -0.0995
 3272SOL    HW211258   6.098   1.515   8.210 -1.7941 -0.5173 -1.5535
 3273SOL     OW11259   5.562   5.275   0.891 -0.0301 -0.4479 -0.4861
 3273SOL    HW111260   5.611   5.287   0.972  0.1137 -1.1963 -0.4565
 3273SOL    HW211261   5.628   5.253   0.826  0.1708  2.3599 -1.3693
 3274SOL     OW11262   7.943   1.687   1.649  0.1108 -0.5810  0.0989
 3274SOL    HW111263   7.984   1.730   1.724  1.1544 -0.6386 -0.4154
 3274SOL    HW211264   7.853   1.669   1.677  0.5473 -0.8117  1.4162
 3275SOL     OW11265   7.935   5.757  12.229  0.7993  0.4414 -0.3601
 3275SOL    HW111266   7.942   5.849  12.206 -1.1129  1.1713  1.6578
 3275SOL    HW211267   8.013   5.739  12.282  1.7292  0.5611 -1.6541
 3276SOL     OW11268   1.704   0.084  12.045  0.8660 -0.0563 -0.1478
 3276SOL    HW111269   1.765   0.066  11.974  0.5464 -0.4494 -0.3279
 3276SOL    HW211270   1.724   0.017  12.111  0.0326 -0.7604 -0.5906
 3277SOL     OW11271   6.422   5.653   0.323 -0.1635 -0.1808 -0.2567
 3277SOL    HW111272   6.464   5.735   0.348  0.5433 -0.6058 -0.0078
 3277SOL    HW211273   6.343   5.679   0.275 -0.3753  0.6333  0.5273
 3278SOL     OW11274   7.788   3.713   3.993 -0.0065  0.5840 -0.8794
 3278SOL    HW111275   7.848   3.639   3.990  0.2471  0.7370  0.1462
 3278SOL    HW211276   7.827   3.778   3.934 -0.5033 -0.2804 -2.1948
 3279SOL     OW11277   1.717   3.818  11.621 -0.6659 -0.4355 -0.1061
 3279SOL    HW111278   1.639   3.872  11.624 -0.2455  0.1331  1.2129
 3279SOL    HW211279   1.788   3.878  11.599 -0.4976 -0.8463 -0.7364
 3280SOL     OW11280   2.599   2.166   3.257 -0.3221 -0.3624  0.3615
 3280SOL    HW111281   2.643   2.166   3.172  0.4996  0.3049  0.7698
 3280SOL    HW211282   2.669   2.183   3.320 -0.7658 -1.7721  1.2685
 3281SOL     OW11283   6.803   3.516   1.749  0.2431 -0.0065  0.2570
 3281SOL    HW111284   6.811   3.439   1.692 -2.6534  0.1801 -0.5701
 3281SOL    HW211285   6.739   3.490   1.816  0.5469  1.1031  1.0066
 3282SOL     OW11286   3.450   1.572   6.196  0.8320 -0.1840 -0.4159
 3282SOL    HW111287   3.419   1.642   6.253 -3.8511 -2.9823  1.0533
 3282SOL    HW211288   3.511   1.521   6.250 -0.8002 -0.7733  0.9631
 3283SOL     OW11289   5.751   4.609   9.537  0.2916  0.2964 -0.2449
 3283SOL    HW111290   5.783   4.557   9.463  2.2366  1.2935 -0.1872
 3283SOL    HW211291   5.724   4.692   9.497  0.6618  0.5748  0.0818
 3284SOL     OW11292   7.338   2.294   4.863  0.2382 -0.2893  0.2203
 3284SOL    HW111293   7.359   2.270   4.953  0.3863 -1.8133 -0.1963
 3284SOL    HW211294   7.258   2.246   4.843  0.8537 -0.9087 -0.8313
 3285SOL     OW11295   6.679   3.802   8.590  0.3435 -0.4153  0.5927
 3285SOL    HW111296   6.751   3.863   8.603  1.6824 -1.9242  0.5293
 3285SOL    HW211297   6.647   3.784   8.679  0.5355 -0.3063  0.6855
 3286SOL     OW11298   6.493   6.230   0.896 -0.5749 -0.1184 -0.5923
 3286SOL    HW111299   6.450   6.209   0.979  0.1438 -1.0198 -0.4396
 3286SOL    HW211300   6.586   6.237   0.918 -0.1208 -2.2533 -1.6337
 3287SOL     OW11301   6.110   2.911   3.362 -0.0006 -0.6889  0.2336
 3287SOL    HW111302   6.151   2.896   3.447 -0.9528  0.4281  0.9163
 3287SOL    HW211303   6.128   3.003   3.342 -0.8573 -0.5950 -0.1658
 3288SOL     OW11304   5.966   2.266   0.896 -0.3505  0.7547 -0.0882
 3288SOL    HW111305   5.985   2.299   0.984  1.1458  0.2988 -0.2134
 3288SOL    HW211306   6.052   2.256   0.855 -0.9541 -0.1773 -1.1891
 3289SOL     OW11307   0.706   6.869   3.271 -0.2802  0.1213  0.1807
 3289SOL    HW111308   0.632   6.916   3.232  1.4507  2.3613 -0.6168
 3289SOL    HW211309   0.723   6.797   3.210 -0.9546  0.3959 -0.3415
 3290SOL     OW11310   4.516   1.718  12.339 -0.2032  0.3740  0.6289
 3290SOL    HW111311   4.443   1.771  12.306  0.3457  0.2210 -0.9584
 3290SOL    HW211312   4.526   1.745  12.430  1.2084  4.4303 -0.4812
 3291SOL     OW11313   3.731   1.627  11.424 -0.4909  0.0255  0.2313
 3291SOL    HW111314   3.806   1.664  11.469 -0.1929  0.3324 -0.5091
 3291SOL    HW211315   3.657   1.645  11.482 -0.1361  0.5354  0.5320
 3292SOL     OW11316   0.736   0.787  11.284 -0.2133 -0.3813  0.6628
 3292SOL    HW111317   0.799   0.851  11.317 -1.7687  0.6453  1.8297
 3292SOL    HW211318   0.671   0.840  11.237 -0.2159 -1.4078 -0.5393
 3293SOL     OW11319   5.954   0.984   4.028  0.8256 -0.2751  0.2689
 3293SOL    HW111320   6.046   0.959   4.032  0.5212 -1.4510  0.3929
 3293SOL    HW211321   5.930   1.001   4.119  0.5872 -1.2970  0.4076
 3294SOL     OW11322   3.582   0.155   7.217  0.0593  0.0148  0.1286
 3294SOL    HW111323   3.628   0.074   7.241  0.3456  0.2749  0.4762
 3294SOL    HW211324   3.652   0.216   7.196 -0.1577  0.1712 -0.1381
 3295SOL     OW11325   4.579   6.959   5.004 -0.6275 -0.2011 -0.1760
 3295SOL    HW111326   4.566   6.968   5.098 -3.5928 -2.3633 -0.2087
 3295SOL    HW211327   4.667   6.923   4.994  0.5456  1.9626  1.5367
 3296SOL     OW11328   2.613   1.620   8.277 -0.3546  0.1304  0.0523
 3296SOL    HW111329   2.596   1.529   8.251  1.6848  0.4753 -2.9609
 3296SOL    HW211330   2.636   1.614   8.370 -2.5513 -2.0555  0.5640
 3297SOL     OW11331   0.082   5.028   7.474 -0.4978  0.2816 -0.1909
 3297SOL    HW111332   0.096   5.087   7.399 -0.8811 -2.5929 -2.7299
 3297SOL    HW211333  -0.013   5.020   7.479 -0.4339 -0.4210 -0.1252
 3298SOL     OW11334   3.057   0.388   8.047 -0.3832  0.3575  0.5430
 3298SOL    HW111335   3.084   0.475   8.018 -1.3516  0.1963 -0.9483
 3298SOL    HW211336   3.042   0.339   7.966 -0.7044 -0.9227  1.3533
 3299SOL     OW11337   0.035   2.139   3.837  0.7554  0.2087 -0.3969
 3299SOL    HW111338   0.000   2.059   3.875  1.6139 -0.0642 -0.1754
 3299SOL    HW211339  -0.025   2.208   3.867  0.1286 -0.3129 -0.4363
 3300SOL     OW11340   6.113   2.859  10.929 -0.1746 -0.1456  0.0855
 3300SOL    HW111341   6.199   2.902  10.937  0.1810 -0.8749  0.2247
 3300SOL    HW211342   6.123   2.801  10.853 -0.6392 -0.0253 -0.0692
 3301SOL     OW11343   0.299   5.039   8.527  0.4405 -0.0900  0.6826
 3301SOL    HW111344   0.285   4.958   8.575  0.4982  0.0854  1.0010
 3301SOL    HW211345   0.211   5.069   8.506  0.3850  0.1658  1.2504
 3302SOL     OW11346   4.723   7.747   7.680  0.7518  0.2152  0.4471
 3302SOL    HW111347   4.734   7.653   7.691 -0.9672  0.1015  1.6215
 3302SOL    HW211348   4.637   7.766   7.718  0.5425  2.0831 -0.7986
 3303SOL     OW11349   6.573   3.775   9.624 -0.3077  0.1118 -0.0335
 3303SOL    HW111350   6.633   3.729   9.566 -0.6661 -1.1658  0.5812
 3303SOL    HW211351   6.580   3.729   9.708 -0.9936  0.9092  0.4808
 3304SOL     OW11352   0.428   6.749   7.914 -0.8206 -0.2662  0.1456
 3304SOL    HW111353   0.420   6.673   7.857 -1.1728  0.1204 -0.3257
 3304SOL    HW211354   0.498   6.801   7.874 -2.2377  0.8764 -0.9672
 3305SOL     OW11355   2.817   3.742   3.267  0.2513 -0.2270 -0.1797
 3305SOL    HW111356   2.828   3.648   3.284  0.2566 -0.3035 -0.6138
 3305SOL    HW211357   2.882   3.762   3.200  0.1396  0.0546 -0.2021
 3306SOL     OW11358   3.460   3.745   3.486  0.4432  0.4215 -0.4041
 3306SOL    HW111359   3.489   3.801   3.415 -1.1624  0.8838 -0.7490
 3306SOL    HW211360   3.434   3.663   3.444 -0.9549  0.8588 -0.4684
 3307SOL     OW11361   0.387   0.097   8.030 -0.5118  0.1377  0.4477
 3307SOL    HW111362   0.347   0.019   8.070 -0.5386 -0.0282  0.1007
 3307SOL    HW211363   0.469   0.108   8.077  1.0539 -1.9923 -1.5766
 3308SOL     OW11364   3.820   0.185   6.803  0.3786 -0.0222  0.0055
 3308SOL    HW111365   3.891   0.128   6.833  0.3835 -0.0819 -0.1173
 3308SOL    HW211366   3.843   0.206   6.712  0.5244  0.4101  0.1405
 3309SOL     OW11367   1.990   1.168   8.607  0.0240  0.0969  0.0614
 3309SOL    HW111368   2.032   1.111   8.671  0.4534  2.1049  1.6874
 3309SOL    HW211369   1.945   1.234   8.660 -1.0479  0.8564 -1.7071
 3310SOL     OW11370   0.278   5.052   4.329  0.1395 -0.6123  0.2220
 3310SOL    HW111371   0.278   5.086   4.419 -0.4309 -2.1593  0.8384
 3310SOL    HW211372   0.316   4.964   4.337  0.5793 -0.5700 -1.1490
 3311SOL     OW11373   7.905   2.472   7.696  0.1143 -0.1718 -0.7605
 3311SOL    HW111374   7.965   2.453   7.768 -2.9412 -1.9312  1.5582
 3311SOL    HW211375   7.858   2.551   7.725 -0.4796 -0.3361 -1.2687
 3312SOL     OW11376   7.849   2.333   6.942  0.0397  0.0187  0.3901
 3312SOL    HW111377   7.871   2.424   6.921  0.9994 -0.5339 -1.2503
 3312SOL    HW211378   7.781   2.339   7.008  1.4828  1.9114  1.8288
 3313SOL     OW11379   2.547   2.357   2.457  0.3624 -0.0202 -0.2035
 3313SOL    HW111380   2.455   2.373   2.480  0.1910 -0.5865 -0.4916
 3313SOL    HW211381   2.597   2.391   2.532 -0.2376 -3.8051  2.2099
 3314SOL     OW11382   0.026   0.950   6.334 -0.4160 -0.2888 -0.8836
 3314SOL    HW111383   0.076   1.031   6.337  0.2506 -0.7200  1.7694
 3314SOL    HW211384   0.087   0.885   6.297  0.6079 -0.5103  1.0890
 3315SOL     OW11385   0.062   4.276   3.074  0.3261  0.1596  0.3884
 3315SOL    HW111386   0.044   4.367   3.095  2.7095  0.8819 -0.3032
 3315SOL    HW211387   0.120   4.281   2.998  0.3362 -1.9486  0.2065
 3316SOL     OW11388   0.116   0.963   4.418  0.2722 -0.4192 -0.0370
 3316SOL    HW111389   0.027   0.996   4.431  0.2720 -0.2723 -0.3938
 3316SOL    HW211390   0.106   0.869   4.407  0.0217 -0.2518 -1.3439
 3317SOL     OW11391   4.432   7.656   9.785  0.0256 -0.1552 -0.4957
 3317SOL    HW111392   4.485   7.587   9.744  0.0361  0.3267 -1.3004
 3317SOL    HW211393   4.358   7.667   9.726  0.0367  0.5392 -0.3845
 3318SOL     OW11394   4.573   1.636   5.451  0.2310 -0.2126 -0.5647
 3318SOL    HW111395   4.606   1.666   5.366  0.1745 -1.6233 -1.1078
 3318SOL    HW211396   4.650   1.636   5.508  0.1637  1.2824 -0.4291
 3319SOL     OW11397   5.745   5.115   0.154  0.5523 -0.3462 -0.0476
 3319SOL    HW111398   5.711   5.026   0.143 -0.0137 -0.0948 -0.3967
 3319SOL    HW211399   5.672   5.163   0.192  0.2825  0.3504 -1.3742
 3320SOL     OW11400   6.643   7.031   0.638 -0.2655 -0.2352 -0.0761
 3320SOL    HW111401   6.621   7.124   0.644  0.2348 -0.1261  0.1252
 3320SOL    HW211402   6.592   6.999   0.564 -0.0102  0.3252 -0.5040
 3321SOL     OW11403   7.793   2.638   6.526 -0.5009  0.1030 -0.1743
 3321SOL    HW111404   7.776   2.730   6.546  0.6859  0.0549  1.3136
 3321SOL    HW211405   7.811   2.598   6.612  1.1319 -1.0180 -0.9748
 3322SOL     OW11406   2.309   7.124   7.289  0.2473  0.7702 -0.0135
 3322SOL    HW111407   2.239   7.180   7.324  1.9227  3.6874 -0.9779
 3322SOL    HW211408   2.365   7.184   7.241  2.7227 -1.6708 -0.3910
 3323SOL     OW11409   0.048   1.805   9.977 -0.0063 -0.2272  0.3302
 3323SOL    HW111410   0.128   1.834   9.934 -0.0866  0.5912  0.7153
 3323SOL    HW211411   0.069   1.804  10.070 -1.4024  3.5418  0.8746
 3324SOL     OW11412   2.539   0.466   6.141  0.5195  0.3667  0.3923
 3324SOL    HW111413   2.462   0.493   6.091 -0.6486 -0.4667  1.6762
 3324SOL    HW211414   2.542   0.525   6.216  1.0178  0.2630  0.4609
 3325SOL     OW11415   6.779   0.846   3.986  0.0203 -0.3052 -0.3374
 3325SOL    HW111416   6.842   0.914   3.963  0.7526 -0.3499  1.3938
 3325SOL    HW211417   6.696   0.892   3.997 -0.0569 -0.0920 -1.5932
 3326SOL     OW11418   3.668   5.696   1.151  0.3506 -0.1388  0.3671
 3326SOL    HW111419   3.644   5.603   1.148  1.2534 -0.3706  0.0422
 3326SOL    HW211420   3.595   5.738   1.197  1.3903 -1.4850  3.5414
 3327SOL     OW11421   7.156   2.414   5.465  0.2065 -0.5398  0.2408
 3327SOL    HW111422   7.065   2.409   5.494  0.8992 -2.6106  2.3128
 3327SOL    HW211423   7.169   2.334   5.415  1.3711 -1.2330  1.5937
 3328SOL     OW11424   4.940   4.458  11.897 -0.1127  0.0344  0.0807
 3328SOL    HW111425   4.889   4.410  11.832  1.1464 -1.3842  0.0901
 3328SOL    HW211426   4.984   4.391  11.948 -0.6591  1.1140  2.1230
 3329SOL     OW11427   5.654   7.101  10.023 -0.0582  0.0390  0.5367
 3329SOL    HW111428   5.589   7.171  10.027 -0.4040 -0.1527 -1.1032
 3329SOL    HW211429   5.678   7.096   9.931  0.0957 -1.8781  0.6401
 3330SOL     OW11430   5.832   0.705   5.358  0.3917 -0.2003  0.0992
 3330SOL    HW111431   5.895   0.732   5.425  0.1519  2.0001 -0.4871
 3330SOL    HW211432   5.800   0.620   5.389 -0.8969  1.3597  3.6745
 3331SOL     OW11433   0.474   5.212   5.662 -0.7595 -0.0762 -0.0739
 3331SOL    HW111434   0.534   5.222   5.736 -1.8167 -1.5164  1.0386
 3331SOL    HW211435   0.527   5.172   5.593  0.0143  0.4428  0.2081
 3332SOL     OW11436   7.425   7.123   5.778 -0.1809 -0.1290 -0.0997
 3332SOL    HW111437   7.338   7.095   5.750 -0.4820  0.1951  0.4854
 3332SOL    HW211438   7.473   7.041   5.793 -1.4258 -0.4815  2.7900
 3333SOL     OW11439   3.152   3.051   0.437 -0.1724 -0.0644  0.4050
 3333SOL    HW111440   3.221   2.992   0.409  0.1866  0.5438 -0.0152
 3333SOL    HW211441   3.166   3.131   0.385 -0.9696  0.1916  0.5700
 3334SOL     OW11442   0.776   7.628  10.269 -0.4344 -0.5054  0.1181
 3334SOL    HW111443   0.784   7.703  10.210  0.0101 -0.0502  0.7466
 3334SOL    HW211444   0.684   7.627  10.294 -0.8007 -1.1438 -1.1349
 3335SOL     OW11445   0.019   4.424   4.252  0.3787 -0.2316 -0.3570
 3335SOL    HW111446   0.070   4.366   4.309 -1.0552 -1.0262  0.1914
 3335SOL    HW211447  -0.018   4.366   4.186 -0.0670  0.2609 -0.5470
 3336SOL     OW11448   6.560   0.495   3.523  0.0619  0.5370 -0.7657
 3336SOL    HW111449   6.631   0.439   3.492  0.3488 -0.1030  0.9632
 3336SOL    HW211450   6.538   0.549   3.447  0.5009 -1.1666 -2.1703
 3337SOL     OW11451   5.337   5.265   4.505  0.5917  0.7542 -0.1016
 3337SOL    HW111452   5.343   5.335   4.439  0.5457  0.8970  0.0458
 3337SOL    HW211453   5.320   5.311   4.587 -0.2636  0.5081 -0.1400
 3338SOL     OW11454   6.758   6.429   6.703  0.0223  0.4375 -0.1797
 3338SOL    HW111455   6.796   6.492   6.641  1.0465 -1.3556 -1.4379
 3338SOL    HW211456   6.663   6.438   6.689  0.1928  0.9240 -1.1220
 3339SOL     OW11457   3.383   3.831   4.918 -0.5844 -0.3068  0.1261
 3339SOL    HW111458   3.465   3.826   4.868 -0.4357 -0.8106  0.4092
 3339SOL    HW211459   3.384   3.752   4.972 -1.6139 -0.7059 -0.4087
 3340SOL     OW11460   5.374   1.371   4.078  0.4933  0.6272 -0.0649
 3340SOL    HW111461   5.296   1.317   4.063  0.7025 -0.1849  1.6124
 3340SOL    HW211462   5.383   1.422   3.997 -1.9161  0.9423 -0.2083
 3341SOL     OW11463   5.085   0.260   1.613  0.1755 -0.1919  0.1772
 3341SOL    HW111464   5.098   0.166   1.625  0.2314 -0.2525 -0.3124
 3341SOL    HW211465   5.045   0.268   1.526  0.1710  0.2353  0.2146
 3342SOL     OW11466   7.068   1.587   9.700  0.2449  0.3658 -0.3778
 3342SOL    HW111467   7.100   1.568   9.612  0.8935  1.0801 -0.3085
 3342SOL    HW211468   7.135   1.550   9.759 -1.1661 -1.9550 -0.0880
 3343SOL     OW11469   5.234   1.188   3.369 -0.3483 -0.2488 -0.2019
 3343SOL    HW111470   5.280   1.105   3.383 -0.4441 -0.5091 -1.3444
 3343SOL    HW211471   5.297   1.242   3.321 -0.6769 -0.0567 -0.4166
 3344SOL     OW11472   3.472   6.313   8.906  0.1342 -0.0345  0.6950
 3344SOL    HW111473   3.386   6.282   8.876  0.5439  0.2675 -0.8652
 3344SOL    HW211474   3.465   6.409   8.904  0.2988 -0.0097  1.2069
 3345SOL     OW11475   7.795   7.449   6.634  0.4920  0.8487  0.3992
 3345SOL    HW111476   7.767   7.358   6.624  2.2259  0.0259  2.3378
 3345SOL    HW211477   7.713   7.498   6.641 -0.4832 -0.5730 -0.3243
 3346SOL     OW11478   2.081   1.783   3.085 -0.3505 -1.0135 -0.0595
 3346SOL    HW111479   2.161   1.816   3.043 -1.2072  0.4588 -0.6166
 3346SOL    HW211480   2.107   1.699   3.124  2.3700  0.9657  2.8072
 3347SOL     OW11481   0.401   4.539   3.423 -0.0095  0.1192 -0.1332
 3347SOL    HW111482   0.317   4.576   3.448  0.5065  1.5896 -0.4640
 3347SOL    HW211483   0.411   4.461   3.477 -1.7271 -0.2602 -0.3317
 3348SOL     OW11484   4.864   7.357   2.857  0.3237  0.1488 -0.0336
 3348SOL    HW111485   4.905   7.404   2.785 -0.2066  1.8483  0.7258
 3348SOL    HW211486   4.791   7.309   2.817  0.9366 -0.1413 -0.8313
 3349SOL     OW11487   1.417   2.086   9.154 -0.3744 -0.2453  0.0253
 3349SOL    HW111488   1.496   2.094   9.100 -2.5117  2.5335 -3.1395
 3349SOL    HW211489   1.365   2.019   9.111 -0.0671 -1.6709  1.7667
 3350SOL     OW11490   4.686   4.379   4.327 -0.5214  0.0915 -0.1782
 3350SOL    HW111491   4.740   4.439   4.275  0.8378 -1.4920 -0.7004
 3350SOL    HW211492   4.711   4.397   4.418  0.0045  0.2002 -0.3415
 3351SOL     OW11493   4.026   0.672   2.674  0.1241 -0.1672  0.2085
 3351SOL    HW111494   4.059   0.721   2.598 -0.7689 -0.9227 -0.6923
 3351SOL    HW211495   4.105   0.640   2.717  0.6434 -1.1960 -1.4064
 3352SOL     OW11496   7.945   4.845   5.051  0.1685  1.0054  0.6922
 3352SOL    HW111497   7.962   4.871   4.960 -0.3734 -0.4858  0.1255
 3352SOL    HW211498   7.981   4.916   5.103  1.3937  1.4430 -0.6609
 3353SOL     OW11499   1.867   3.503   1.998  0.5848 -0.1643  0.4108
 3353SOL    HW111500   1.880   3.544   1.912  0.8274 -2.7918 -0.9437
 3353SOL    HW211501   1.784   3.456   1.990  0.3717 -0.0675  1.8019
 3354SOL     OW11502   2.374   2.722   6.636  0.2624  0.4230  0.1405
 3354SOL    HW111503   2.281   2.739   6.623  0.7169  3.4414  0.1909
 3354SOL    HW211504   2.387   2.733   6.731  0.9266  1.7062 -0.0843
 3355SOL     OW11505   6.601   0.734  12.326  0.3308  0.4700 -0.0605
 3355SOL    HW111506   6.522   0.752  12.276 -0.6826  0.9388  1.6415
 3355SOL    HW211507   6.633   0.650  12.291 -0.5855  0.5510 -1.1401
 3356SOL     OW11508   6.401   4.317  11.236 -0.1550  0.8260  0.6167
 3356SOL    HW111509   6.386   4.375  11.161 -1.1021  0.0444  0.1696
 3356SOL    HW211510   6.385   4.372  11.312 -0.4822  1.3001  0.2139
 3357SOL     OW11511   1.648   7.442   2.837 -0.1993 -0.3162  0.5601
 3357SOL    HW111512   1.598   7.478   2.910  0.6006 -0.0879  1.0121
 3357SOL    HW211513   1.588   7.445   2.763 -0.5352  0.8777  0.8618
 3358SOL     OW11514   6.704   3.712   7.124  0.0071 -0.0043 -0.0969
 3358SOL    HW111515   6.752   3.792   7.107  0.6705 -0.6603 -1.5101
 3358SOL    HW211516   6.669   3.686   7.039  0.3353 -1.5394  0.1999
 3359SOL     OW11517   2.646   1.159   7.868  0.1343 -0.5155  0.2188
 3359SOL    HW111518   2.664   1.126   7.955 -2.1630 -3.7397 -0.3523
 3359SOL    HW211519   2.732   1.164   7.826  1.0058 -1.7291  1.7588
 3360SOL     OW11520   1.787   4.503  11.218  0.3765 -0.2425 -0.2336
 3360SOL    HW111521   1.871   4.466  11.245  0.2294 -1.7135 -1.6207
 3360SOL    HW211522   1.791   4.502  11.122 -0.8001  0.7201 -0.3117
 3361SOL     OW11523   5.013   6.372   4.832 -0.2317  0.1431 -0.3512
 3361SOL    HW111524   5.030   6.392   4.924 -0.7867  0.1859 -0.2490
 3361SOL    HW211525   4.918   6.359   4.828 -0.7283  3.1783 -1.4883
 3362SOL     OW11526   7.290   2.904   8.410 -0.2601 -0.4742  0.0601
 3362SOL    HW111527   7.253   2.871   8.492  0.4420 -0.5006  0.3691
 3362SOL    HW211528   7.246   2.852   8.342 -1.4294  0.0795  0.3540
 3363SOL     OW11529   2.136   7.309   6.564 -0.2876  0.3287  0.1420
 3363SOL    HW111530   2.125   7.359   6.483  1.0165 -0.2040 -0.3924
 3363SOL    HW211531   2.202   7.358   6.613  1.1780 -0.9388 -0.4893
 3364SOL     OW11532   3.288   1.335   3.947 -0.2280 -0.4907 -0.4611
 3364SOL    HW111533   3.284   1.339   3.851 -1.6966  1.7567 -0.3776
 3364SOL    HW211534   3.341   1.410   3.972  1.3559 -1.8526  0.5162
 3365SOL     OW11535   1.004   2.880  10.517  0.3279 -0.6514  0.1492
 3365SOL    HW111536   1.034   2.970  10.506 -2.4647  0.3826  0.1534
 3365SOL    HW211537   1.072   2.837  10.568  1.6668  1.4732  0.2512
 3366SOL     OW11538   7.206   2.665   3.933 -0.1804 -0.1516 -0.0312
 3366SOL    HW111539   7.270   2.695   3.867 -0.2715 -1.1655 -0.5989
 3366SOL    HW211540   7.254   2.667   4.016  0.0257  0.8541 -0.1615
 3367SOL     OW11541   7.551   1.691   1.940 -0.2390  0.3720 -0.0112
 3367SOL    HW111542   7.466   1.725   1.915 -1.1374 -2.7132 -1.7607
 3367SOL    HW211543   7.533   1.604   1.976  2.1482 -0.5454 -0.7680
 3368SOL     OW11544   0.454   7.484   3.009 -0.1303  0.2001 -0.1298
 3368SOL    HW111545   0.505   7.518   2.935  0.2913  1.0568  0.5304
 3368SOL    HW211546   0.393   7.554   3.031 -0.3939 -0.1273  0.2009
 3369SOL     OW11547   7.570   2.934   9.092 -0.1669 -0.2298  0.0043
 3369SOL    HW111548   7.556   2.916   8.999 -0.4061  0.9089 -0.1934
 3369SOL    HW211549   7.598   3.025   9.095 -1.9043  0.3199  1.1916
 3370SOL     OW11550   6.801   1.731   6.945  0.6148  0.0636 -0.0472
 3370SOL    HW111551   6.706   1.724   6.936  0.5635 -0.0597  0.5579
 3370SOL    HW211552   6.823   1.816   6.907  0.0865  0.7078  1.0362
 3371SOL     OW11553   7.775   1.001   9.583  0.5143 -0.1839  0.8876
 3371SOL    HW111554   7.695   1.052   9.597  1.4115  1.2108  1.1384
 3371SOL    HW211555   7.807   1.030   9.498 -0.2968 -2.2534 -0.1845
 3372SOL     OW11556   3.334   7.128   1.751  0.1512  0.7450  1.0929
 3372SOL    HW111557   3.285   7.182   1.813 -1.8239  0.4063 -0.0657
 3372SOL    HW211558   3.271   7.111   1.680  1.9656  0.2366 -0.4772
 3373SOL     OW11559   5.272   2.700   1.483 -0.1041 -0.0443 -0.0372
 3373SOL    HW111560   5.282   2.659   1.397  0.5721  2.4143 -1.2191
 3373SOL    HW211561   5.346   2.667   1.534  0.6504 -0.0163 -1.0773
 3374SOL     OW11562   3.006   6.007  12.184 -0.0030  0.2204 -0.2452
 3374SOL    HW111563   2.947   6.004  12.108 -2.4063 -0.0436  1.4989
 3374SOL    HW211564   3.074   6.069  12.159 -0.3489 -0.3140 -2.8304
 3375SOL     OW11565   3.159   7.200  12.310  0.3588 -0.1959  0.6562
 3375SOL    HW111566   3.200   7.167  12.230 -0.6891  0.1701 -0.0564
 3375SOL    HW211567   3.099   7.130  12.337 -0.1556  0.1626  0.4527
 3376SOL     OW11568   3.994   6.508  10.776 -0.4298 -0.0226  0.0944
 3376SOL    HW111569   4.024   6.583  10.725 -0.9238  0.6577  0.7866
 3376SOL    HW211570   3.985   6.541  10.865  0.5226 -1.2128  0.6634
 3377SOL     OW11571   7.346   2.722   9.190  0.5300  0.0592 -0.1833
 3377SOL    HW111572   7.253   2.700   9.180  0.3210  0.5923  0.5119
 3377SOL    HW211573   7.352   2.813   9.160  0.4999  0.5835  1.2960
 3378SOL     OW11574   7.976   1.671   7.332 -0.0410 -0.2884 -0.0481
 3378SOL    HW111575   8.045   1.666   7.265 -0.3541 -0.2462 -0.3774
 3378SOL    HW211576   7.932   1.754   7.314 -0.2090 -0.3382  0.1357
 3379SOL     OW11577   1.388   4.787   8.816 -0.1177  0.2437  0.4128
 3379SOL    HW111578   1.427   4.790   8.729  0.4104  0.8362  0.6640
 3379SOL    HW211579   1.296   4.809   8.802 -0.1921 -0.3570 -0.0787
 3380SOL     OW11580   2.843   6.444   0.771  0.0501 -0.0163 -0.1825
 3380SOL    HW111581   2.788   6.521   0.760 -1.7823 -1.0852  0.8863
 3380SOL    HW211582   2.877   6.452   0.860  1.7044  0.6427 -0.8407
 3381SOL     OW11583   5.071   1.927   6.857  0.2072 -0.1945  0.3787
 3381SOL    HW111584   5.031   1.987   6.793  0.1153 -2.5646 -1.9750
 3381SOL    HW211585   5.077   1.843   6.810  4.3360 -1.0106  1.9594
 3382SOL     OW11586   2.015   2.901   4.360  0.2475  0.1897  0.3612
 3382SOL    HW111587   2.022   2.840   4.287 -0.7412  1.0747 -0.5160
 3382SOL    HW211588   2.067   2.861   4.430  0.1567 -1.3127 -0.3872
 3383SOL     OW11589   6.698   2.763   2.066  0.0646  0.1396  0.3131
 3383SOL    HW111590   6.690   2.784   1.973  2.3916 -2.0945 -0.5336
 3383SOL    HW211591   6.674   2.843   2.111 -2.6246  0.8552 -2.1097
 3384SOL     OW11592   0.677   7.466   0.827 -0.1198  0.1233 -0.2862
 3384SOL    HW111593   0.679   7.383   0.778  0.2252  0.5768 -1.0616
 3384SOL    HW211594   0.760   7.508   0.807 -0.8822  1.3181 -1.0907
 3385SOL     OW11595   4.128   3.843   3.694 -0.8201 -0.3459 -0.0847
 3385SOL    HW111596   4.076   3.923   3.696  0.0451  0.2102  0.7713
 3385SOL    HW211597   4.219   3.872   3.688 -0.5327 -1.2853 -0.6009
 3386SOL     OW11598   2.745   5.661  10.096  0.2387  0.4388 -0.1967
 3386SOL    HW111599   2.732   5.739  10.150  1.1849 -0.2814  1.1230
 3386SOL    HW211600   2.803   5.605  10.148  0.6292 -0.5878 -1.6793
 3387SOL     OW11601   4.699   4.515   1.201  0.4161  0.2104 -0.1622
 3387SOL    HW111602   4.697   4.439   1.259 -1.0396  0.5837  0.3085
 3387SOL    HW211603   4.667   4.483   1.117 -0.6094  0.3834  0.1537
 3388SOL     OW11604   3.511   3.096   3.460 -0.6340 -0.0356 -0.7799
 3388SOL    HW111605   3.567   3.029   3.420 -0.5958 -0.2982 -0.2923
 3388SOL    HW211606   3.566   3.138   3.526 -1.2851 -0.9761  0.4160
 3389SOL     OW11607   1.378   4.937   0.625 -0.1264  0.1584  0.4777
 3389SOL    HW111608   1.352   4.865   0.568 -2.6066  1.5589 -0.2883
 3389SOL    HW211609   1.353   4.908   0.713 -0.5703 -0.1500  0.2536
 3390SOL     OW11610   1.064   1.895   4.122  0.2033 -0.1213 -0.2963
 3390SOL    HW111611   1.013   1.892   4.203  1.4760  1.1787  0.5939
 3390SOL    HW211612   1.057   1.806   4.087 -1.7249 -0.2812  0.3487
 3391SOL     OW11613   2.761   5.958   5.215  0.0641 -0.5696 -0.4624
 3391SOL    HW111614   2.673   5.968   5.251 -0.2694 -0.1927 -1.3394
 3391SOL    HW211615   2.795   5.880   5.257  0.0971  0.4098  1.4127
 3392SOL     OW11616   5.273   5.153  12.332  0.1922 -0.1765  0.4600
 3392SOL    HW111617   5.328   5.090  12.286  0.8720  0.3929  0.4701
 3392SOL    HW211618   5.258   5.113  12.418  1.3951  0.0627  0.8131
 3393SOL     OW11619   6.083   2.073   3.229  0.2869  0.4573  0.3363
 3393SOL    HW111620   6.176   2.054   3.222  0.2920  0.0605  1.3149
 3393SOL    HW211621   6.073   2.159   3.188  0.8069 -0.1492 -1.1529
 3394SOL     OW11622   5.353   1.576  12.437  0.7000 -0.2579  0.1215
 3394SOL    HW111623   5.437   1.590  12.479  0.2951  1.8704  0.3297
 3394SOL    HW211624   5.342   1.650  12.377 -0.0970 -1.6146 -1.5240
 3395SOL     OW11625   5.731   6.570   0.248 -0.1198  0.4760  0.1763
 3395SOL    HW111626   5.754   6.648   0.199  0.8684 -0.5369 -1.0244
 3395SOL    HW211627   5.793   6.503   0.219 -0.7095 -0.6761  1.4246
 3396SOL     OW11628   7.965   3.419   4.745  0.2650  0.2498  0.2376
 3396SOL    HW111629   8.049   3.438   4.703 -0.4142  0.2402 -1.1674
 3396SOL    HW211630   7.978   3.334   4.786  0.9760  0.3000  0.1303
 3397SOL     OW11631   4.563   7.770   4.121 -0.4004 -0.8845 -0.0474
 3397SOL    HW111632   4.591   7.799   4.035 -0.0143  0.5230  0.5140
 3397SOL    HW211633   4.469   7.788   4.123 -0.4213 -0.9803 -0.2095
 3398SOL     OW11634   3.018   7.156   8.038 -0.5509  0.3238 -0.1737
 3398SOL    HW111635   2.970   7.081   8.073 -0.1912  1.1419  2.2803
 3398SOL    HW211636   3.040   7.131   7.948 -1.2106 -2.1178  0.2733
 3399SOL     OW11637   6.950   4.019   9.521  0.4193  0.3756 -0.4560
 3399SOL    HW111638   6.948   4.007   9.616  1.6120 -0.3731 -0.5020
 3399SOL    HW211639   6.990   3.939   9.488  0.8888  1.0310 -1.5070
 3400SOL     OW11640   2.358   7.959   8.243  0.1351  0.0706  0.0416
 3400SOL    HW111641   2.380   7.908   8.165  0.9912  0.5647 -0.0588
 3400SOL    HW211642   2.435   8.015   8.257 -1.5840  2.9369 -1.1161
 3401SOL     OW11643   6.242   7.717   2.611 -0.1448 -0.3841 -0.2205
 3401SOL    HW111644   6.224   7.811   2.605  0.3291 -0.1356  1.7010
 3401SOL    HW211645   6.254   7.690   2.520  0.4233  1.5544 -0.7803
 3402SOL     OW11646   1.628   2.066  10.521 -0.3174  0.1391  0.2422
 3402SOL    HW111647   1.551   2.101  10.477  0.2587  0.1102 -0.8144
 3402SOL    HW211648   1.609   2.077  10.614 -0.8402  1.7580 -0.0260
 3403SOL     OW11649   6.481   1.016   2.732 -0.0278 -0.0081 -0.8839
 3403SOL    HW111650   6.461   0.943   2.792 -0.5659  1.2744  0.5851
 3403SOL    HW211651   6.557   1.058   2.770  1.5156 -0.8995 -2.8125
 3404SOL     OW11652   4.767   1.655   5.681  0.0996 -0.0579  0.0236
 3404SOL    HW111653   4.855   1.618   5.681  1.2163  1.9189 -4.6211
 3404SOL    HW211654   4.779   1.749   5.694 -1.5489  0.1100  0.7078
 3405SOL     OW11655   3.969   0.747   1.585  0.2359 -0.1529  0.1821
 3405SOL    HW111656   4.045   0.726   1.639  2.9616 -1.6559 -3.7581
 3405SOL    HW211657   3.912   0.671   1.593  0.2639 -0.0669  1.3414
 3406SOL     OW11658   5.887   3.630   0.527  0.4073  0.2322  0.6637
 3406SOL    HW111659   5.854   3.705   0.477  0.2032 -0.2755  0.0169
 3406SOL    HW211660   5.979   3.623   0.502  0.8019  1.1092  1.7945
 3407SOL     OW11661   4.873   0.679   6.112  0.0465  0.5099 -0.2727
 3407SOL    HW111662   4.917   0.656   6.030  0.4327  1.7389 -0.4204
 3407SOL    HW211663   4.780   0.685   6.088  0.2397  1.5826 -0.7992
 3408SOL     OW11664   2.458   4.451   6.897  0.3652  0.0800  0.1872
 3408SOL    HW111665   2.469   4.366   6.854  1.1825 -0.2627  1.0625
 3408SOL    HW211666   2.480   4.515   6.829  1.7197 -0.4551  0.1070
 3409SOL     OW11667   1.136   2.514   1.670  0.1071  0.0756  0.3172
 3409SOL    HW111668   1.192   2.454   1.621 -0.5850 -1.0432  0.8633
 3409SOL    HW211669   1.056   2.521   1.617  0.1060  0.3618  0.3544
 3410SOL     OW11670   7.873   0.975   0.571  0.7595 -0.3257 -0.5409
 3410SOL    HW111671   7.885   0.970   0.477  0.7893  0.8814 -0.6094
 3410SOL    HW211672   7.841   0.888   0.596  0.5611 -0.5875 -1.6867
 3411SOL     OW11673   4.227   5.080   3.124 -0.4732 -0.1885 -0.2305
 3411SOL    HW111674   4.245   4.985   3.125 -0.9462 -0.3399 -1.9259
 3411SOL    HW211675   4.174   5.093   3.045 -3.1984  1.0360  1.6490
 3412SOL     OW11676   1.134   6.465   6.006  0.1168 -0.2316 -0.2210
 3412SOL    HW111677   1.162   6.394   5.948 -1.0857 -0.9074 -0.0081
 3412SOL    HW211678   1.181   6.449   6.088  0.5704 -0.2179 -0.4735
 3413SOL     OW11679   1.816   5.680   0.310 -0.8144 -0.4413  0.3711
 3413SOL    HW111680   1.721   5.676   0.309 -0.7926 -2.2387  1.6159
 3413SOL    HW211681   1.836   5.771   0.332 -2.2010  0.2296 -0.9817
 3414SOL     OW11682   0.788   3.388   4.250 -0.1872  0.3885 -0.1650
 3414SOL    HW111683   0.779   3.293   4.258  0.5990  0.3353  0.1133
 3414SOL    HW211684   0.856   3.401   4.185 -0.5386  0.7693 -0.4625
 3415SOL     OW11685   6.757   2.916  10.762 -0.5949 -0.5033 -0.2886
 3415SOL    HW111686   6.822   2.905  10.831  0.8492  1.6656 -1.1939
 3415SOL    HW211687   6.676   2.881  10.799  0.6634 -1.6739  1.5312
 3416SOL     OW11688   0.166   4.869  11.884 -0.2537  0.2646  0.0594
 3416SOL    HW111689   0.252   4.848  11.845  0.5285  1.0958  1.2682
 3416SOL    HW211690   0.183   4.948  11.936 -1.2309 -0.8686  2.1715
 3417SOL     OW11691   6.892   3.748   3.672 -0.3423  0.2806 -0.0742
 3417SOL    HW111692   6.954   3.737   3.600  0.8091  2.1395  0.5438
 3417SOL    HW211693   6.862   3.839   3.664  0.0499  0.6443  1.9127
 3418SOL     OW11694   5.719   2.559   4.212  0.4989 -0.5376  0.1426
 3418SOL    HW111695   5.632   2.557   4.251  0.4100  1.4631  0.1973
 3418SOL    HW211696   5.772   2.607   4.276  1.2066 -0.2569 -0.6365
 3419SOL     OW11697   7.129   5.870   5.415 -0.2647  0.4610  0.3774
 3419SOL    HW111698   7.159   5.879   5.324  1.1089  0.1869  0.7821
 3419SOL    HW211699   7.082   5.951   5.432 -1.2223  0.1839 -0.8179
 3420SOL     OW11700   1.125   2.176   1.816 -0.7548 -0.3631 -0.0059
 3420SOL    HW111701   1.071   2.219   1.882 -1.8341  0.6160 -1.4712
 3420SOL    HW211702   1.071   2.104   1.783 -0.8151  0.0357 -0.8089
 3421SOL     OW11703   5.179   1.341  10.946  0.0165  0.7134 -0.6389
 3421SOL    HW111704   5.165   1.306  10.858 -1.7857 -1.1456  0.2892
 3421SOL    HW211705   5.147   1.431  10.942 -1.5246  0.1744 -1.5542
 3422SOL     OW11706   1.738   7.327   2.249 -0.0353  0.9581 -0.7034
 3422SOL    HW111707   1.778   7.243   2.272 -1.9856  0.4455  1.1156
 3422SOL    HW211708   1.813   7.385   2.234  1.4150 -0.3370  1.0000
 3423SOL     OW11709   5.537   6.945   2.347  0.2753  0.8908  0.1200
 3423SOL    HW111710   5.570   6.860   2.318  0.1857  1.0217 -0.3614
 3423SOL    HW211711   5.461   6.962   2.291 -0.4725  0.7081  1.0471
 3424SOL     OW11712   6.951   2.179   3.571  0.3338  0.3910  0.1864
 3424SOL    HW111713   6.960   2.084   3.579  2.6378  0.5663  0.1700
 3424SOL    HW211714   7.033   2.209   3.532 -0.5009  2.3704 -0.2228
 3425SOL     OW11715   6.045   0.255   7.888  0.7347  0.1583  0.4003
 3425SOL    HW111716   6.056   0.286   7.798  1.9127  0.6178  0.6932
 3425SOL    HW211717   5.982   0.183   7.880  1.1720 -0.1177 -0.8584
 3426SOL     OW11718   7.260   1.008   4.215 -0.1534 -0.2179  0.3300
 3426SOL    HW111719   7.228   1.096   4.231  0.0137 -0.0594 -0.1974
 3426SOL    HW211720   7.181   0.956   4.199 -0.2226 -0.0794  0.2228
 3427SOL     OW11721   3.874   6.464   5.710 -0.1388 -0.4355  0.2486
 3427SOL    HW111722   3.944   6.518   5.673 -0.5916 -0.0557 -0.0719
 3427SOL    HW211723   3.869   6.492   5.802 -0.3626  0.0650  0.0873
 3428SOL     OW11724   4.943   3.378  12.213 -0.5586  0.3282  0.2480
 3428SOL    HW111725   4.988   3.332  12.142 -1.3223 -0.9308  0.5414
 3428SOL    HW211726   4.961   3.470  12.197  0.2483 -0.0042 -0.9136
 3429SOL     OW11727   4.195   1.549   5.051 -0.5608  0.1880  0.5456
 3429SOL    HW111728   4.257   1.557   5.124  0.7636  0.5849 -0.5664
 3429SOL    HW211729   4.110   1.537   5.093  0.3061 -0.8734  2.1526
 3430SOL     OW11730   2.144   6.580   7.309 -0.5367  0.0121 -0.3138
 3430SOL    HW111731   2.096   6.662   7.304 -0.7288  0.0196  1.0439
 3430SOL    HW211732   2.103   6.523   7.244 -2.7054 -0.1068  1.0550
 3431SOL     OW11733   1.137   2.151   5.561  0.5864  0.5389  0.0984
 3431SOL    HW111734   1.196   2.089   5.602  1.2926  1.2564  0.2016
 3431SOL    HW211735   1.134   2.124   5.469  1.7044  0.9503 -0.0756
 3432SOL     OW11736   0.125   3.300  10.651  0.0397 -0.0360 -0.3708
 3432SOL    HW111737   0.077   3.342  10.579  1.0238 -0.5995 -1.3872
 3432SOL    HW211738   0.207   3.348  10.657  0.2413 -0.4162 -0.0613
 3433SOL     OW11739   7.940   2.864  10.233  0.2579 -0.4226 -0.2236
 3433SOL    HW111740   7.898   2.783  10.203 -0.7627  0.2377 -0.6292
 3433SOL    HW211741   8.033   2.848  10.219  0.4014 -2.6484  2.4011
 3434SOL     OW11742   0.697   7.588   7.609  0.1355  0.4380 -0.3751
 3434SOL    HW111743   0.675   7.580   7.517 -0.9551 -0.5433 -0.0537
 3434SOL    HW211744   0.629   7.644   7.646 -0.9598 -1.2311  0.2935
 3435SOL     OW11745   3.284   3.643   0.063 -0.2371 -0.1009  0.7832
 3435SOL    HW111746   3.239   3.613  -0.016 -0.5808  1.1537  0.4832
 3435SOL    HW211747   3.221   3.628   0.133 -0.7161  0.6224  0.5212
 3436SOL     OW11748   4.811   7.644   2.243 -0.0482 -0.2461  0.4979
 3436SOL    HW111749   4.780   7.553   2.233 -0.4385  0.0570 -1.4777
 3436SOL    HW211750   4.731   7.696   2.252  0.1712 -0.0484  1.4880
 3437SOL     OW11751   1.820   7.019   5.990  0.3126  0.5621  0.3919
 3437SOL    HW111752   1.855   7.098   6.032  1.5147  0.6978 -0.7811
 3437SOL    HW211753   1.888   6.993   5.928 -1.0100 -0.1297 -0.8318
 3438SOL     OW11754   6.566   0.274   4.126  0.5378  0.3989  0.4379
 3438SOL    HW111755   6.474   0.254   4.141  0.9427 -1.3373  0.8161
 3438SOL    HW211756   6.592   0.326   4.202 -0.3068  1.6180 -0.0752
 3439SOL     OW11757   6.141   3.687   3.788  0.2009  0.0810  0.1911
 3439SOL    HW111758   6.209   3.640   3.741 -0.3890 -0.7584  0.1450
 3439SOL    HW211759   6.116   3.628   3.859 -1.8794 -0.5494 -0.9858
 3440SOL     OW11760   0.026   5.402   8.111  0.1913  0.4812 -0.0148
 3440SOL    HW111761   0.030   5.406   8.206  0.9670  0.5879 -0.0479
 3440SOL    HW211762   0.037   5.310   8.089 -1.8068  0.1791  0.0607
 3441SOL     OW11763   0.555   1.769  11.453  0.0958 -0.2531  0.1986
 3441SOL    HW111764   0.563   1.674  11.467 -2.0954 -0.5533 -0.2879
 3441SOL    HW211765   0.584   1.782  11.363 -0.6664 -0.6456 -0.1119
 3442SOL     OW11766   1.965   4.072   8.007 -0.4187  0.0426  0.5605
 3442SOL    HW111767   2.044   4.058   8.060 -0.3429  0.3346  0.5258
 3442SOL    HW211768   1.897   4.024   8.053 -0.2361 -0.1518  0.6314
 3443SOL     OW11769   2.451   3.281   5.611  0.2786 -0.4062 -0.2466
 3443SOL    HW111770   2.366   3.271   5.569  0.2732 -2.1887  0.1036
 3443SOL    HW211771   2.505   3.327   5.547 -0.8131  0.3577 -0.6425
 3444SOL     OW11772   4.013   2.974  11.699  0.4392  0.0192 -0.0415
 3444SOL    HW111773   4.048   2.961  11.611  1.6105 -0.4889  0.4701
 3444SOL    HW211774   3.991   3.067  11.703  0.3592  0.0428 -0.8701
 3445SOL     OW11775   7.280   7.315   3.317  0.5620 -0.0961  0.5871
 3445SOL    HW111776   7.305   7.226   3.340  3.4678  0.3435 -0.4895
 3445SOL    HW211777   7.238   7.306   3.231  3.7251 -0.2596 -1.0989
 3446SOL     OW11778   3.927   1.868   8.264 -0.6086 -0.4779 -0.0210
 3446SOL    HW111779   4.011   1.908   8.242 -0.5258  0.2279  1.4387
 3446SOL    HW211780   3.895   1.833   8.181  0.2777  0.8161 -0.9627
 3447SOL     OW11781   1.818   6.374   7.703 -0.9187 -0.3513 -0.3787
 3447SOL    HW111782   1.822   6.352   7.610  0.1611 -0.5616 -0.3004
 3447SOL    HW211783   1.903   6.415   7.721 -0.4912 -1.6901  0.8567
 3448SOL     OW11784   4.520   5.552   5.187 -0.9134  0.2529  0.3456
 3448SOL    HW111785   4.539   5.534   5.278  0.1079  0.1176  0.1092
 3448SOL    HW211786   4.527   5.467   5.143 -1.2812  0.3374  0.1200
 3449SOL     OW11787   4.221   3.385   3.564  0.3215  0.2302  0.5760
 3449SOL    HW111788   4.308   3.426   3.566  0.4840 -0.0935  0.1754
 3449SOL    HW211789   4.177   3.428   3.490  0.6982 -0.7265 -0.2187
 3450SOL     OW11790   7.049   6.155   6.026  0.2326  0.1792 -0.2353
 3450SOL    HW111791   7.095   6.082   5.985 -0.2031  0.9031 -2.1227
 3450SOL    HW211792   7.041   6.130   6.118 -0.6681 -2.5245 -0.9575
 3451SOL     OW11793   5.434   7.759   2.089 -0.0446  0.3110 -0.0600
 3451SOL    HW111794   5.518   7.752   2.134 -0.2693 -1.4990  0.1652
 3451SOL    HW211795   5.428   7.851   2.063  0.7750  1.0977  2.2797
 3452SOL     OW11796   4.079   7.079   5.692 -0.2822  0.1733  0.0605
 3452SOL    HW111797   4.050   7.069   5.783  0.9594 -0.0084  0.4583
 3452SOL    HW211798   4.111   7.169   5.688 -0.9999  0.4145 -0.4079
 3453SOL     OW11799   5.513   4.280   8.684 -0.1230 -0.6816  0.2667
 3453SOL    HW111800   5.447   4.247   8.623  1.5078 -2.4709 -0.6355
 3453SOL    HW211801   5.501   4.375   8.683 -1.8013 -0.8614 -0.8734
 3454SOL     OW11802   4.498   7.913   7.673  0.1171 -0.5818 -0.0990
 3454SOL    HW111803   4.523   7.985   7.731 -0.8220  0.0086 -0.3872
 3454SOL    HW211804   4.440   7.858   7.726  1.0116 -1.2621  0.1891
 3455SOL     OW11805   0.953   4.786   9.089  0.4003  0.2651 -0.4147
 3455SOL    HW111806   0.893   4.763   9.160 -0.1329  1.8223 -0.3214
 3455SOL    HW211807   0.961   4.706   9.037  0.4813 -0.7834  1.1527
 3456SOL     OW11808   0.596   4.305   9.370 -0.0724  0.2074 -0.0395
 3456SOL    HW111809   0.566   4.220   9.401 -1.1031 -0.6886 -3.1062
 3456SOL    HW211810   0.529   4.367   9.398  0.7446  0.1459  2.3185
 3457SOL     OW11811   3.892   6.083  12.263  0.1045  0.0595 -0.3928
 3457SOL    HW111812   3.963   6.108  12.204  0.3620  0.1979 -0.0323
 3457SOL    HW211813   3.864   5.997  12.233 -0.6663  0.6786 -1.5449
 3458SOL     OW11814   7.635   0.010   8.654 -0.7116 -0.4049  0.3284
 3458SOL    HW111815   7.611  -0.081   8.638  0.5352 -0.4675 -1.5280
 3458SOL    HW211816   7.722   0.019   8.615 -1.6342  2.0829 -1.4708
 3459SOL     OW11817   1.842   0.551   0.369 -0.1414  0.2868  0.0539
 3459SOL    HW111818   1.826   0.456   0.362 -1.4028  0.4582  0.4109
 3459SOL    HW211819   1.932   0.558   0.400 -0.4995 -0.8363  1.4361
 3460SOL     OW11820   3.902   3.276   5.291 -0.1555 -0.3710 -0.3745
 3460SOL    HW111821   3.841   3.238   5.354 -0.0382 -1.1300 -0.7193
 3460SOL    HW211822   3.897   3.370   5.309  0.8205 -0.6455  1.6439
 3461SOL     OW11823   4.481   1.957   4.860 -0.4538 -0.5995  0.1309
 3461SOL    HW111824   4.454   1.957   4.951 -0.0473 -2.4180  0.2781
 3461SOL    HW211825   4.400   1.953   4.810 -0.6257 -0.8840  0.4378
 3462SOL     OW11826   0.000   0.838   1.606 -0.2539  0.4051  0.3768
 3462SOL    HW111827   0.094   0.853   1.597 -0.5420  2.0909 -0.1368
 3462SOL    HW211828  -0.013   0.822   1.699  0.8239 -2.2839  0.1400
 3463SOL     OW11829   0.854   4.760   9.629 -0.3051  0.2515  0.1681
 3463SOL    HW111830   0.799   4.682   9.629  2.8626 -2.1842  0.2858
 3463SOL    HW211831   0.810   4.821   9.570 -2.7126 -1.7657 -0.2615
 3464SOL     OW11832   3.986   5.604   5.296  0.2356 -0.1092  0.4276
 3464SOL    HW111833   3.897   5.570   5.284  0.0262  0.4717  0.2818
 3464SOL    HW211834   4.041   5.526   5.304 -0.3165 -0.4720  0.7498
 3465SOL     OW11835   4.809   7.758   5.206  0.1192 -0.1879  0.2097
 3465SOL    HW111836   4.771   7.731   5.289  0.1199 -1.0856 -0.0747
 3465SOL    HW211837   4.900   7.729   5.209  0.6922  1.5438  0.6950
 3466SOL     OW11838   1.112   2.440   4.661  0.2000 -0.0703  0.4087
 3466SOL    HW111839   1.117   2.483   4.576 -0.1093  0.0113  0.4308
 3466SOL    HW211840   1.029   2.470   4.698 -1.3143 -2.6127 -0.6332
 3467SOL     OW11841   2.130   4.733   7.789  0.5535  0.0821 -0.1290
 3467SOL    HW111842   2.139   4.696   7.701  0.7531 -3.2401  1.1217
 3467SOL    HW211843   2.215   4.772   7.809  0.3883  1.1868 -1.5102
 3468SOL     OW11844   5.114   2.175   1.680  0.2314 -0.2743  0.3211
 3468SOL    HW111845   5.161   2.239   1.627  0.5041  0.0915  0.9856
 3468SOL    HW211846   5.130   2.091   1.637  0.6821 -0.0207 -0.0099
 3469SOL     OW11847   4.874   5.566   2.303  0.6260 -0.3278  0.1685
 3469SOL    HW111848   4.831   5.576   2.219  0.4920  0.2015  0.2915
 3469SOL    HW211849   4.891   5.656   2.332  0.6106 -0.5001  0.7336
 3470SOL     OW11850   5.243   0.806   0.606 -0.3263 -0.5759 -1.2899
 3470SOL    HW111851   5.198   0.872   0.659 -0.3360 -0.7338 -1.1038
 3470SOL    HW211852   5.190   0.801   0.526  0.2112  0.3485 -1.7278
 3471SOL     OW11853   2.726   5.462   7.891 -0.5425 -0.2105  0.3912
 3471SOL    HW111854   2.657   5.498   7.835  1.7272  1.9258 -1.2132
 3471SOL    HW211855   2.802   5.517   7.875  1.5844 -2.3960  2.1520
 3472SOL     OW11856   6.027   5.770   1.599 -0.0962 -0.3246 -0.3897
 3472SOL    HW111857   6.062   5.681   1.606  0.8695  0.1656  1.4278
 3472SOL    HW211858   5.964   5.764   1.527  0.0264 -2.4403 -0.4030
 3473SOL     OW11859   5.057   0.280   3.383  0.2061 -0.1021 -0.4178
 3473SOL    HW111860   5.131   0.302   3.326 -0.5704 -1.7301 -2.1357
 3473SOL    HW211861   5.093   0.217   3.445  0.2501 -1.0177 -1.3556
 3474SOL     OW11862   6.411   6.920  12.263 -0.4640 -0.0053 -0.2847
 3474SOL    HW111863   6.444   6.920  12.353 -0.1606  0.2809 -0.3963
 3474SOL    HW211864   6.446   7.000  12.224  0.0999 -0.5493 -0.9181
 3475SOL     OW11865   5.848   2.070   6.024  0.1394 -0.0865 -0.0690
 3475SOL    HW111866   5.871   2.158   6.053  0.4001 -0.4957  1.0324
 3475SOL    HW211867   5.933   2.027   6.012  0.0107 -0.4908  0.4188
 3476SOL     OW11868   7.304   1.055   7.923 -0.3079  0.5068 -0.1801
 3476SOL    HW111869   7.392   1.029   7.897 -0.2672  1.8295 -1.5214
 3476SOL    HW211870   7.278   0.990   7.988  0.5227 -1.6483 -1.8478
 3477SOL     OW11871   7.533   3.320   5.749 -0.8935  0.2682 -0.6783
 3477SOL    HW111872   7.524   3.284   5.837  2.1550 -1.0778 -0.7776
 3477SOL    HW211873   7.520   3.245   5.691 -2.0635  0.9782 -1.3610
 3478SOL     OW11874   7.942   7.419   0.073  0.6399 -0.0516 -0.3311
 3478SOL    HW111875   8.019   7.363   0.068  0.5518 -0.1709 -0.3440
 3478SOL    HW211876   7.881   7.383   0.009  0.6713  0.1941 -0.5014
 3479SOL     OW11877   2.677   4.032   4.963  0.1801 -0.7189  0.0502
 3479SOL    HW111878   2.635   3.946   4.958  1.3853 -1.3613  0.5448
 3479SOL    HW211879   2.752   4.026   4.904 -1.4778  1.0843 -2.3889
 3480SOL     OW11880   7.456   6.660   2.910 -0.0152  0.2030 -0.1673
 3480SOL    HW111881   7.367   6.626   2.913  0.3562 -1.0222 -1.5914
 3480SOL    HW211882   7.511   6.584   2.891  1.5234  0.7008  1.9303
 3481SOL     OW11883   7.919   7.862   2.092  0.0027  0.0325  0.3335
 3481SOL    HW111884   7.984   7.800   2.061  0.5920  0.6454  0.3307
 3481SOL    HW211885   7.839   7.810   2.102  0.4369 -0.6799  0.1461
 3482SOL     OW11886   3.146   2.087  11.051  0.0475 -0.2785  0.3167
 3482SOL    HW111887   3.167   2.012  11.106  0.4990 -1.7682 -1.7994
 3482SOL    HW211888   3.176   2.063  10.964 -0.6085  2.0121 -0.6190
 3483SOL     OW11889   7.059   0.178   2.705 -0.9345  0.1612 -0.3711
 3483SOL    HW111890   6.983   0.172   2.763 -1.0513 -0.0767 -0.5499
 3483SOL    HW211891   7.066   0.271   2.686 -1.2043  0.1810 -0.3830
 3484SOL     OW11892   5.445   4.613   3.046  0.3500 -0.5885  0.2653
 3484SOL    HW111893   5.395   4.655   3.116  0.7767  0.0366  0.2025
 3484SOL    HW211894   5.430   4.519   3.058  0.3858 -0.4846  1.1733
 3485SOL     OW11895   4.277   4.941   1.162 -0.1386 -0.2356  0.5008
 3485SOL    HW111896   4.274   4.860   1.213 -0.3812  0.5688  1.8181
 3485SOL    HW211897   4.189   4.977   1.168  0.4288  1.0785  1.5947
 3486SOL     OW11898   5.493   0.574   6.631  0.4832  0.0984  0.3075
 3486SOL    HW111899   5.579   0.603   6.600  1.1338 -1.9252  0.0904
 3486SOL    HW211900   5.511   0.533   6.715 -0.1452 -1.0154 -0.0929
 3487SOL     OW11901   1.479   2.884   0.730 -0.1136  0.2123  0.4451
 3487SOL    HW111902   1.443   2.939   0.661  2.7919 -0.3260 -1.7047
 3487SOL    HW211903   1.414   2.815   0.743 -1.0400  0.6994 -1.2961
 3488SOL     OW11904   1.442   7.371   5.459 -0.2925  0.0710 -0.3439
 3488SOL    HW111905   1.508   7.306   5.482 -0.1296 -0.0598 -1.1553
 3488SOL    HW211906   1.479   7.454   5.490 -0.6979 -0.2549  1.0812
 3489SOL     OW11907   6.092   4.274  10.454 -0.3771 -0.2034 -0.2050
 3489SOL    HW111908   6.125   4.295  10.367 -2.0623  1.5377 -0.4750
 3489SOL    HW211909   5.997   4.282  10.448 -0.4875  1.1874  2.0553
 3490SOL     OW11910   1.948   6.502  12.399  0.2220 -0.7027  0.4374
 3490SOL    HW111911   2.008   6.464  12.335 -0.1276 -1.7129  0.7039
 3490SOL    HW211912   1.861   6.488  12.361  0.0917 -0.0716  0.4918
 3491SOL     OW11913   2.424   2.908   2.975 -0.1355 -0.2631  0.0246
 3491SOL    HW111914   2.446   2.967   2.903 -1.7751  0.4608  0.0689
 3491SOL    HW211915   2.501   2.909   3.031  0.0308  1.5819 -0.1717
 3492SOL     OW11916   0.404   7.966  11.987 -0.1730 -0.4802 -0.4488
 3492SOL    HW111917   0.469   8.036  11.982  0.6912 -1.2354 -0.1507
 3492SOL    HW211918   0.393   7.937  11.897 -0.3625 -0.1199 -0.5437
 3493SOL     OW11919   3.838   5.476   8.738 -0.6927  0.2173 -0.4312
 3493SOL    HW111920   3.768   5.465   8.674  0.2626 -3.3352 -1.0704
 3493SOL    HW211921   3.799   5.451   8.822 -0.4245 -1.2259 -0.7027
 3494SOL     OW11922   3.265   5.843   1.491  0.3280  0.1042 -0.5208
 3494SOL    HW111923   3.263   5.827   1.585  1.4565  1.5724 -0.2033
 3494SOL    HW211924   3.184   5.892   1.473  0.5592  0.6439 -0.1247
 3495SOL     OW11925   1.029   7.662   8.131 -1.2004  0.0330  0.7256
 3495SOL    HW111926   1.113   7.707   8.144 -1.2017  0.1820  0.2458
 3495SOL    HW211927   1.030   7.590   8.193 -0.1488 -0.7584 -0.1742
 3496SOL     OW11928   1.615   2.847   7.914 -0.4803  0.2803  0.0750
 3496SOL    HW111929   1.679   2.871   7.981 -1.5737  0.3174  1.1470
 3496SOL    HW211930   1.594   2.755   7.932 -2.5121  0.9121  1.3465
 3497SOL     OW11931   0.892   7.367   6.056  0.3956  0.5127 -0.3262
 3497SOL    HW111932   0.854   7.326   5.978  1.5968  1.2857 -1.3682
 3497SOL    HW211933   0.940   7.295   6.098 -1.0805 -0.1494  0.2867
 3498SOL     OW11934   4.112   6.741   1.361 -0.3785  0.4883 -0.0593
 3498SOL    HW111935   4.200   6.707   1.346 -0.4305 -0.6516  1.8907
 3498SOL    HW211936   4.119   6.790   1.443 -1.6536 -0.1464  0.4591
 3499SOL     OW11937   0.532   5.109   1.909 -0.0181 -0.2771  0.0126
 3499SOL    HW111938   0.456   5.163   1.888 -0.1172 -0.8573 -1.1762
 3499SOL    HW211939   0.603   5.172   1.923 -0.7677  0.2922  1.4981
 3500SOL     OW11940   7.081   7.873   7.794  0.3716 -0.5490 -0.1276
 3500SOL    HW111941   7.028   7.864   7.715  0.5137 -1.7316 -0.1110
 3500SOL    HW211942   7.118   7.786   7.807 -0.7559 -0.7847  2.0152
 3501SOL     OW11943   5.769   6.917   6.514  0.0103  0.2290  0.1850
 3501SOL    HW111944   5.840   6.973   6.484  1.3692 -1.4597  0.1142
 3501SOL    HW211945   5.792   6.895   6.604  0.2801 -1.3782 -0.2535
 3502SOL     OW11946   0.253   1.669  11.442 -0.4455 -0.1842 -0.0115
 3502SOL    HW111947   0.347   1.682  11.457 -0.2480 -0.3458 -1.0115
 3502SOL    HW211948   0.223   1.753  11.408 -0.5750 -0.2645 -0.0967
 3503SOL     OW11949   3.608   4.846   2.913  0.0725 -0.2087  0.2755
 3503SOL    HW111950   3.519   4.823   2.939  0.0651  0.2653  0.6831
 3503SOL    HW211951   3.613   4.941   2.925  0.9177 -0.3445  1.1561
 3504SOL     OW11952   0.576   2.874   5.484 -0.5317  0.1561 -0.2421
 3504SOL    HW111953   0.638   2.838   5.547  0.3210  2.3504  0.2500
 3504SOL    HW211954   0.534   2.946   5.530 -3.9310 -1.5312 -0.3681
 3505SOL     OW11955   5.272   7.063  11.363  0.7291 -0.5199 -0.2926
 3505SOL    HW111956   5.265   6.976  11.323  0.1870 -1.0109  0.8354
 3505SOL    HW211957   5.190   7.074  11.411  1.0950  0.3305  0.1628
 3506SOL     OW11958   1.250   7.947  10.104 -0.0631 -0.5166 -0.0824
 3506SOL    HW111959   1.166   7.956  10.150 -0.5472 -0.8968 -0.8803
 3506SOL    HW211960   1.245   7.862  10.061  0.8314 -0.6402  0.0492
 3507SOL     OW11961   5.886   4.445   6.329 -0.3952 -0.1156 -0.3732
 3507SOL    HW111962   5.806   4.412   6.288 -0.7682 -1.1853  1.1032
 3507SOL    HW211963   5.955   4.422   6.268 -0.6772 -3.4884  0.3529
 3508SOL     OW11964   1.596   1.335   8.835 -0.2846 -0.4037 -0.1621
 3508SOL    HW111965   1.515   1.292   8.809 -0.2283  0.5096 -2.0149
 3508SOL    HW211966   1.583   1.427   8.810  1.2317 -0.2023 -0.2999
 3509SOL     OW11967   4.802   7.284   1.116  0.1637 -0.0051 -0.0315
 3509SOL    HW111968   4.841   7.356   1.068 -2.1362  0.0854 -1.9569
 3509SOL    HW211969   4.727   7.323   1.162  1.1999 -0.4696  2.2141
 3510SOL     OW11970   1.261   7.377   5.224 -0.1804 -0.0077  0.3574
 3510SOL    HW111971   1.269   7.473   5.229  0.6048 -0.0757  0.5353
 3510SOL    HW211972   1.310   7.345   5.299  1.6182 -0.6271 -1.0009
 3511SOL     OW11973   6.220   5.061   9.412  0.5037  0.2713  0.3490
 3511SOL    HW111974   6.283   5.029   9.347  0.1175 -1.5491  0.8179
 3511SOL    HW211975   6.136   5.062   9.366  0.8640  3.2608 -0.4552
 3512SOL     OW11976   6.543   6.473   8.379 -0.1273  0.0932 -0.4531
 3512SOL    HW111977   6.514   6.545   8.434 -2.3979 -0.0747 -1.3282
 3512SOL    HW211978   6.519   6.498   8.290 -0.8202 -1.6295 -0.8046
 3513SOL     OW11979   6.949   3.581   7.131 -0.3414  0.1955 -0.3093
 3513SOL    HW111980   6.863   3.622   7.136 -0.3523  0.2208 -0.6797
 3513SOL    HW211981   6.967   3.553   7.221 -0.9294 -0.2073 -0.3074
 3514SOL     OW11982   6.445   3.174   2.581 -0.3574  0.1752  0.1792
 3514SOL    HW111983   6.500   3.250   2.561  0.6018 -0.8763 -1.3470
 3514SOL    HW211984   6.431   3.179   2.675  0.5499  1.6588  0.2689
 3515SOL     OW11985   6.243   4.949   5.737  0.4910  0.0569 -0.1810
 3515SOL    HW111986   6.301   5.020   5.763  0.3052 -0.1602  0.8496
 3515SOL    HW211987   6.155   4.983   5.751  0.3635  0.0975 -0.9901
 3516SOL     OW11988   3.892   1.127   3.742 -0.1752 -0.5290  0.1409
 3516SOL    HW111989   3.862   1.037   3.755 -1.9515  0.0404  0.2092
 3516SOL    HW211990   3.979   1.117   3.704  0.4749 -2.2616  1.9023
 3517SOL     OW11991   0.927   2.809   7.358  0.3713  0.2210  0.2565
 3517SOL    HW111992   0.932   2.749   7.432  0.2308 -0.2982 -0.1494
 3517SOL    HW211993   1.010   2.857   7.361  0.8706 -0.6065  0.0741
 3518SOL     OW11994   3.499   7.623   8.804 -0.9748  0.2672  0.2363
 3518SOL    HW111995   3.543   7.564   8.743 -2.1382  0.0283 -0.4015
 3518SOL    HW211996   3.491   7.571   8.885 -1.8633 -0.4387 -0.2756
 3519SOL     OW11997   6.515   7.714   3.087 -0.0856 -0.3084  0.0172
 3519SOL    HW111998   6.428   7.686   3.117  0.3216 -2.7972 -0.8350
 3519SOL    HW211999   6.565   7.632   3.080  1.9346  0.9170 -0.7894
 3520SOL     OW12000   7.272   5.898   9.481  0.3938  0.6398  0.0230
 3520SOL    HW112001   7.356   5.863   9.454  1.6009  2.7190  0.8188
 3520SOL    HW212002   7.290   5.943   9.564 -1.9645 -0.6345  1.3394
 3521SOL     OW12003   2.978   5.526   2.855  0.5951 -0.3533  0.3898
 3521SOL    HW112004   2.917   5.485   2.916 -1.0766  0.7847 -0.4289
 3521SOL    HW212005   3.054   5.467   2.853 -0.1571 -1.4381  2.0042
 3522SOL     OW12006   5.891   2.157   7.224 -0.2079 -0.1377 -0.4417
 3522SOL    HW112007   5.864   2.225   7.286  0.6429  0.0916 -0.3056
 3522SOL    HW212008   5.971   2.192   7.184 -0.4994 -0.4793 -1.3405
 3523SOL     OW12009   4.424   2.652   5.749  0.0137  0.7194  0.3137
 3523SOL    HW112010   4.341   2.646   5.796  1.0526  1.7594  2.4101
 3523SOL    HW212011   4.419   2.735   5.702 -0.0668  0.8515  0.5557
 3524SOL     OW12012   2.915   3.797   6.220 -0.1302 -1.0187  0.2274
 3524SOL    HW112013   2.944   3.879   6.180 -1.6605 -1.6898 -2.5569
 3524SOL    HW212014   2.994   3.760   6.260  0.7404  1.4083  0.9098
 3525SOL     OW12015   0.336   7.117   2.704 -0.5206  0.1935  0.2023
 3525SOL    HW112016   0.399   7.063   2.752 -0.1326  2.0078  1.8583
 3525SOL    HW212017   0.255   7.110   2.755 -0.5789  0.8382  0.2064
 3526SOL     OW12018   6.396   2.838  11.166  0.4275  0.1549  0.1105
 3526SOL    HW112019   6.485   2.844  11.200  0.3602  0.6260  0.2016
 3526SOL    HW212020   6.342   2.883  11.230  0.1360 -0.0192 -0.0067
 3527SOL     OW12021   5.952   3.871   4.061  0.6156  0.1533 -0.2876
 3527SOL    HW112022   5.932   3.827   3.978  2.0624 -0.2177 -0.4746
 3527SOL    HW212023   6.041   3.841   4.082  0.1054 -0.1244  1.6343
 3528SOL     OW12024   6.719   7.513   8.460 -0.8466 -0.1137  0.6753
 3528SOL    HW112025   6.799   7.466   8.482 -1.1947 -0.4472  1.2754
 3528SOL    HW212026   6.649   7.450   8.476 -1.1075 -0.8195 -2.6539
 3529SOL     OW12027   4.224   5.891  11.232 -0.0129  0.2636  0.0811
 3529SOL    HW112028   4.168   5.927  11.163 -3.4065  2.9665  3.7836
 3529SOL    HW212029   4.192   5.802  11.245 -1.4698  0.7480  0.0562
 3530SOL     OW12030   4.720   1.733   5.241  0.2694  0.4001  0.3444
 3530SOL    HW112031   4.698   1.752   5.150  0.3913  0.4084  0.3154
 3530SOL    HW212032   4.789   1.667   5.235 -0.2865 -0.1899  0.4505
 3531SOL     OW12033   3.115   6.121   6.103  0.0136 -0.1949 -0.2318
 3531SOL    HW112034   3.058   6.103   6.179  1.5590 -0.0666  1.0041
 3531SOL    HW212035   3.102   6.214   6.085  1.4183  0.3908  1.4704
 3532SOL     OW12036   1.393   0.107   9.335  0.2469 -0.1659 -0.6749
 3532SOL    HW112037   1.313   0.108   9.388 -0.6712 -0.6656 -2.0050
 3532SOL    HW212038   1.411   0.014   9.322  0.7427 -0.0479 -0.8471
 3533SOL     OW12039   2.680   7.496   9.368  0.2924  0.2956  0.3711
 3533SOL    HW112040   2.593   7.472   9.402  0.6410 -2.8585 -0.5950
 3533SOL    HW212041   2.705   7.574   9.418 -3.5516  2.0792 -0.1541
 3534SOL     OW12042   0.911   0.214   1.921  0.1641  0.7255 -0.0228
 3534SOL    HW112043   0.968   0.187   1.849 -0.7941 -0.3726 -0.3956
 3534SOL    HW212044   0.855   0.282   1.882 -0.7523 -0.2817 -0.5121
 3535SOL     OW12045   2.210   3.304   3.887 -0.6520 -0.1219 -0.4885
 3535SOL    HW112046   2.223   3.236   3.953  1.8952  0.4241 -0.3036
 3535SOL    HW212047   2.229   3.261   3.804 -0.4829 -0.0022 -0.5131
 3536SOL     OW12048   5.209   2.344   1.310  0.1920  0.4555  0.1544
 3536SOL    HW112049   5.219   2.260   1.356 -1.1593 -0.0505 -0.4202
 3536SOL    HW212050   5.138   2.329   1.247  0.0545  1.9797 -0.1009
 3537SOL     OW12051   5.401   5.379  12.416  0.0662  0.0885  0.0983
 3537SOL    HW112052   5.334   5.436  12.378  2.0566  1.3925 -1.6614
 3537SOL    HW212053   5.398   5.300  12.363  0.3675  0.4161 -0.4097
 3538SOL     OW12054   0.372   7.489   7.935  0.0458  0.0008 -0.3891
 3538SOL    HW112055   0.429   7.415   7.957 -0.0488  0.3395  1.1334
 3538SOL    HW212056   0.397   7.558   7.997 -1.6577  0.3252 -0.0022
 3539SOL     OW12057   7.184   2.136   0.635  0.1659 -0.6072  0.3176
 3539SOL    HW112058   7.260   2.189   0.610  0.5402 -1.0447  0.5219
 3539SOL    HW212059   7.127   2.138   0.558  0.6702 -0.7947 -0.0663
 3540SOL     OW12060   1.735   7.591   8.574  0.2557  0.4140  0.0332
 3540SOL    HW112061   1.675   7.665   8.566 -0.8329 -0.4078  0.2980
 3540SOL    HW212062   1.739   7.573   8.668  1.1810  0.6515  0.0525
 3541SOL     OW12063   4.917   6.372   6.639 -0.2239  0.1979  0.0155
 3541SOL    HW112064   4.892   6.346   6.550  0.5791 -0.6924  0.0322
 3541SOL    HW212065   4.834   6.393   6.682 -0.6484  0.3307 -0.8495
 3542SOL     OW12066   7.052   1.723   2.633  0.1468  0.2290 -0.1677
 3542SOL    HW112067   6.976   1.667   2.621  0.2741 -0.3604  1.5579
 3542SOL    HW212068   7.038   1.764   2.719 -0.1119  3.1269 -1.4822
 3543SOL     OW12069   0.595   2.613   5.852  0.8543 -0.5925  0.2192
 3543SOL    HW112070   0.517   2.567   5.823  0.8262 -0.6827  0.4318
 3543SOL    HW212071   0.644   2.631   5.772  0.6391 -0.5769  0.0901
 3544SOL     OW12072   1.173   1.507   6.860  0.3126  0.0110  0.3408
 3544SOL    HW112073   1.262   1.490   6.829 -0.0282 -1.4742  0.1165
 3544SOL    HW212074   1.165   1.456   6.940 -1.1444 -2.0329 -0.9959
 3545SOL     OW12075   3.379   0.056   9.014  0.0041 -0.1199 -0.1390
 3545SOL    HW112076   3.384   0.015   8.928 -2.0866  0.2461 -0.5031
 3545SOL    HW212077   3.341  -0.011   9.070 -0.3604  0.2445  0.0499
 3546SOL     OW12078   7.076   0.878   0.359  0.1442 -0.0398 -0.3194
 3546SOL    HW112079   7.086   0.969   0.386 -2.0313  0.0721  0.2674
 3546SOL    HW212080   7.108   0.827   0.433  0.0967  0.2586 -0.0931
 3547SOL     OW12081   7.480   5.284  11.843  0.0536  0.0825 -0.0872
 3547SOL    HW112082   7.559   5.336  11.853  0.0805 -0.1829  1.2587
 3547SOL    HW212083   7.498   5.226  11.768  0.6516  0.8495 -0.5493
 3548SOL     OW12084   2.496   0.129   5.252  0.6967 -0.1456  0.1896
 3548SOL    HW112085   2.557   0.200   5.230  0.3158 -0.4524 -2.0225
 3548SOL    HW212086   2.444   0.116   5.173  0.2095 -2.3704  0.8019
 3549SOL     OW12087   4.759   7.429   8.351 -0.1446  0.1405  0.2558
 3549SOL    HW112088   4.755   7.518   8.387  2.5126  0.8994 -1.0186
 3549SOL    HW212089   4.743   7.372   8.426 -1.4243  1.6541  1.2162
 3550SOL     OW12090   5.078   4.570   5.751 -0.0343  0.3118 -0.2282
 3550SOL    HW112091   4.999   4.526   5.718 -1.2312  1.0612  1.4913
 3550SOL    HW212092   5.123   4.504   5.804  0.6631 -0.1935 -1.4163
 3551SOL     OW12093   5.607   1.212   8.854  0.2751 -0.1955  0.6687
 3551SOL    HW112094   5.649   1.145   8.799 -0.2695 -1.2957  1.5599
 3551SOL    HW212095   5.636   1.192   8.942 -0.1154  0.5908  0.9820
 3552SOL     OW12096   7.156   0.723   8.789  0.0531 -0.6683  0.4565
 3552SOL    HW112097   7.120   0.635   8.783 -1.0983 -0.0994 -1.8544
 3552SOL    HW212098   7.205   0.736   8.708  1.0786  0.4791  1.2075
 3553SOL     OW12099   6.233   4.680   4.220  0.5028  0.1612 -0.6746
 3553SOL    HW112100   6.173   4.709   4.288  0.8180 -0.7615  0.0324
 3553SOL    HW212101   6.221   4.742   4.148  1.1965  2.0510  0.7580
 3554SOL     OW12102   5.927   7.517   1.221 -0.1142  0.0820  0.5387
 3554SOL    HW112103   5.834   7.537   1.212 -0.1433 -0.3598 -0.2091
 3554SOL    HW212104   5.934   7.424   1.200  0.9114  0.7517 -2.7841
 3555SOL     OW12105   1.536   6.115   6.556  0.4382 -0.5017  0.2483
 3555SOL    HW112106   1.582   6.039   6.520 -0.0593 -1.0924  0.8590
 3555SOL    HW212107   1.462   6.129   6.497 -0.5923 -1.6988  1.2095
 3556SOL     OW12108   7.563   6.371   2.732 -0.3092  0.0744 -0.1876
 3556SOL    HW112109   7.580   6.465   2.720 -0.3646  0.1892  0.5565
 3556SOL    HW212110   7.584   6.332   2.648  1.9042  0.4537  0.1245
 3557SOL     OW12111   7.342   0.807   2.929 -0.2892  0.1108 -0.0084
 3557SOL    HW112112   7.365   0.778   2.841  1.1168  1.0145  0.0262
 3557SOL    HW212113   7.250   0.783   2.939  0.2969 -2.6778 -0.6122
 3558SOL     OW12114   4.375   7.006   1.130  0.1430  0.5352 -0.4235
 3558SOL    HW112115   4.453   6.964   1.093 -1.1295 -1.6481 -0.7943
 3558SOL    HW212116   4.307   6.993   1.064 -1.1921  0.0658  0.9838
 3559SOL     OW12117   7.872   0.693   6.350  0.0386 -0.4591  0.7461
 3559SOL    HW112118   7.887   0.684   6.256 -0.0060 -0.0279  0.6953
 3559SOL    HW212119   7.791   0.644   6.366 -0.8847  0.8194  0.2608
 3560SOL     OW12120   2.539   0.423  10.662 -0.3972 -0.2601  0.5974
 3560SOL    HW112121   2.604   0.473  10.613 -0.9725  0.1733  0.2698
 3560SOL    HW212122   2.455   0.457  10.632 -0.7637 -0.3120  1.5498
 3561SOL     OW12123   5.634   3.964  11.344  0.4161 -0.2195 -0.3467
 3561SOL    HW112124   5.657   4.012  11.423  0.2562  0.3180 -0.6211
 3561SOL    HW212125   5.695   3.997  11.277 -0.2444  0.2126 -0.7415
 3562SOL     OW12126   1.271   6.757   1.235 -0.8948 -0.2967 -0.1550
 3562SOL    HW112127   1.211   6.774   1.307 -0.2593 -0.6903  0.4824
 3562SOL    HW212128   1.354   6.796   1.263 -0.8572  0.2854 -1.0458
 3563SOL     OW12129   0.829   1.047   9.380 -0.5672 -0.5875  0.1829
 3563SOL    HW112130   0.841   1.000   9.298 -1.2121 -0.6998  0.1463
 3563SOL    HW212131   0.736   1.072   9.380 -0.1206  1.2759 -0.1249
 3564SOL     OW12132   3.900   2.002   4.029 -0.2392 -0.2554  0.5145
 3564SOL    HW112133   3.859   1.980   4.112 -0.4089 -0.8085  0.2934
 3564SOL    HW212134   3.890   1.922   3.976  1.8645 -0.7371  0.7402
 3565SOL     OW12135   2.663   0.781   6.168  0.7135 -0.2265  0.0115
 3565SOL    HW112136   2.728   0.798   6.236  1.0334  0.2722 -0.4159
 3565SOL    HW212137   2.581   0.765   6.216  1.1223 -0.7692  0.5469
 3566SOL     OW12138   5.441   6.560   4.204 -0.2417  0.1328  0.3318
 3566SOL    HW112139   5.456   6.501   4.131  0.4079 -0.5466  0.9995
 3566SOL    HW212140   5.376   6.516   4.259 -0.7195  0.6338  0.1798
 3567SOL     OW12141   4.734   2.662   6.326  0.1429 -0.8603 -0.6643
 3567SOL    HW112142   4.715   2.742   6.375 -0.5527 -0.6720 -1.2280
 3567SOL    HW212143   4.810   2.684   6.272  1.2314 -1.2182  0.6533
 3568SOL     OW12144   6.107   1.996   0.789  0.8925 -0.0131  0.2035
 3568SOL    HW112145   6.196   2.026   0.810  1.6206 -1.5831 -0.4313
 3568SOL    HW212146   6.119   1.934   0.717 -0.8325  0.3944 -0.4721
 3569SOL     OW12147   0.599   3.358  11.944 -0.3002  0.0989  0.4856
 3569SOL    HW112148   0.506   3.361  11.966 -0.2626  0.6277  0.5847
 3569SOL    HW212149   0.637   3.432  11.990  0.1595 -0.0740  0.3900
 3570SOL     OW12150   3.199   2.900   9.128  1.1980 -0.0728 -0.1785
 3570SOL    HW112151   3.186   2.843   9.052  0.6120  2.1331 -1.8161
 3570SOL    HW212152   3.119   2.891   9.180 -0.8073  2.2782 -2.5872
 3571SOL     OW12153   2.089   1.816   1.123  0.5204  0.3448 -0.3585
 3571SOL    HW112154   1.997   1.843   1.118 -0.3111 -2.1536 -0.2583
 3571SOL    HW212155   2.110   1.787   1.035  0.6946 -0.5592 -0.0262
 3572SOL     OW12156   1.963   1.289   8.353  0.1589  0.1154 -0.5148
 3572SOL    HW112157   2.033   1.257   8.296  0.0520 -0.2620 -0.4375
 3572SOL    HW212158   1.986   1.256   8.440  0.7585  1.3713 -0.1788
 3573SOL     OW12159   6.715   0.655   4.151 -0.0966 -0.0890  0.0636
 3573SOL    HW112160   6.733   0.722   4.084 -0.6505 -0.0026 -0.0018
 3573SOL    HW212161   6.621   0.640   4.145 -0.1180 -0.2265  0.6931
 3574SOL     OW12162   7.023   5.028  11.887  0.1234 -0.1995  0.5197
 3574SOL    HW112163   6.976   4.955  11.847 -0.6862  1.1553 -1.1640
 3574SOL    HW212164   7.112   5.021  11.853  0.0701 -0.4385  0.4256
 3575SOL     OW12165   0.522   2.548   9.887 -0.0575  0.0038 -0.2406
 3575SOL    HW112166   0.599   2.495   9.865 -0.8392 -1.0285 -0.5933
 3575SOL    HW212167   0.478   2.498   9.955 -0.5980  0.4077 -0.2919
 3576SOL     OW12168   7.208   0.044   0.283  0.2552 -0.3905  1.0050
 3576SOL    HW112169   7.136   0.063   0.222  1.2260 -0.3317 -0.1672
 3576SOL    HW212170   7.271   0.115   0.270  1.0403 -1.0337  1.1828
 3577SOL     OW12171   7.091   2.686   7.291  0.0692 -0.0542 -0.6368
 3577SOL    HW112172   7.039   2.730   7.358  0.5099 -0.2691 -0.1484
 3577SOL    HW212173   7.038   2.611   7.265  0.5937 -0.9154  0.6625
 3578SOL     OW12174   1.296   6.511  12.091  0.1739 -0.1177 -0.1845
 3578SOL    HW112175   1.230   6.579  12.103  0.4069  0.0807 -0.0284
 3578SOL    HW212176   1.261   6.435  12.137 -0.0673 -0.0934 -0.3231
 3579SOL     OW12177   3.488   2.880   1.737  0.2686 -0.5492  0.0115
 3579SOL    HW112178   3.498   2.935   1.815 -1.3673 -0.4496  0.1864
 3579SOL    HW212179   3.406   2.833   1.752  1.8124 -3.4508  0.0998
 3580SOL     OW12180   5.507   1.342   8.369 -0.4137  0.3497  0.4816
 3580SOL    HW112181   5.565   1.294   8.428  1.7816  1.5395 -0.6035
 3580SOL    HW212182   5.497   1.284   8.293  1.1801  1.0018 -0.2656
 3581SOL     OW12183   1.163   2.561  10.567 -0.7598  0.1152 -0.0063
 3581SOL    HW112184   1.202   2.590  10.485 -1.1538  1.9943  0.4346
 3581SOL    HW212185   1.168   2.637  10.625 -0.9291 -1.0165  1.5696
 3582SOL     OW12186   5.219   2.522   6.176 -0.4954 -0.4097 -0.2923
 3582SOL    HW112187   5.252   2.562   6.095  1.9204 -0.6062  0.5187
 3582SOL    HW212188   5.194   2.596   6.231 -1.7824 -0.2654 -1.0220
 3583SOL     OW12189   2.034   0.560   2.266 -0.1014  0.2023  0.0784
 3583SOL    HW112190   2.032   0.654   2.247 -1.7592  0.2325  0.2532
 3583SOL    HW212191   2.106   0.527   2.214  1.0951  1.7070  0.7012
 3584SOL     OW12192   3.746   5.749   9.189  0.2197 -0.1269  0.3218
 3584SOL    HW112193   3.752   5.830   9.240  0.8179 -0.3647  0.6369
 3584SOL    HW212194   3.820   5.754   9.128 -0.3992  0.0828 -0.4309
 3585SOL     OW12195   0.187   5.725   4.395 -0.4056  0.1917  0.4213
 3585SOL    HW112196   0.110   5.668   4.398  0.1573 -0.5450  1.4344
 3585SOL    HW212197   0.219   5.717   4.305 -2.2874  1.6113 -0.4386
 3586SOL     OW12198   2.824   4.120   1.713 -0.0009  0.3254 -0.3408
 3586SOL    HW112199   2.833   4.162   1.799  1.1538 -0.1387 -0.2190
 3586SOL    HW212200   2.735   4.144   1.684 -0.2434  0.8531  0.7755
 3587SOL     OW12201   6.303   5.747   8.475 -0.2578 -0.2574 -0.1684
 3587SOL    HW112202   6.304   5.687   8.401 -1.9330 -2.2320  1.2913
 3587SOL    HW212203   6.387   5.734   8.518 -0.1494 -0.7246 -0.5164
 3588SOL     OW12204   2.618   6.779   5.242 -0.1689  0.0976 -0.4242
 3588SOL    HW112205   2.533   6.765   5.282 -0.0580 -0.9750 -0.5480
 3588SOL    HW212206   2.628   6.875   5.240 -0.7743  0.2081  0.8242
 3589SOL     OW12207   1.095   5.976   9.089 -0.7316 -0.3282 -0.3630
 3589SOL    HW112208   1.094   6.070   9.072 -0.2625  0.1948  2.1671
 3589SOL    HW212209   1.173   5.944   9.042  0.6514  1.0397  0.9183
 3590SOL     OW12210   1.428   5.122  12.307 -0.1728  0.4648  0.0490
 3590SOL    HW112211   1.421   5.043  12.359  0.0132 -0.1158 -0.7832
 3590SOL    HW212212   1.458   5.189  12.368 -1.8773  0.3107  1.1413
 3591SOL     OW12213   3.826   4.319   4.380  0.8925 -0.2287 -0.0793
 3591SOL    HW112214   3.779   4.393   4.419  1.2830 -0.1885  0.3271
 3591SOL    HW212215   3.783   4.304   4.296  0.0116 -0.3437  0.3863
 3592SOL     OW12216   0.206   6.655  10.938  0.1224 -0.5109 -0.1177
 3592SOL    HW112217   0.237   6.701  10.860 -1.0895  0.1354 -0.2432
 3592SOL    HW212218   0.118   6.689  10.953 -0.1778 -1.5944  0.7654
 3593SOL     OW12219   2.155   3.640   3.564 -0.0773 -0.3227 -0.2392
 3593SOL    HW112220   2.172   3.732   3.543  1.8403 -0.9328 -1.6805
 3593SOL    HW212221   2.074   3.620   3.517  0.0716  0.3553 -0.8114
 3594SOL     OW12222   4.750   4.538  11.605 -0.4697 -0.4505  0.1706
 3594SOL    HW112223   4.676   4.489  11.569 -1.1370 -0.1510  1.0958
 3594SOL    HW212224   4.765   4.608  11.541  2.4358 -3.3962 -2.8019
 3595SOL     OW12225   3.391   2.057   5.895  0.2970 -0.4413 -0.0938
 3595SOL    HW112226   3.414   2.120   5.963 -0.1510 -0.0840 -0.2685
 3595SOL    HW212227   3.306   2.022   5.922  0.5648 -1.0141  0.0284
 3596SOL     OW12228   3.166   6.188  11.753 -0.3761 -0.8254 -0.1474
 3596SOL    HW112229   3.087   6.219  11.800 -0.4414 -0.3125 -0.5872
 3596SOL    HW212230   3.223   6.265  11.749 -0.4671 -0.7985 -1.1112
 3597SOL     OW12231   6.459   3.049   9.608 -0.4929 -0.5234  0.0531
 3597SOL    HW112232   6.392   3.118   9.611  0.3579  0.2891  1.2772
 3597SOL    HW212233   6.409   2.968   9.595 -1.8495 -0.0746  2.0353
 3598SOL     OW12234   2.238   7.671   9.374 -0.2877 -0.1492  0.3357
 3598SOL    HW112235   2.250   7.658   9.468 -1.3579 -2.0227  0.2614
 3598SOL    HW212236   2.187   7.751   9.367  0.4368  0.4187  1.2890
 3599SOL     OW12237   1.200   0.916   1.694 -0.0284  0.4874 -0.2548
 3599SOL    HW112238   1.220   0.956   1.779  1.2051 -0.6790  0.0426
 3599SOL    HW212239   1.108   0.891   1.700  0.0305  0.4721  0.7190
 3600SOL     OW12240   4.118   0.406   6.243 -0.3317  0.1707 -0.2808
 3600SOL    HW112241   4.027   0.383   6.261 -0.8582  0.5036 -2.2369
 3600SOL    HW212242   4.154   0.431   6.328 -1.6698 -1.2441  0.7550
 3601SOL     OW12243   0.501   2.705  10.144  0.1359  0.6191 -0.0615
 3601SOL    HW112244   0.547   2.694  10.061 -1.2232  0.4398 -0.8254
 3601SOL    HW212245   0.558   2.666  10.210  1.9430  2.1133 -0.6727
 3602SOL     OW12246   2.400   4.520  10.865  0.1669  0.1532 -0.6916
 3602SOL    HW112247   2.471   4.583  10.852  0.8695 -0.4988 -0.1238
 3602SOL    HW212248   2.424   4.473  10.945 -2.1777  1.6207  1.0232
 3603SOL     OW12249   2.426   6.536  12.353 -0.1682  0.7137 -0.2903
 3603SOL    HW112250   2.471   6.462  12.312 -0.6636  0.1609  0.1651
 3603SOL    HW212251   2.474   6.552  12.434 -1.4516 -0.6068  0.7636
 3604SOL     OW12252   2.922   0.247   3.550 -0.3940  0.0939 -0.3337
 3604SOL    HW112253   3.007   0.234   3.509 -0.2906  1.6645 -0.6741
 3604SOL    HW212254   2.940   0.299   3.628 -1.1509  1.5684 -1.1000
 3605SOL     OW12255   2.402   0.732   5.070 -0.8366  0.2639 -0.4075
 3605SOL    HW112256   2.417   0.712   5.162 -0.4072  0.4587 -0.4310
 3605SOL    HW212257   2.310   0.711   5.055 -1.2741  1.4723  0.4032
 3606SOL     OW12258   5.483   7.132   2.963  0.2851 -0.3701 -0.3315
 3606SOL    HW112259   5.530   7.060   3.006  0.3111 -0.9487 -1.3030
 3606SOL    HW212260   5.396   7.096   2.944 -0.1709  0.3177  0.4128
 3607SOL     OW12261   5.842   2.982   8.240 -0.0595  0.2948 -0.5347
 3607SOL    HW112262   5.862   2.889   8.230  0.8348  0.4596 -0.4279
 3607SOL    HW212263   5.753   2.984   8.274  0.3393 -0.5866  0.6537
 3608SOL     OW12264   4.605   5.533   6.119 -0.1870 -0.5968 -0.0053
 3608SOL    HW112265   4.647   5.485   6.048 -1.6215 -1.4095 -0.3595
 3608SOL    HW212266   4.669   5.599   6.146  0.4241 -0.3468 -1.9637
 3609SOL     OW12267   4.344   0.517  11.724 -0.1520 -0.5793 -0.2297
 3609SOL    HW112268   4.310   0.583  11.785  1.5275  1.7691 -1.6779
 3609SOL    HW212269   4.437   0.537  11.716  0.0785 -2.1067 -1.9744
 3610SOL     OW12270   5.653   0.749   5.822  0.1204  0.3218 -0.3043
 3610SOL    HW112271   5.682   0.763   5.912 -0.2904 -0.3599 -0.0544
 3610SOL    HW212272   5.733   0.750   5.770  0.3111  1.2896 -0.0142
 3611SOL     OW12273   5.615   3.963   3.833 -0.3298 -0.2576 -0.0053
 3611SOL    HW112274   5.676   3.896   3.801 -0.7719 -1.1613  0.9654
 3611SOL    HW212275   5.577   4.000   3.753  0.9255 -0.2006 -0.6013
 3612SOL     OW12276   0.831   4.274   4.565  0.3666 -0.2331 -0.1466
 3612SOL    HW112277   0.879   4.356   4.554  0.4577 -0.3415 -0.5655
 3612SOL    HW212278   0.794   4.280   4.654 -0.5421  0.7448 -0.5669
 3613SOL     OW12279   3.221   7.222   2.342  0.1325 -0.3257 -0.1781
 3613SOL    HW112280   3.280   7.169   2.289 -0.6204 -1.2349 -0.1279
 3613SOL    HW212281   3.144   7.167   2.355  0.0950  0.0596  1.4513
 3614SOL     OW12282   0.549   4.343   5.168  0.1849  0.2699  0.5890
 3614SOL    HW112283   0.532   4.270   5.109  0.0212  1.1899 -0.5372
 3614SOL    HW212284   0.540   4.421   5.114 -2.1962  1.3236  2.3010
 3615SOL     OW12285   5.436   1.748   8.244 -0.1454  0.5025 -0.2083
 3615SOL    HW112286   5.401   1.832   8.215 -1.1716  1.3337  3.0356
 3615SOL    HW212287   5.403   1.737   8.332  1.3150 -2.5831  0.1025
 3616SOL     OW12288   1.071   5.512   5.682 -0.1087  0.2212  0.4127
 3616SOL    HW112289   0.979   5.540   5.676 -0.9902 -2.5044 -0.3007
 3616SOL    HW212290   1.113   5.553   5.607 -1.2793 -0.2432 -0.5329
 3617SOL     OW12291   0.894   1.874  10.621 -0.7371 -0.2675 -0.0074
 3617SOL    HW112292   0.831   1.808  10.594 -2.0171  1.3570 -1.1770
 3617SOL    HW212293   0.875   1.950  10.567  0.7332  1.0599  1.2131
 3618SOL     OW12294   5.709   1.484   9.498  0.7600  0.0258 -0.0177
 3618SOL    HW112295   5.708   1.390   9.483  0.4848  0.3945 -2.8716
 3618SOL    HW212296   5.625   1.503   9.541  0.5952 -0.9549  0.1083
 3619SOL     OW12297   0.803   3.355   5.731 -0.1715  0.0464 -0.2760
 3619SOL    HW112298   0.859   3.289   5.689 -0.8909  1.0326 -3.0546
 3619SOL    HW212299   0.844   3.438   5.709 -2.8863  0.8440 -2.9605
 3620SOL     OW12300   4.783   5.749   5.047 -0.2628 -0.0167  0.1230
 3620SOL    HW112301   4.773   5.670   4.994 -1.1728 -0.4596  0.9288
 3620SOL    HW212302   4.801   5.818   4.984 -1.3503 -0.5289 -0.7775
 3621SOL     OW12303   1.137   1.314   1.599  0.6460  0.0679 -0.4898
 3621SOL    HW112304   1.055   1.274   1.629 -0.5015  1.6361 -1.3791
 3621SOL    HW212305   1.199   1.298   1.670 -0.1993 -1.7725 -0.0948
 3622SOL     OW12306   0.162   1.810  10.823 -0.3863  0.0151  0.5453
 3622SOL    HW112307   0.122   1.869  10.887 -0.3451  0.9686 -0.2826
 3622SOL    HW212308   0.254   1.805  10.849  0.3621  2.8649 -1.1277
 3623SOL     OW12309   1.516   3.073   7.769 -0.1968  0.3327  0.4097
 3623SOL    HW112310   1.441   3.048   7.715  0.2387 -0.5974  0.2119
 3623SOL    HW212311   1.547   2.991   7.807  0.6298  0.7218  0.6114
 3624SOL     OW12312   0.515   5.481   7.601  0.2040  0.4635 -0.4195
 3624SOL    HW112313   0.565   5.427   7.540 -1.4281 -0.7200 -0.7440
 3624SOL    HW212314   0.478   5.551   7.547 -0.8567 -0.3174 -0.7129
 3625SOL     OW12315   6.457   6.107   0.630  0.2291  0.2613  0.5331
 3625SOL    HW112316   6.389   6.091   0.695  1.5026  0.7486  2.0540
 3625SOL    HW212317   6.519   6.164   0.675  1.4073  0.1957 -0.9564
 3626SOL     OW12318   2.690   5.064   1.420 -0.4167  0.5876  0.2011
 3626SOL    HW112319   2.727   5.110   1.345  1.6038 -1.4805 -0.1647
 3626SOL    HW212320   2.600   5.045   1.395  0.2995 -0.3119 -1.8512
 3627SOL     OW12321   6.404   4.614   0.518 -0.0752 -0.0629 -0.2385
 3627SOL    HW112322   6.349   4.545   0.556  0.6842 -1.3708 -1.4076
 3627SOL    HW212323   6.365   4.632   0.433 -0.5239  1.3232  0.2265
 3628SOL     OW12324   6.714   4.698  10.450  0.0927 -0.3422 -0.0068
 3628SOL    HW112325   6.751   4.760  10.387 -1.4504  1.1524  0.4820
 3628SOL    HW212326   6.621   4.693  10.427 -0.5685  0.4211  2.2325
 3629SOL     OW12327   3.867   5.740   8.709 -0.6200 -1.1875 -0.4330
 3629SOL    HW112328   3.778   5.733   8.743  0.0932 -2.2275  1.3412
 3629SOL    HW212329   3.897   5.650   8.701  0.3588 -0.8459 -0.8071
 3630SOL     OW12330   1.564   6.658   9.482  0.9080  0.2480  0.0669
 3630SOL    HW112331   1.613   6.642   9.563 -0.3253 -0.3407  0.7238
 3630SOL    HW212332   1.472   6.655   9.508  0.4561 -0.7834 -1.5016
 3631SOL     OW12333   3.938   2.630  10.397  0.0849  0.4682 -0.0397
 3631SOL    HW112334   3.981   2.549  10.367  1.3229 -0.1703  3.0584
 3631SOL    HW212335   3.959   2.694  10.329  2.4918 -0.8561 -0.6867
 3632SOL     OW12336   4.129   6.083   5.185 -0.1548  0.1341 -0.3535
 3632SOL    HW112337   4.112   5.990   5.173 -0.0689  0.1860 -0.9300
 3632SOL    HW212338   4.221   6.094   5.159  0.3282  0.1183  1.2352
 3633SOL     OW12339   3.854   6.655   7.227  0.0279  0.1599 -0.3483
 3633SOL    HW112340   3.942   6.631   7.200  0.9136  1.0680  1.5573
 3633SOL    HW212341   3.815   6.573   7.258  0.1464 -0.2630 -1.2828
 3634SOL     OW12342   5.225   1.053   2.771 -0.2530 -0.3407  0.0293
 3634SOL    HW112343   5.237   1.142   2.738 -0.3101  0.0766  1.0965
 3634SOL    HW212344   5.134   1.033   2.753 -0.2007 -0.2439 -0.3562
 3635SOL     OW12345   5.007   0.645  12.287  0.1604  0.1217  0.4543
 3635SOL    HW112346   4.921   0.619  12.252  0.4447 -2.1886  1.3357
 3635SOL    HW212347   5.017   0.736  12.259 -0.5514 -0.8525 -3.6603
 3636SOL     OW12348   7.805   2.601   1.852 -0.1244 -0.0017 -0.4234
 3636SOL    HW112349   7.744   2.607   1.925  1.0318  0.3552  0.5612
 3636SOL    HW212350   7.842   2.689   1.845  0.4404 -0.2637 -0.8324
 3637SOL     OW12351   6.653   2.920   2.332  0.2357 -0.7034 -0.1080
 3637SOL    HW112352   6.610   2.953   2.411 -0.5326 -1.1088 -0.3436
 3637SOL    HW212353   6.742   2.954   2.337 -0.3591  0.9820 -0.0685
 3638SOL     OW12354   3.742   4.432   8.386  0.0092  0.0740 -0.2414
 3638SOL    HW112355   3.770   4.516   8.351 -1.3916  0.2989 -0.8853
 3638SOL    HW212356   3.822   4.393   8.422  1.2482  0.5004 -2.3247
 3639SOL     OW12357   6.515   4.512   7.289 -0.3097 -0.1309 -0.1443
 3639SOL    HW112358   6.571   4.491   7.215  0.4459 -1.3899  0.7415
 3639SOL    HW212359   6.511   4.431   7.340 -0.8857  0.6732  1.1397
 3640SOL     OW12360   7.021   4.590   6.806  0.1643 -0.6299 -0.7591
 3640SOL    HW112361   6.951   4.592   6.871  0.0214 -1.9766 -0.8414
 3640SOL    HW212362   7.100   4.615   6.854 -0.0688 -0.8881 -0.2348
 3641SOL     OW12363   3.034   4.269  10.370 -0.3655  0.0767  0.2276
 3641SOL    HW112364   3.110   4.225  10.408  0.0597  1.7174  1.3551
 3641SOL    HW212365   2.977   4.288  10.445 -0.0130  2.4138 -0.0255
 3642SOL     OW12366   6.763   1.694   9.996 -0.1917  0.4661  0.2432
 3642SOL    HW112367   6.685   1.737  10.031  0.1702  1.6253 -0.3162
 3642SOL    HW212368   6.771   1.727   9.907 -0.5302 -1.6804 -0.6314
 3643SOL     OW12369   1.528   6.661   2.286 -0.3205  0.0968  0.6213
 3643SOL    HW112370   1.438   6.668   2.252 -0.2541 -1.3278  0.0518
 3643SOL    HW212371   1.523   6.592   2.352  0.4579 -0.4868  0.0972
 3644SOL     OW12372   0.378   4.130   0.225  0.6438  0.2585  0.0723
 3644SOL    HW112373   0.374   4.084   0.309  0.1710 -0.3993 -0.3060
 3644SOL    HW212374   0.324   4.209   0.238 -1.3502 -0.9734 -0.2882
 3645SOL     OW12375   5.577   0.128   8.939 -0.1399  0.1284 -0.2260
 3645SOL    HW112376   5.491   0.152   8.974  0.5354 -1.5474  2.8936
 3645SOL    HW212377   5.578   0.032   8.942  1.5669  0.0843 -1.0179
 3646SOL     OW12378   5.696   1.583   4.079 -0.6134 -0.4095 -0.3883
 3646SOL    HW112379   5.633   1.644   4.040 -2.4668 -1.1377  1.3012
 3646SOL    HW212380   5.703   1.610   4.170  2.2951  0.1844 -0.6850
 3647SOL     OW12381   3.889   1.344   2.067  0.3190 -0.6278  0.7959
 3647SOL    HW112382   3.941   1.296   2.003 -0.3911 -1.3562  0.7563
 3647SOL    HW212383   3.910   1.303   2.151 -0.1031 -0.8477  0.7951
 3648SOL     OW12384   0.600   3.812   1.680 -0.5880 -0.0507 -0.8040
 3648SOL    HW112385   0.665   3.749   1.649 -0.4681 -0.0552 -0.5472
 3648SOL    HW212386   0.578   3.864   1.603  1.6944  1.7240 -0.3688
 3649SOL     OW12387   3.150   6.900   3.484  0.5857  0.7292  0.0571
 3649SOL    HW112388   3.174   6.847   3.560  1.6080  1.7434  0.4607
 3649SOL    HW212389   3.175   6.846   3.409 -1.7078 -0.8968  0.3399
 3650SOL     OW12390   6.022   1.938   9.357 -0.4254 -0.5488 -0.2862
 3650SOL    HW112391   5.984   2.012   9.309  0.6301 -0.3449 -0.8366
 3650SOL    HW212392   6.011   1.863   9.298  1.5475 -0.1559 -1.2311
 3651SOL     OW12393   4.745   7.101  12.346  0.1874 -0.2706 -0.8293
 3651SOL    HW112394   4.812   7.155  12.387  0.4005 -1.1587  0.0258
 3651SOL    HW212395   4.721   7.037  12.413  0.2667 -1.5197 -1.9641
 3652SOL     OW12396   4.849   1.582   3.801 -0.0404  0.1561  0.4566
 3652SOL    HW112397   4.935   1.574   3.759 -0.5824  1.2838 -0.9311
 3652SOL    HW212398   4.867   1.631   3.881  0.6632  0.0906  0.3493
 3653SOL     OW12399   6.317   0.675   2.462 -0.4202  0.1946  0.1190
 3653SOL    HW112400   6.331   0.767   2.443 -1.1931 -0.1170 -2.2023
 3653SOL    HW212401   6.294   0.635   2.378  2.9504 -2.7551  0.3373
 3654SOL     OW12402   0.715   4.859   7.417 -0.2629 -0.2038  0.0835
 3654SOL    HW112403   0.683   4.794   7.355  2.7329 -0.2768 -1.5987
 3654SOL    HW212404   0.636   4.901   7.451 -2.1486 -2.0669 -1.6705
 3655SOL     OW12405   6.488   4.115   8.248 -0.2908  0.4880  0.5761
 3655SOL    HW112406   6.570   4.159   8.272 -0.5356  0.3954  1.6074
 3655SOL    HW212407   6.420   4.167   8.290 -0.6970  0.0561  0.4533
 3656SOL     OW12408   3.298   6.049   6.324  0.7795  0.1253  0.1760
 3656SOL    HW112409   3.340   6.133   6.304  1.4597 -0.6104 -1.7252
 3656SOL    HW212410   3.238   6.034   6.251 -0.9874 -0.0490  1.5935
 3657SOL     OW12411   2.197   1.927   9.338  0.4661 -0.2989 -0.5698
 3657SOL    HW112412   2.150   1.960   9.261 -0.7146  0.1304  0.3003
 3657SOL    HW212413   2.134   1.937   9.410  0.8873 -2.3513  0.1508
 3658SOL     OW12414   6.081   3.741   9.658 -0.2835  0.0859  0.3128
 3658SOL    HW112415   5.996   3.742   9.613 -0.0779  1.7006 -0.0748
 3658SOL    HW212416   6.085   3.826   9.703  1.6609  0.5750 -0.6947
 3659SOL     OW12417   1.715   3.956   2.480  0.7159 -0.2786 -0.4791
 3659SOL    HW112418   1.804   3.953   2.444  1.1971  0.2617  0.6391
 3659SOL    HW212419   1.714   3.888   2.548 -0.0185 -0.9086 -1.0941
 3660SOL     OW12420   5.762   5.571   1.829 -0.1787  0.1329  0.0970
 3660SOL    HW112421   5.746   5.627   1.752  1.3493  1.4650  0.6841
 3660SOL    HW212422   5.848   5.532   1.812  0.3267  0.7019  1.2542
 3661SOL     OW12423   6.002   1.121   3.532  0.5136 -0.1171  0.0410
 3661SOL    HW112424   6.093   1.091   3.535  0.3366 -0.7939 -0.7746
 3661SOL    HW212425   5.987   1.142   3.440 -0.2175 -0.2007  0.1332
 3662SOL     OW12426   5.428   4.797   0.412 -0.1446 -0.0847  0.3870
 3662SOL    HW112427   5.384   4.750   0.483 -3.3431 -1.1326 -2.0770
 3662SOL    HW212428   5.444   4.730   0.345  0.3127  1.3344 -0.9887
 3663SOL     OW12429   1.027   4.821   0.487  0.0250 -0.1363 -0.5633
 3663SOL    HW112430   1.064   4.751   0.433  4.3513  2.7138 -1.7681
 3663SOL    HW212431   1.061   4.805   0.575  1.4929  0.6197 -0.9573
 3664SOL     OW12432   7.813   7.243   0.322  0.2683 -0.6146  0.5776
 3664SOL    HW112433   7.803   7.238   0.227  0.8448 -1.1024  0.5408
 3664SOL    HW212434   7.762   7.169   0.355  1.0713 -1.1884  0.5687
 3665SOL     OW12435   5.642   5.616   5.482 -0.1971  0.4414  0.6005
 3665SOL    HW112436   5.666   5.599   5.573  1.9845  0.6433  0.1183
 3665SOL    HW212437   5.612   5.531   5.449  0.0096  0.1219  1.2124
 3666SOL     OW12438   1.953   6.661   0.173  0.0138 -0.2755  0.3671
 3666SOL    HW112439   1.957   6.748   0.134 -1.9803 -0.5090 -0.5277
 3666SOL    HW212440   1.946   6.601   0.098 -3.6425 -0.7617  0.8624
 3667SOL     OW12441   5.610   1.189   7.299 -0.3033 -0.0797 -0.0550
 3667SOL    HW112442   5.661   1.155   7.373 -0.0076  0.5427  0.0326
 3667SOL    HW212443   5.568   1.267   7.334  1.9195  1.7730 -1.2434
 3668SOL     OW12444   7.750   1.011  12.380 -0.0219  0.0544  0.3075
 3668SOL    HW112445   7.839   1.040  12.359  0.1116  0.1753  1.0109
 3668SOL    HW212446   7.694   1.080  12.346  0.2760  1.0111  1.6861
 3669SOL     OW12447   7.491   2.686  11.275  0.2490 -0.2413 -0.1960
 3669SOL    HW112448   7.519   2.648  11.191  1.3307 -0.8215  0.4079
 3669SOL    HW212449   7.572   2.695  11.325  0.0216  2.6361 -0.1882
 3670SOL     OW12450   4.753   1.547   8.206  0.0119  0.3106 -0.6113
 3670SOL    HW112451   4.673   1.547   8.257  1.1966 -1.7355  1.4521
 3670SOL    HW212452   4.740   1.615   8.139 -3.6995 -0.5116 -0.9012
 3671SOL     OW12453   0.484   1.443   4.834  0.6007  0.1913  0.0209
 3671SOL    HW112454   0.420   1.506   4.800 -1.1696 -0.9005  1.1345
 3671SOL    HW212455   0.500   1.472   4.924 -0.5824 -1.1481  0.6961
 3672SOL     OW12456   2.371   3.556   9.847  0.2564  0.2396  0.3293
 3672SOL    HW112457   2.417   3.494   9.904 -0.7734  0.9894  2.0633
 3672SOL    HW212458   2.409   3.542   9.761  1.1051 -1.7461  0.9624
 3673SOL     OW12459   4.990   2.993  10.665 -0.2827  0.0661 -0.0052
 3673SOL    HW112460   5.054   2.930  10.632 -0.5168  0.6670 -1.6664
 3673SOL    HW212461   4.960   3.040  10.588 -4.0932 -1.4051  0.3807
 3674SOL     OW12462   4.473   4.864   7.862 -0.5738  0.3066  0.0709
 3674SOL    HW112463   4.544   4.814   7.823 -0.0258 -0.2319  1.6617
 3674SOL    HW212464   4.451   4.816   7.942  0.7557  3.1156  2.3010
 3675SOL     OW12465   2.406   4.342  11.096  0.1026  0.0014  0.1958
 3675SOL    HW112466   2.474   4.315  11.157  1.5260  0.1190 -1.2760
 3675SOL    HW212467   2.370   4.261  11.062  0.8200 -0.0675 -0.4137
 3676SOL     OW12468   7.297   0.972  10.766 -0.8867  0.0012 -0.0415
 3676SOL    HW112469   7.303   1.055  10.719 -3.4753 -1.0027 -2.4535
 3676SOL    HW212470   7.205   0.966  10.791 -0.2058 -0.9836  2.4740
 3677SOL     OW12471   6.207   6.641   4.849  0.4836  0.5660 -0.2866
 3677SOL    HW112472   6.194   6.547   4.836  2.4248 -0.3728  3.1691
 3677SOL    HW212473   6.298   6.657   4.825  0.4736  1.3314  0.1581
 3678SOL     OW12474   5.488   3.312   8.360 -0.2984  0.3794  0.0529
 3678SOL    HW112475   5.399   3.346   8.369 -0.3212  0.0180  1.2696
 3678SOL    HW212476   5.482   3.250   8.287 -1.1729 -0.0416  0.4625
 3679SOL     OW12477   2.816   0.720   8.556  0.2425  0.3274  0.5810
 3679SOL    HW112478   2.748   0.768   8.602 -0.4140  1.2681 -1.2947
 3679SOL    HW212479   2.770   0.648   8.512  0.1645  1.6925 -1.7258
 3680SOL     OW12480   4.479   2.290   6.642 -0.7335 -0.2546 -0.0463
 3680SOL    HW112481   4.519   2.354   6.700 -0.0478 -0.8119  0.1200
 3680SOL    HW212482   4.425   2.235   6.698  1.3888 -1.9824  0.4755
 3681SOL     OW12483   0.650   4.126  10.444  0.0881 -0.1503  0.1355
 3681SOL    HW112484   0.737   4.139  10.405  1.5465  0.5928  3.2878
 3681SOL    HW212485   0.624   4.213  10.474 -2.1864 -0.2221 -1.3889
 3682SOL     OW12486   6.576   0.462   5.294  0.3243 -0.1841 -0.0561
 3682SOL    HW112487   6.521   0.443   5.218 -0.7270  1.3818  0.2684
 3682SOL    HW212488   6.515   0.463   5.368  0.3452  3.2640  0.0875
 3683SOL     OW12489   5.403   0.047   5.984  0.0831  0.1811 -0.0574
 3683SOL    HW112490   5.399   0.135   6.022 -1.4088 -0.6711  1.9456
 3683SOL    HW212491   5.392  -0.012   6.058  0.6532 -1.7172 -1.3990
 3684SOL     OW12492   5.680   2.380   3.083  0.0486 -0.0124 -0.3816
 3684SOL    HW112493   5.726   2.368   3.000  1.9019  1.3717  0.3775
 3684SOL    HW212494   5.672   2.292   3.119 -0.1837 -0.5566 -1.6977
 3685SOL     OW12495   6.002   6.903   1.716  0.5691 -0.0293 -0.0106
 3685SOL    HW112496   5.983   6.914   1.623  1.3348 -0.7838 -0.2673
 3685SOL    HW212497   5.938   6.960   1.760  1.1436  1.4892 -1.0422
 3686SOL     OW12498   7.481   0.202   1.743 -0.3626 -0.6396  0.3884
 3686SOL    HW112499   7.487   0.127   1.684  1.3526 -0.0844 -0.2166
 3686SOL    HW212500   7.567   0.206   1.786 -0.6137  0.6253  0.8237
 3687SOL     OW12501   0.147   0.343   2.403 -0.8092 -0.3801  0.0545
 3687SOL    HW112502   0.065   0.361   2.451 -0.4655 -2.1866  1.4308
 3687SOL    HW212503   0.123   0.276   2.339 -0.2921 -1.5509  1.0342
 3688SOL     OW12504   5.791   0.852   6.060  0.1926  0.2369  0.2731
 3688SOL    HW112505   5.813   0.934   6.016 -0.8409 -0.0463 -0.8352
 3688SOL    HW212506   5.768   0.878   6.150  2.7232  0.7767  0.8526
 3689SOL     OW12507   2.315   2.056   7.401  0.0225 -0.3931  0.1543
 3689SOL    HW112508   2.352   1.969   7.415  0.9175  0.2516  2.2281
 3689SOL    HW212509   2.235   2.041   7.350  0.3441 -2.3774  0.1735
 3690SOL     OW12510   3.669   0.842   6.558  0.7638  1.0422 -0.3122
 3690SOL    HW112511   3.616   0.813   6.632 -0.7756  1.8683 -1.0332
 3690SOL    HW212512   3.753   0.800   6.570 -0.6065 -1.8908 -0.1208
 3691SOL     OW12513   1.085   1.675  10.389 -0.0589 -0.4992 -0.0991
 3691SOL    HW112514   1.013   1.642  10.443 -1.4200  3.1712  0.5892
 3691SOL    HW212515   1.127   1.596  10.355 -1.2055 -2.9587  3.5589
 3692SOL     OW12516   6.964   4.754   8.474  0.5450  0.5224 -0.1486
 3692SOL    HW112517   6.966   4.754   8.378  1.7046  0.6613 -0.1391
 3692SOL    HW212518   6.897   4.691   8.496  1.2308 -0.5756 -1.0617
 3693SOL     OW12519   7.110   5.190   2.874 -0.2818 -1.3152  0.1995
 3693SOL    HW112520   7.128   5.146   2.791 -0.6572  0.0791 -0.6591
 3693SOL    HW212521   7.016   5.178   2.888 -0.6357  0.1677 -0.6632
 3694SOL     OW12522   5.256   3.708   6.824 -0.0591 -0.1919 -0.3512
 3694SOL    HW112523   5.293   3.796   6.826 -0.4462 -0.0300  1.4111
 3694SOL    HW212524   5.294   3.668   6.746  1.3595  0.9972 -0.3086
 3695SOL     OW12525   1.678   4.897   9.265  0.0308 -0.4379  0.1877
 3695SOL    HW112526   1.614   4.911   9.195  0.0640 -0.3853  0.1681
 3695SOL    HW212527   1.745   4.841   9.226  0.8419  0.8227 -0.2976
 3696SOL     OW12528   5.468   5.466  10.758 -0.2430 -0.0618  0.4427
 3696SOL    HW112529   5.478   5.371  10.756  2.0946  0.1101  0.5286
 3696SOL    HW212530   5.432   5.484  10.845 -1.4381 -0.8945  0.1429
 3697SOL     OW12531   5.255   5.606   9.823  0.0026 -0.3735 -0.0125
 3697SOL    HW112532   5.199   5.675   9.858 -0.2773 -0.3298 -0.5407
 3697SOL    HW212533   5.265   5.627   9.730 -0.7126 -1.4560 -0.3485
 3698SOL     OW12534   4.125   0.687   1.326 -0.1343 -0.5832  0.0872
 3698SOL    HW112535   4.046   0.656   1.369 -0.1351 -0.3401  0.2629
 3698SOL    HW212536   4.181   0.720   1.397 -1.2490  2.3778 -0.2487
 3699SOL     OW12537   6.261   6.799   8.056 -0.0406 -0.1112  0.1203
 3699SOL    HW112538   6.234   6.798   7.964  0.5713 -1.8825 -0.0880
 3699SOL    HW212539   6.342   6.851   8.057 -0.7020  0.9343 -0.1218
 3700SOL     OW12540   4.901   0.148   8.886 -0.4196  0.4252  0.1803
 3700SOL    HW112541   4.829   0.149   8.822 -0.5160 -0.3544  0.2619
 3700SOL    HW212542   4.900   0.235   8.924  0.6831  1.4895 -2.0138
 3701SOL     OW12543   7.708   6.273   6.464  0.0405  0.0544  0.4621
 3701SOL    HW112544   7.728   6.182   6.488  0.1067  0.5226  2.3679
 3701SOL    HW212545   7.786   6.322   6.487 -0.1381  0.6584 -0.1920
 3702SOL     OW12546   7.687   2.137   8.517  0.2602  0.9043  0.3350
 3702SOL    HW112547   7.667   2.049   8.485  0.5379  1.1225 -0.4645
 3702SOL    HW212548   7.783   2.144   8.510  0.2960  1.0689  0.9280
 3703SOL     OW12549   6.092   0.796   4.410  0.1429  0.0394 -0.3763
 3703SOL    HW112550   6.071   0.717   4.460  0.9795  0.8004  1.2493
 3703SOL    HW212551   6.167   0.771   4.356 -0.2809 -0.5655 -0.7106
 3704SOL     OW12552   5.581   2.895   8.207 -0.3879  0.2777 -0.3445
 3704SOL    HW112553   5.519   2.827   8.236  1.5314 -1.8784 -0.9613
 3704SOL    HW212554   5.597   2.875   8.115  0.7840  1.1259 -0.3491
 3705SOL     OW12555   6.253   2.785   7.883  0.2941  0.1098  0.6544
 3705SOL    HW112556   6.288   2.869   7.853 -0.6768 -0.9475 -4.2698
 3705SOL    HW212557   6.162   2.803   7.905  0.3867  0.5085  0.7201
 3706SOL     OW12558   7.681   0.912   0.855 -0.1599  0.0972  1.0195
 3706SOL    HW112559   7.772   0.885   0.871  0.0464  0.0489 -0.0977
 3706SOL    HW212560   7.683   1.007   0.859 -0.3093  0.0632  2.1564
 3707SOL     OW12561   0.073   4.725  10.056  0.2181 -0.7462 -0.5888
 3707SOL    HW112562   0.031   4.807  10.032  0.7547 -0.7751 -1.6571
 3707SOL    HW212563   0.163   4.749  10.076  0.0822 -0.9060  0.2649
 3708SOL     OW12564   7.751   3.373   3.675 -0.1190  0.0237  0.1180
 3708SOL    HW112565   7.815   3.441   3.697  0.2354 -0.4488  0.5791
 3708SOL    HW212566   7.669   3.403   3.715 -0.3564  0.9498 -1.0228
 3709SOL     OW12567   3.682   1.273   4.325  0.1990  0.0450  0.3514
 3709SOL    HW112568   3.675   1.283   4.230 -2.1010 -0.3263  0.4360
 3709SOL    HW212569   3.595   1.293   4.358  1.4401  2.2022  2.6348
 3710SOL     OW12570   5.600   2.115   2.050  0.1483  1.1072  0.0227
 3710SOL    HW112571   5.684   2.094   2.090  0.1363  2.8115  1.0912
 3710SOL    HW212572   5.588   2.208   2.069 -1.0617  1.3785 -1.8516
 3711SOL     OW12573   4.393   3.326   6.613 -0.2824  0.3564 -0.2684
 3711SOL    HW112574   4.298   3.314   6.605 -0.1876 -0.0455 -0.8338
 3711SOL    HW212575   4.406   3.350   6.705 -1.0210  1.3132 -0.3920
 3712SOL     OW12576   0.487   0.173   3.538 -0.5274  0.4114  0.0203
 3712SOL    HW112577   0.412   0.212   3.492 -2.4444 -2.0500  0.8354
 3712SOL    HW212578   0.480   0.208   3.627  0.6197  1.7996 -0.3882
 3713SOL     OW12579   5.212   7.513   0.802  0.6125 -0.4789 -0.5840
 3713SOL    HW112580   5.293   7.485   0.758  0.0691 -1.8957 -0.7266
 3713SOL    HW212581   5.215   7.469   0.887  0.8596  0.9482  0.1865
 3714SOL     OW12582   1.843   6.165  12.426 -0.5632  0.2358 -0.5989
 3714SOL    HW112583   1.884   6.089  12.467 -2.7070 -0.6148  0.0779
 3714SOL    HW212584   1.852   6.149  12.332 -0.4608 -0.5496 -0.4557
 3715SOL     OW12585   7.372   6.570   6.673  0.2460  0.4377  0.0707
 3715SOL    HW112586   7.404   6.640   6.616 -1.0095 -0.6071 -2.0616
 3715SOL    HW212587   7.315   6.518   6.617  1.0245 -2.2396  1.5741
 3716SOL     OW12588   6.167   4.545  10.275 -0.3041  0.6339 -0.4235
 3716SOL    HW112589   6.258   4.554  10.244  0.3177 -0.5532  0.9554
 3716SOL    HW212590   6.170   4.576  10.366 -1.0770 -0.2557 -0.0818
 3717SOL     OW12591   7.981   7.284   1.832 -0.2497 -0.8756 -0.4932
 3717SOL    HW112592   7.967   7.347   1.902  1.8477 -1.7573  0.8062
 3717SOL    HW212593   8.052   7.322   1.779  1.0556 -2.0823  0.3199
 3718SOL     OW12594   3.191   7.677   6.210  0.2966  0.7300 -0.1468
 3718SOL    HW112595   3.117   7.714   6.257 -0.3209  1.1466 -1.3885
 3718SOL    HW212596   3.173   7.696   6.118  1.2186 -0.4518 -0.6087
 3719SOL     OW12597   7.807   6.458  11.814  0.0822 -0.2407 -0.9179
 3719SOL    HW112598   7.733   6.518  11.806  0.6447  0.3088 -2.4497
 3719SOL    HW212599   7.846   6.477  11.899 -1.1172 -0.0607 -0.4013
 3720SOL     OW12600   0.331   0.485   0.786  0.3702 -0.5706 -0.1914
 3720SOL    HW112601   0.241   0.455   0.776  0.6938 -2.9973  2.7890
 3720SOL    HW212602   0.325   0.581   0.787 -2.0481 -0.6598 -0.7194
 3721SOL     OW12603   6.210   0.067   2.110  0.6117  0.1016 -0.4593
 3721SOL    HW112604   6.236  -0.025   2.100 -1.9865 -0.7629 -0.1026
 3721SOL    HW212605   6.190   0.076   2.203  0.9192  1.0586 -0.4792
 3722SOL     OW12606   2.539   0.547   6.968 -0.1748 -0.1696 -0.7688
 3722SOL    HW112607   2.444   0.561   6.975 -0.3460  0.9684 -3.7541
 3722SOL    HW212608   2.578   0.624   7.007 -0.4987 -0.2389 -0.2978
 3723SOL     OW12609   4.586   3.762   7.194 -0.3717 -0.2106 -0.0614
 3723SOL    HW112610   4.505   3.769   7.244 -0.2520  1.9368 -0.0698
 3723SOL    HW212611   4.617   3.673   7.210 -1.4233 -0.2641  1.9810
 3724SOL     OW12612   4.033   1.581   7.086 -0.3097  0.0788  0.7501
 3724SOL    HW112613   4.051   1.661   7.036 -0.2634 -0.2487  0.2467
 3724SOL    HW212614   4.049   1.510   7.025  2.1921 -0.4586  1.8987
 3725SOL     OW12615   4.301   1.968   6.137 -0.0619  0.2166  0.4558
 3725SOL    HW112616   4.308   2.044   6.196  0.4754  1.0455 -0.6292
 3725SOL    HW212617   4.359   1.990   6.064 -1.4884 -0.3050 -0.8864
 3726SOL     OW12618   2.068   0.702   5.832  0.1412 -0.1252  0.1146
 3726SOL    HW112619   2.130   0.668   5.768 -0.9990 -0.0447 -1.0945
 3726SOL    HW212620   1.997   0.637   5.834 -0.2527  0.3068  0.6391
 3727SOL     OW12621   2.798   6.786   4.569 -0.4175  0.2632  0.2096
 3727SOL    HW112622   2.790   6.720   4.638 -1.4043 -0.2750 -0.4115
 3727SOL    HW212623   2.709   6.820   4.557 -0.2757  0.2644 -0.8884
 3728SOL     OW12624   6.097   5.091  11.060  0.4996  0.1223  0.6974
 3728SOL    HW112625   6.083   5.171  11.008  1.0254  1.3651  2.3854
 3728SOL    HW212626   6.021   5.086  11.117 -0.2569 -1.4461 -0.3834
 3729SOL     OW12627   5.332   5.661  11.316  0.5766 -0.2297 -0.2010
 3729SOL    HW112628   5.370   5.585  11.272 -1.8068 -0.7346 -1.5260
 3729SOL    HW212629   5.306   5.719  11.245 -0.7410  0.2713  0.6649
 3730SOL     OW12630   1.160   7.007   3.178 -0.2400  0.3620  0.0790
 3730SOL    HW112631   1.190   7.005   3.269 -2.4413  1.2798  0.9157
 3730SOL    HW212632   1.236   6.981   3.126  0.6381 -1.7854  2.2646
 3731SOL     OW12633   5.130   6.060  12.462  0.5272  0.0412 -0.7860
 3731SOL    HW112634   5.176   6.111  12.395  1.1004  0.0228 -0.4146
 3731SOL    HW212635   5.174   6.083  12.544  0.8211 -1.0589 -0.6145
 3732SOL     OW12636   7.649   5.428  12.380  0.5445 -0.7718 -0.4679
 3732SOL    HW112637   7.686   5.481  12.309 -1.8000  0.1671 -1.0814
 3732SOL    HW212638   7.571   5.388  12.342  0.0703 -1.4831  1.1671
 3733SOL     OW12639   6.701   7.927   9.354  0.1367 -0.0800 -0.1526
 3733SOL    HW112640   6.672   7.839   9.328 -0.6538  0.4167 -0.9814
 3733SOL    HW212641   6.792   7.932   9.323  0.8486 -1.2705  1.5652
 3734SOL     OW12642   5.435   1.791   6.719 -0.1495 -0.3720 -0.4702
 3734SOL    HW112643   5.398   1.876   6.743 -0.8130 -0.3233 -1.5671
 3734SOL    HW212644   5.461   1.801   6.627  1.7928 -0.7027 -0.0008
 3735SOL     OW12645   4.216   0.785   2.484 -0.5002 -0.5471  0.1651
 3735SOL    HW112646   4.227   0.880   2.484  1.1999 -0.7196  0.8457
 3735SOL    HW212647   4.279   0.753   2.420  1.2739 -1.4054  2.2307
 3736SOL     OW12648   6.735   2.986   9.101 -0.9583 -0.6227 -0.3478
 3736SOL    HW112649   6.641   3.003   9.108 -1.2794 -2.2698 -0.2047
 3736SOL    HW212650   6.759   3.014   9.012 -1.9194 -1.5367 -0.9207
 3737SOL     OW12651   2.951   0.324   8.393 -0.5519 -0.3362 -0.0512
 3737SOL    HW112652   2.880   0.262   8.378 -0.5183 -0.6425  0.9595
 3737SOL    HW212653   3.006   0.318   8.315 -0.2255 -2.0347  0.2751
 3738SOL     OW12654   4.409   3.693   1.982 -0.0094  0.2746 -0.0795
 3738SOL    HW112655   4.350   3.637   1.932  0.5483 -0.2930 -0.1066
 3738SOL    HW212656   4.451   3.748   1.916 -0.0063  0.2123 -0.1297
 3739SOL     OW12657   0.392   0.511   7.211  0.1357  0.2717 -0.4222
 3739SOL    HW112658   0.407   0.420   7.236  1.7533  0.3671 -0.9314
 3739SOL    HW212659   0.302   0.528   7.236 -0.0324 -1.3125  0.1632
 3740SOL     OW12660   0.534   2.455  12.315 -0.8130 -0.1141 -0.8397
 3740SOL    HW112661   0.467   2.522  12.304 -1.9130 -1.1708 -0.6858
 3740SOL    HW212662   0.490   2.383  12.360  0.9580 -0.0235  1.2117
 3741SOL     OW12663   1.802   3.786   0.984  0.1351  0.0135  0.5309
 3741SOL    HW112664   1.708   3.790   1.002 -0.0590  2.2708 -0.6073
 3741SOL    HW212665   1.844   3.805   1.068 -0.4349 -0.3784  0.9070
 3742SOL     OW12666   5.655   7.972   0.342 -0.3288  0.2324 -0.3598
 3742SOL    HW112667   5.697   8.044   0.296 -0.1947 -0.2220 -0.9595
 3742SOL    HW212668   5.578   7.952   0.288 -0.4061 -0.0213 -0.1547
 3743SOL     OW12669   3.869   3.826   9.051 -0.3721 -0.5868  0.1249
 3743SOL    HW112670   3.917   3.773   8.988  0.6413  2.5983 -2.0279
 3743SOL    HW212671   3.778   3.822   9.022 -0.3072 -1.1967  0.0107
 3744SOL     OW12672   2.363   1.701   6.933  0.7305  0.1556  0.0148
 3744SOL    HW112673   2.361   1.697   6.838  1.1182 -1.4178  0.0417
 3744SOL    HW212674   2.445   1.658   6.957 -0.2789 -1.2945  1.1017
 3745SOL     OW12675   1.408   5.998  10.290 -0.0948 -0.8414 -0.1807
 3745SOL    HW112676   1.417   5.925  10.228  0.3898  1.0954 -2.5619
 3745SOL    HW212677   1.498   6.020  10.315 -0.3105 -1.9146  1.6758
 3746SOL     OW12678   1.297   2.189   7.438 -0.4680  0.2969  0.0318
 3746SOL    HW112679   1.243   2.189   7.359 -0.3296  0.0457 -0.0638
 3746SOL    HW212680   1.383   2.157   7.408 -0.1098  1.2035  0.0750
 3747SOL     OW12681   2.998   7.847   4.905 -0.0680 -0.2684 -0.4098
 3747SOL    HW112682   3.016   7.867   4.997  1.1290 -1.2303 -0.4211
 3747SOL    HW212683   2.914   7.800   4.907 -0.2722  0.1065  0.1262
 3748SOL     OW12684   0.685   0.127   0.312  0.4134 -0.2139 -0.1493
 3748SOL    HW112685   0.670   0.171   0.395 -1.7914 -1.4823  0.2186
 3748SOL    HW212686   0.636   0.045   0.319  0.3570 -0.4800 -2.5780
 3749SOL     OW12687   3.006   5.190  10.955  0.5457 -0.3458 -0.1476
 3749SOL    HW112688   2.951   5.113  10.972  0.3225 -0.1615 -0.0389
 3749SOL    HW212689   3.040   5.177  10.867 -1.3447  0.5681 -1.0557
 3750SOL     OW12690   7.841   2.108  11.634  0.0742 -0.0822  0.3758
 3750SOL    HW112691   7.800   2.118  11.548  0.4240 -0.1647  0.1974
 3750SOL    HW212692   7.844   2.197  11.669 -0.7623 -0.1467  0.6298
 3751SOL     OW12693   1.667   4.210   2.522  0.6697 -0.2777  1.0329
 3751SOL    HW112694   1.673   4.115   2.530 -0.7836 -0.9344 -3.0758
 3751SOL    HW212695   1.749   4.236   2.482  0.0993 -0.2415 -0.1561
 3752SOL     OW12696   4.534   2.735   6.148 -0.9225 -0.1201 -0.1860
 3752SOL    HW112697   4.568   2.692   6.227 -1.8446 -3.2712 -1.3317
 3752SOL    HW212698   4.572   2.823   6.150  0.3791 -0.6185  2.8905
 3753SOL     OW12699   0.313   4.460   3.005 -0.3092  0.3552 -0.2077
 3753SOL    HW112700   0.309   4.502   3.091 -1.1520 -0.1943  0.0326
 3753SOL    HW212701   0.294   4.531   2.943  1.7947  1.1009 -0.0815
 3754SOL     OW12702   5.366   1.284  10.098  0.2989  0.0313  0.6247
 3754SOL    HW112703   5.277   1.270  10.063  0.9509 -1.6182 -0.4802
 3754SOL    HW212704   5.352   1.331  10.180 -1.5554  0.3967  0.1591
 3755SOL     OW12705   3.160   6.708   4.848 -0.1235  0.1596  0.2659
 3755SOL    HW112706   3.227   6.645   4.821  0.4106  0.0837  1.7120
 3755SOL    HW212707   3.100   6.658   4.903 -0.4022  0.6285  0.3980
 3756SOL     OW12708   7.061   2.728   9.410  0.6121  0.0584  0.2091
 3756SOL    HW112709   7.046   2.780   9.331 -1.4425  0.2146  0.6308
 3756SOL    HW212710   7.063   2.637   9.379  0.6094  0.1654 -0.1115
 3757SOL     OW12711   2.786   2.642   7.649  0.2811  0.3995 -0.3071
 3757SOL    HW112712   2.831   2.722   7.676 -1.2002  0.9709  0.6183
 3757SOL    HW212713   2.759   2.600   7.732 -1.3276  0.3811 -0.7991
 3758SOL     OW12714   5.719   2.054  10.001  0.4085  0.4647  0.4199
 3758SOL    HW112715   5.782   2.126   9.992 -0.5884  1.2528 -0.4225
 3758SOL    HW212716   5.633   2.096   9.997 -0.1933 -0.7304  0.2926
 3759SOL     OW12717   0.130   4.307   9.336 -0.2445  0.1626  0.1379
 3759SOL    HW112718   0.072   4.303   9.261  0.0810 -3.1067 -0.0819
 3759SOL    HW212719   0.072   4.315   9.412 -0.7401  0.2611 -0.2516
 3760SOL     OW12720   5.165   7.717   3.058  0.4735  0.0397  0.0482
 3760SOL    HW112721   5.075   7.691   3.038  1.4103 -1.7344 -2.3201
 3760SOL    HW212722   5.159   7.809   3.083 -2.0384 -0.1924  0.5562
 3761SOL     OW12723   4.542   5.228   6.419 -0.0673 -0.3443  0.4643
 3761SOL    HW112724   4.494   5.288   6.362 -3.3647 -0.9078  2.3572
 3761SOL    HW212725   4.518   5.141   6.387 -0.2707 -0.6394  1.3743
 3762SOL     OW12726   0.248   1.924   6.344 -0.1443 -0.3466  0.3594
 3762SOL    HW112727   0.240   1.974   6.424 -1.2401 -0.2704  0.2164
 3762SOL    HW212728   0.176   1.861   6.347  0.5105 -1.1493 -0.0090
 3763SOL     OW12729   7.624   1.666   7.526 -0.0791  0.2541 -0.4801
 3763SOL    HW112730   7.548   1.697   7.575  1.0194  1.2042  0.6761
 3763SOL    HW212731   7.589   1.599   7.467 -1.8568  0.9216 -0.2315
 3764SOL     OW12732   6.676   5.268   1.116 -0.1471 -0.1117 -0.3839
 3764SOL    HW112733   6.739   5.335   1.090 -0.1936  0.0646 -0.0494
 3764SOL    HW212734   6.590   5.309   1.105 -0.1285  0.5397  1.5579
 3765SOL     OW12735   5.407   5.585   5.976  0.3067  0.5836 -1.1754
 3765SOL    HW112736   5.325   5.545   6.005 -0.1364  1.0171 -1.7808
 3765SOL    HW212737   5.466   5.578   6.051  0.0459 -0.6266 -1.0571
 3766SOL     OW12738   1.252   2.220   4.717  0.2031 -0.1154  0.0078
 3766SOL    HW112739   1.190   2.164   4.669 -0.3960 -1.4726  2.2429
 3766SOL    HW212740   1.227   2.309   4.693  0.2408 -0.7082 -2.5176
 3767SOL     OW12741   5.360   6.351   8.686  0.1053  0.3912  0.2208
 3767SOL    HW112742   5.327   6.423   8.633  1.7141  0.9238 -0.0899
 3767SOL    HW212743   5.439   6.321   8.641  0.2567 -0.6334  1.1097
 3768SOL     OW12744   4.544   4.391  11.555 -0.1605 -0.2383  0.0769
 3768SOL    HW112745   4.463   4.363  11.513 -2.8182  2.3482  2.9835
 3768SOL    HW212746   4.552   4.336  11.633  0.7662 -0.3015 -0.0435
 3769SOL     OW12747   2.548   2.383   7.323 -0.7142 -0.1119  0.2577
 3769SOL    HW112748   2.558   2.378   7.419  0.5928  2.2393  0.3250
 3769SOL    HW212749   2.561   2.476   7.303  0.7876 -0.7847 -2.3751
 3770SOL     OW12750   7.551   5.871   1.452 -0.4722 -0.3129  0.0528
 3770SOL    HW112751   7.581   5.838   1.367 -1.9032 -1.9702  0.1309
 3770SOL    HW212752   7.632   5.893   1.498  0.3034  2.4591 -2.3594
 3771SOL     OW12753   0.799   3.637   1.565  0.2402  0.2426  0.1309
 3771SOL    HW112754   0.779   3.568   1.502 -1.8110  0.2212  0.7632
 3771SOL    HW212755   0.829   3.592   1.643  2.0408  0.2408 -0.5170
 3772SOL     OW12756   7.495   3.517   0.253  0.2192  0.1605 -0.5979
 3772SOL    HW112757   7.460   3.511   0.342  2.0344 -0.3862  0.1276
 3772SOL    HW212758   7.457   3.441   0.208 -0.1264  0.0186 -0.0824
 3773SOL     OW12759   2.136   4.615  10.868 -0.0623  0.3082  0.3424
 3773SOL    HW112760   2.225   4.580  10.862  0.5961  2.0947 -1.3989
 3773SOL    HW212761   2.130   4.649  10.958  0.3514 -1.3725  1.0419
 3774SOL     OW12762   2.824   3.587   5.429 -0.3434  0.4855 -0.4293
 3774SOL    HW112763   2.761   3.650   5.464  0.6439  0.6076  1.2419
 3774SOL    HW212764   2.793   3.502   5.461  0.6373  0.6103  0.9393
 3775SOL     OW12765   0.797   6.693   5.893  0.2610 -0.0274  0.0287
 3775SOL    HW112766   0.738   6.706   5.967  1.3289  0.4933  0.8259
 3775SOL    HW212767   0.863   6.762   5.903  1.6037 -1.2271 -0.2084
 3776SOL     OW12768   1.828   5.500   5.614 -0.7164  0.0521  0.7136
 3776SOL    HW112769   1.882   5.547   5.550 -1.5000  1.4003  1.0046
 3776SOL    HW212770   1.886   5.433   5.650 -0.5848 -1.6049 -2.2556
 3777SOL     OW12771   7.275   1.181  12.193  0.4717  0.2065 -0.0291
 3777SOL    HW112772   7.338   1.245  12.225  0.6359 -0.0176  0.0991
 3777SOL    HW212773   7.286   1.106  12.251  0.4237 -0.0160 -0.3074
 3778SOL     OW12774   0.634   3.223   9.861 -0.0508 -0.1910  0.1338
 3778SOL    HW112775   0.643   3.138   9.905 -0.2359  0.0541  0.6451
 3778SOL    HW212776   0.665   3.287   9.925  1.4249  0.0326 -0.7343
 3779SOL     OW12777   0.837   3.901   9.313 -0.5860  0.1628 -0.5223
 3779SOL    HW112778   0.882   3.973   9.358 -1.1536 -0.9084  1.9222
 3779SOL    HW212779   0.899   3.829   9.317 -1.1735 -0.3309 -0.2599
 3780SOL     OW12780   3.041   4.933   9.749  0.3523 -0.0238  0.0350
 3780SOL    HW112781   2.954   4.961   9.777  0.3142 -1.0914  1.0977
 3780SOL    HW212782   3.080   4.895   9.828  1.6395  0.0993 -0.5208
 3781SOL     OW12783   0.717   0.014   2.084  0.2717  0.4071  0.5298
 3781SOL    HW112784   0.759  -0.063   2.120 -0.0948  0.0769  0.2594
 3781SOL    HW212785   0.767   0.088   2.119  1.3281  0.0147 -0.1320
 3782SOL     OW12786   4.546   0.483   8.545 -0.4569  0.0999  0.2507
 3782SOL    HW112787   4.493   0.517   8.473 -1.1503 -0.5688  0.4307
 3782SOL    HW212788   4.484   0.434   8.599  0.3167 -0.5861  0.5380
 3783SOL     OW12789   4.082   7.420   3.003  0.0560 -0.5918 -0.6014
 3783SOL    HW112790   4.003   7.453   2.962  1.1875  1.4456 -1.2603
 3783SOL    HW212791   4.147   7.417   2.933  0.5533 -2.4158 -0.1209
 3784SOL     OW12792   5.811   1.324   3.814  0.1196  0.4686 -0.0912
 3784SOL    HW112793   5.798   1.418   3.800 -0.9130  0.2643 -0.6196
 3784SOL    HW212794   5.733   1.283   3.775  1.4343 -0.7350 -1.6127
 3785SOL     OW12795   2.910   1.629   5.071  0.0222 -0.0313  0.0976
 3785SOL    HW112796   2.949   1.646   4.986  0.8441 -0.5678  0.3540
 3785SOL    HW212797   2.979   1.651   5.134  0.1704 -1.6558  0.5351
 3786SOL     OW12798   2.997   7.150   0.127 -0.1246 -1.0038 -0.1138
 3786SOL    HW112799   2.996   7.135   0.032 -0.2800 -0.5529 -0.1842
 3786SOL    HW212800   2.911   7.119   0.157 -1.0771  1.1097 -0.4827
 3787SOL     OW12801   7.178   5.346   1.957  0.5184 -0.1659 -0.2149
 3787SOL    HW112802   7.104   5.402   1.936 -0.6404 -0.5942  2.3667
 3787SOL    HW212803   7.254   5.405   1.955  0.0198  0.4982 -1.8327
 3788SOL     OW12804   5.872   0.955   0.268  0.3432  0.3326  0.1286
 3788SOL    HW112805   5.873   1.009   0.347 -0.2130  1.3630 -0.5460
 3788SOL    HW212806   5.817   1.004   0.206  2.1527  0.4068 -1.4899
 3789SOL     OW12807   5.549   6.577   5.178 -0.4180  0.2099  0.2420
 3789SOL    HW112808   5.549   6.497   5.127  0.6591  0.2743  0.1029
 3789SOL    HW212809   5.591   6.642   5.121  0.2060  0.4455  0.9535
 3790SOL     OW12810   2.391   6.556   9.755 -0.6566  0.6596  0.0166
 3790SOL    HW112811   2.397   6.590   9.666  0.2442 -1.7317 -0.9218
 3790SOL    HW212812   2.465   6.496   9.763 -0.9197  0.5480  2.2686
 3791SOL     OW12813   6.588   0.120   6.395 -0.0324 -0.4099 -0.4604
 3791SOL    HW112814   6.594   0.064   6.318  2.0631 -0.3643 -0.3874
 3791SOL    HW212815   6.654   0.187   6.382 -1.6416  1.3805  0.0390
 3792SOL     OW12816   6.460   2.646   3.007 -0.6476 -0.0639  0.0825
 3792SOL    HW112817   6.459   2.651   3.103 -2.1512  0.2334  0.0664
 3792SOL    HW212818   6.427   2.732   2.979  0.5859  0.1667 -0.7284
 3793SOL     OW12819   2.755   3.969  12.293 -0.6061 -0.2879 -0.4066
 3793SOL    HW112820   2.846   3.942  12.282 -0.5647 -0.5383  0.4557
 3793SOL    HW212821   2.706   3.914  12.233 -0.0312  1.0434 -2.1885
 3794SOL     OW12822   2.801   0.007  11.225 -0.0894 -0.9042  0.0869
 3794SOL    HW112823   2.845  -0.066  11.269  1.1907 -0.5128 -0.4790
 3794SOL    HW212824   2.708  -0.004  11.246  0.1411 -2.3850  0.4537
 3795SOL     OW12825   3.919   0.452   4.778  0.3011 -0.2712 -0.0838
 3795SOL    HW112826   3.833   0.420   4.806  0.5777 -1.6495 -0.7317
 3795SOL    HW212827   3.899   0.522   4.716 -0.3351 -0.0397  0.3700
 3796SOL     OW12828   6.884   2.133   7.309  0.5534 -0.0333 -0.5415
 3796SOL    HW112829   6.841   2.162   7.390  1.1515  0.4460 -0.3846
 3796SOL    HW212830   6.820   2.076   7.267 -0.4095  0.9903 -0.5210
 3797SOL     OW12831   7.091   1.167   2.745  0.2209 -0.1788  0.5140
 3797SOL    HW112832   7.135   1.214   2.674 -0.8984 -1.4014 -1.0865
 3797SOL    HW212833   7.035   1.234   2.787 -0.4947  0.2093 -0.9781
 3798SOL     OW12834   3.203   0.221  10.446  0.2810  0.1317  0.1008
 3798SOL    HW112835   3.239   0.304  10.412 -0.0496  0.0276 -0.5282
 3798SOL    HW212836   3.184   0.239  10.538  3.0948 -0.1891  0.8246
 3799SOL     OW12837   6.374   2.158   5.021  0.1138 -0.4036  0.4491
 3799SOL    HW112838   6.312   2.173   4.951 -1.1526 -0.2771  1.5640
 3799SOL    HW212839   6.418   2.076   4.997 -0.2925 -0.3640 -0.4717
 3800SOL     OW12840   7.125   5.234   5.240  0.2476  0.2099  0.1554
 3800SOL    HW112841   7.039   5.209   5.207  1.0925 -1.8744 -0.6696
 3800SOL    HW212842   7.174   5.260   5.162  0.4724  1.0521  0.5693
 3801SOL     OW12843   4.015   1.040   9.676  0.3839 -0.4339 -0.0588
 3801SOL    HW112844   3.974   1.045   9.762 -0.0317 -0.8654 -0.2245
 3801SOL    HW212845   3.941   1.034   9.615  0.6170  1.3901 -0.5786
 3802SOL     OW12846   6.102   6.019   7.884  0.8845 -0.6455  0.1685
 3802SOL    HW112847   6.090   5.972   7.802  1.7647  1.3625 -1.1941
 3802SOL    HW212848   6.184   6.067   7.872  0.5385  0.4408  1.8460
 3803SOL     OW12849   1.688   4.358   1.445  0.2091  0.1672 -0.0182
 3803SOL    HW112850   1.693   4.295   1.517  1.8146 -0.0777 -0.3149
 3803SOL    HW212851   1.627   4.318   1.383 -0.5412 -0.0056  0.7965
 3804SOL     OW12852   5.496   5.833   6.375  0.3528 -0.3091 -0.4698
 3804SOL    HW112853   5.573   5.830   6.431  0.6092 -1.7718 -0.8538
 3804SOL    HW212854   5.427   5.867   6.432 -0.2594 -4.8033  1.9873
 3805SOL     OW12855   6.625   5.174   9.637 -0.4268 -0.0500  0.5742
 3805SOL    HW112856   6.606   5.231   9.711 -1.5470  0.9069 -0.4155
 3805SOL    HW212857   6.661   5.232   9.570 -1.5044 -0.4789 -0.4186
 3806SOL     OW12858   2.020   1.358   4.221 -0.3303 -0.4715 -0.1208
 3806SOL    HW112859   1.967   1.438   4.217 -0.2553 -0.2575  1.8603
 3806SOL    HW212860   2.003   1.323   4.309  0.2230 -2.2385 -0.6757
 3807SOL     OW12861   7.917   1.545   2.047 -0.6230 -0.6979  0.2297
 3807SOL    HW112862   8.011   1.564   2.052 -0.4619 -1.4996  0.4738
 3807SOL    HW212863   7.908   1.492   1.967 -0.8957 -0.4641  0.1052
 3808SOL     OW12864   0.258   0.187   0.692 -0.7208 -0.0575 -0.0720
 3808SOL    HW112865   0.206   0.166   0.614 -0.2965  1.4826 -0.8050
 3808SOL    HW212866   0.202   0.246   0.742  0.4158  1.9788 -1.0866
 3809SOL     OW12867   6.363   5.753   6.280 -0.0947  0.8619 -0.2269
 3809SOL    HW112868   6.385   5.703   6.202  1.6725  1.3063 -0.0609
 3809SOL    HW212869   6.294   5.813   6.252 -1.8050 -1.1696 -0.5847
 3810SOL     OW12870   1.000   5.765   5.233 -0.0620  0.2803  0.3352
 3810SOL    HW112871   0.947   5.840   5.262  1.9718  2.3229 -0.8750
 3810SOL    HW212872   0.976   5.752   5.141 -1.2498 -1.3959  0.8438
 3811SOL     OW12873   0.889   2.444   5.821 -0.1001  0.2471 -0.5097
 3811SOL    HW112874   0.856   2.361   5.857 -0.1165  0.7806  0.7564
 3811SOL    HW212875   0.913   2.496   5.898 -1.3090  1.9347 -1.1942
 3812SOL     OW12876   1.450   4.284   0.501  0.1009 -0.1513 -0.0337
 3812SOL    HW112877   1.455   4.241   0.415  0.2486 -2.3853  1.0182
 3812SOL    HW212878   1.359   4.268   0.529 -0.2499  1.4535 -0.1664
 3813SOL     OW12879   4.153   0.564   4.753  0.5572 -0.0929 -0.0971
 3813SOL    HW112880   4.062   0.534   4.763  0.1942  0.7885 -0.5833
 3813SOL    HW212881   4.170   0.615   4.832  0.1448  0.8820 -0.6162
 3814SOL     OW12882   2.478   4.238   0.812 -0.2211  0.3371  0.0061
 3814SOL    HW112883   2.546   4.287   0.765 -1.3818  0.8460 -1.2034
 3814SOL    HW212884   2.452   4.297   0.883  0.4742  0.2138  0.3676
 3815SOL     OW12885   3.577   7.951  11.432  0.4207 -0.6737 -0.3968
 3815SOL    HW112886   3.575   8.038  11.393  1.8557 -0.3368  0.2116
 3815SOL    HW212887   3.490   7.941  11.472  0.3508  0.6373 -0.1575
 3816SOL     OW12888   7.426   2.082   2.114 -0.4251  0.0222  0.3708
 3816SOL    HW112889   7.339   2.120   2.109  0.3006  1.6012 -1.6142
 3816SOL    HW212890   7.452   2.068   2.022  0.4762 -2.7152  0.9494
 3817SOL     OW12891   4.170   6.848   7.262 -0.4009  0.6808  0.4296
 3817SOL    HW112892   4.144   6.759   7.288 -2.9150  1.0551 -0.4788
 3817SOL    HW212893   4.250   6.865   7.311 -0.7147 -1.4997  1.8517
 3818SOL     OW12894   7.146   4.317   6.377 -0.0067  0.3080  0.2858
 3818SOL    HW112895   7.060   4.279   6.389 -0.3088  1.4153  1.8958
 3818SOL    HW212896   7.156   4.325   6.282 -0.8614 -1.5592  0.0017
 3819SOL     OW12897   0.435   3.360   3.277 -0.6425  0.2472  0.0034
 3819SOL    HW112898   0.504   3.397   3.222  0.9846 -1.4540  0.8091
 3819SOL    HW212899   0.376   3.433   3.293  1.7616  2.2131  0.5375
 3820SOL     OW12900   6.558   6.920   0.385 -0.5442 -0.2523  1.0717
 3820SOL    HW112901   6.643   6.892   0.352 -0.0768 -0.8484  2.6749
 3820SOL    HW212902   6.523   6.977   0.317  1.6092  0.8715  0.8063
 3821SOL     OW12903   1.118   7.459   2.116  0.0171  0.0608  0.2526
 3821SOL    HW112904   1.085   7.371   2.103 -0.6725 -0.0666  2.5488
 3821SOL    HW212905   1.197   7.463   2.061 -1.0141 -1.2642 -1.4461
 3822SOL     OW12906   2.283   0.237  11.883  0.2807  0.5514 -0.4540
 3822SOL    HW112907   2.311   0.169  11.822  1.8618 -1.0535  1.8734
 3822SOL    HW212908   2.361   0.255  11.936 -1.1930  1.2394  1.6252
 3823SOL     OW12909   5.913   6.415   0.108  0.0963  0.5808  0.1594
 3823SOL    HW112910   5.971   6.483   0.074 -0.4121  0.4336 -1.0710
 3823SOL    HW212911   5.861   6.388   0.032  0.5833 -1.4913  0.5087
 3824SOL     OW12912   2.015   7.695   9.118  0.4119 -0.1438 -0.1319
 3824SOL    HW112913   2.059   7.780   9.124 -0.1272  0.3966 -2.7167
 3824SOL    HW212914   1.961   7.691   9.198 -0.7518  2.6955 -0.6459
 3825SOL     OW12915   2.334   5.208  10.994  0.3208  0.2736 -0.0261
 3825SOL    HW112916   2.422   5.196  10.959  0.8567  0.5100  1.1644
 3825SOL    HW212917   2.276   5.170  10.928  1.3666 -0.6868 -0.4257
 3826SOL     OW12918   4.020   6.081   5.565  0.5081 -0.2778 -0.5515
 3826SOL    HW112919   3.977   6.001   5.534 -0.2891  1.2102 -3.5853
 3826SOL    HW212920   3.953   6.127   5.616 -0.1472  0.0266 -1.6717
 3827SOL     OW12921   2.153   5.109   6.284 -0.0335  0.1286  0.1425
 3827SOL    HW112922   2.152   5.032   6.227 -0.4374 -0.7277  1.2602
 3827SOL    HW212923   2.060   5.125   6.304 -0.1539  2.1891 -1.6965
 3828SOL     OW12924   0.460   3.873   1.437  0.2496 -0.4530  0.2423
 3828SOL    HW112925   0.444   3.828   1.355 -1.3134  1.7382 -0.7648
 3828SOL    HW212926   0.541   3.922   1.422 -0.3958  0.4886 -0.3036
 3829SOL     OW12927   0.905   4.386   9.465 -0.5326  0.5759  0.0333
 3829SOL    HW112928   0.851   4.376   9.543 -1.7079 -0.9108 -0.9184
 3829SOL    HW212929   0.859   4.337   9.397  0.9166  1.0725 -1.3771
 3830SOL     OW12930   6.504   3.555   1.186 -0.3863 -0.7153  0.1632
 3830SOL    HW112931   6.446   3.553   1.261  0.3294  0.5332  0.7914
 3830SOL    HW212932   6.546   3.642   1.190  1.1212 -1.3641 -0.5447
 3831SOL     OW12933   6.262   4.713   0.266 -0.5822 -0.0770  0.5210
 3831SOL    HW112934   6.325   4.779   0.295  0.2398 -0.4234 -0.4281
 3831SOL    HW212935   6.207   4.760   0.203 -0.3603 -0.1473  0.2742
 3832SOL     OW12936   4.275   7.532   0.744  0.1810 -0.1844  0.1614
 3832SOL    HW112937   4.349   7.522   0.804  0.4958 -0.7778 -0.3161
 3832SOL    HW212938   4.229   7.448   0.748 -0.4900  0.1884  0.4736
 3833SOL     OW12939   0.727   4.245   1.770 -0.3358 -0.6564 -0.2259
 3833SOL    HW112940   0.763   4.237   1.682 -2.9540 -1.5080 -1.3395
 3833SOL    HW212941   0.782   4.311   1.813  0.0440  1.0581 -3.0537
 3834SOL     OW12942   6.235   5.626   1.898 -0.0576  0.2180  0.0914
 3834SOL    HW112943   6.146   5.593   1.898  0.2443 -0.8017 -2.3034
 3834SOL    HW212944   6.227   5.719   1.920 -1.6148  0.0030  0.5238
 3835SOL     OW12945   0.343   6.159   8.544 -0.3263 -0.6497  0.0979
 3835SOL    HW112946   0.381   6.114   8.468  1.1117 -0.6177  0.7639
 3835SOL    HW212947   0.341   6.092   8.613 -1.0943 -0.5220  0.2089
 3836SOL     OW12948   3.654   4.848   1.381  0.6342  0.3398  0.2279
 3836SOL    HW112949   3.678   4.819   1.468  0.0638 -2.0647 -0.3469
 3836SOL    HW212950   3.559   4.860   1.384  0.3716 -1.2938 -0.4123
 3837SOL     OW12951   2.339   3.140   4.715 -0.4692 -0.2074  0.0358
 3837SOL    HW112952   2.310   3.069   4.773  0.3608  0.0706  0.8152
 3837SOL    HW212953   2.376   3.205   4.774  0.5843 -0.0012 -0.8226
 3838SOL     OW12954   2.692   2.863   9.570 -0.1193 -0.3135  0.3470
 3838SOL    HW112955   2.724   2.798   9.507  1.9075  0.4948  0.4803
 3838SOL    HW212956   2.748   2.940   9.556 -0.3759  0.2958  2.3551
 3839SOL     OW12957   7.428   4.387   3.311 -0.1499  0.0455  0.8830
 3839SOL    HW112958   7.514   4.349   3.332  0.8392  1.8466  0.3807
 3839SOL    HW212959   7.444   4.436   3.230 -1.4754  1.0159  1.1879
 3840SOL     OW12960   0.980   3.848   3.602  1.1234 -0.0692 -0.0962
 3840SOL    HW112961   1.050   3.901   3.640  0.9463  0.8325 -0.9989
 3840SOL    HW212962   0.924   3.825   3.677  2.0186 -0.2704  0.5332
 3841SOL     OW12963   0.849   0.975   9.782 -0.0847 -0.2509  0.6419
 3841SOL    HW112964   0.822   1.017   9.863  1.1499  0.3746  0.7630
 3841SOL    HW212965   0.928   0.927   9.806  0.8892  0.7717 -0.3672
 3842SOL     OW12966   5.018   7.197   8.510 -0.1978 -0.9056  0.0505
 3842SOL    HW112967   5.069   7.119   8.530  2.1778  0.3337 -0.8330
 3842SOL    HW212968   5.023   7.205   8.414  0.5366  0.8840  0.2020
 3843SOL     OW12969   3.621   4.909   3.968  0.2130 -0.0412  0.7027
 3843SOL    HW112970   3.568   4.892   4.046 -1.7654  0.0451 -0.5420
 3843SOL    HW212971   3.634   4.823   3.928  0.4778  0.0082  0.6791
 3844SOL     OW12972   7.499   6.902   0.999  0.1954 -0.1399 -0.3082
 3844SOL    HW112973   7.537   6.981   0.960 -0.9071  1.8711  2.3838
 3844SOL    HW212974   7.465   6.853   0.924 -0.4621  2.7018 -2.0427
 3845SOL     OW12975   6.437   5.947   1.817 -0.3180  0.1438  0.0287
 3845SOL    HW112976   6.350   5.945   1.855  0.2182  0.2257  1.2952
 3845SOL    HW212977   6.473   6.031   1.842  0.1666  0.0719 -0.4067
 3846SOL     OW12978   1.832   4.068  11.341 -0.2161 -0.0688  0.5199
 3846SOL    HW112979   1.883   4.145  11.319  1.4357 -1.0228  0.8823
 3846SOL    HW212980   1.794   4.039  11.258 -0.8083  1.0670  0.3723
 3847SOL     OW12981   0.907   3.772  11.234 -0.2389 -0.1486 -0.2725
 3847SOL    HW112982   0.987   3.725  11.212 -1.5428 -2.3356 -0.7232
 3847SOL    HW212983   0.895   3.834  11.162  1.3666  0.7244  0.1655
 3848SOL     OW12984   7.310   2.559   0.077  0.5420  0.2355 -0.1114
 3848SOL    HW112985   7.219   2.581   0.057  0.2578 -1.3526 -0.6800
 3848SOL    HW212986   7.341   2.512  -0.001  1.8972  0.8673  0.0208
 3849SOL     OW12987   6.718   1.175   4.219  0.0159 -0.3320 -0.8338
 3849SOL    HW112988   6.754   1.255   4.183  0.3366 -0.4065 -0.6824
 3849SOL    HW212989   6.732   1.183   4.314 -0.7182 -0.1846 -0.7340
 3850SOL     OW12990   2.949   7.401  10.797  0.1031  0.0641  0.4618
 3850SOL    HW112991   2.864   7.415  10.839 -1.5443  3.4600 -3.3177
 3850SOL    HW212992   2.995   7.484  10.807  3.0571 -1.6235  2.1871
 3851SOL     OW12993   2.265   3.703  10.840 -0.3658 -0.3346  0.2221
 3851SOL    HW112994   2.270   3.719  10.746  0.0695 -0.6102  0.1936
 3851SOL    HW212995   2.353   3.723  10.872 -0.8476  1.0053  0.7714
 3852SOL     OW12996   0.656   4.458   2.431  0.3856 -0.3831  0.1672
 3852SOL    HW112997   0.620   4.525   2.489  0.9557  0.1353 -0.0749
 3852SOL    HW212998   0.661   4.379   2.485 -0.7306 -0.3715  0.3223
 3853SOL     OW12999   2.733   0.791   6.717 -0.4296 -0.0129  0.2574
 3853SOL    HW113000   2.661   0.754   6.666  0.5293 -0.2141 -1.0101
 3853SOL    HW213001   2.719   0.886   6.712 -0.0467  0.0008 -0.8922
 3854SOL     OW13002   3.800   4.606   3.373 -0.5398  0.4155 -0.0319
 3854SOL    HW113003   3.726   4.664   3.390  0.1409  1.7324 -1.3625
 3854SOL    HW213004   3.873   4.646   3.421 -0.5312 -0.5377  0.7754
 3855SOL     OW13005   0.913   3.475   1.117  0.3472 -0.1409 -0.1187
 3855SOL    HW113006   0.925   3.394   1.067  0.2198 -0.3129  0.1250
 3855SOL    HW213007   0.980   3.534   1.084  0.6034 -0.4317 -0.1210
 3856SOL     OW13008   0.889   6.918   6.321  0.3325  0.1926  0.3605
 3856SOL    HW113009   0.842   6.857   6.264  1.4278  0.6801 -1.1167
 3856SOL    HW213010   0.820   6.957   6.375 -0.9254  0.5276 -1.3862
 3857SOL     OW13011   4.312   7.721   4.431  0.4111 -0.0590  0.5824
 3857SOL    HW113012   4.401   7.755   4.441  0.4938  0.5759 -1.6645
 3857SOL    HW213013   4.320   7.650   4.367 -0.9356  1.6738 -1.7126
 3858SOL     OW13014   1.126   2.224  10.858 -0.2046 -0.7029  0.4258
 3858SOL    HW113015   1.179   2.228  10.938  1.0558  0.5119 -0.4362
 3858SOL    HW213016   1.081   2.139  10.864 -0.3378 -0.5469  2.5211
 3859SOL     OW13017   7.782   3.089   3.662 -0.2535  0.1113 -0.0654
 3859SOL    HW113018   7.795   3.179   3.691  2.4474 -0.2039  0.0245
 3859SOL    HW213019   7.766   3.096   3.568 -1.3085  0.7356  0.1514
 3860SOL     OW13020   5.512   6.902  12.446 -0.2546 -0.5872 -0.4130
 3860SOL    HW113021   5.506   6.841  12.519  0.8498  0.2614  0.4118
 3860SOL    HW213022   5.452   6.866  12.380 -0.8060 -1.6969  0.6534
 3861SOL     OW13023   4.650   1.053  10.051 -0.8508  0.4355  0.0630
 3861SOL    HW113024   4.626   0.960  10.055 -3.5001  1.0735  1.0514
 3861SOL    HW213025   4.596   1.089   9.981  1.5318  0.9375 -1.6049
 3862SOL     OW13026   1.092   5.000  11.248  0.3040  0.3959  0.3697
 3862SOL    HW113027   1.091   4.923  11.306  0.6766  0.2492  0.1887
 3862SOL    HW213028   1.021   5.055  11.280  1.4549  1.0583  1.9735
 3863SOL     OW13029   3.381   2.504  11.159  0.7069 -0.4644 -0.3040
 3863SOL    HW113030   3.350   2.553  11.235 -1.3237 -1.0297 -0.7005
 3863SOL    HW213031   3.388   2.569  11.090  1.0554 -0.2225 -0.0477
 3864SOL     OW13032   4.043   2.168   0.042 -0.6575 -0.2927  0.0229
 3864SOL    HW113033   3.973   2.233   0.040 -1.5581 -1.2369  0.1362
 3864SOL    HW213034   4.101   2.197   0.112 -1.5218 -0.0904  0.6598
 3865SOL     OW13035   0.640   1.968   1.029  0.3189 -0.1001 -0.0751
 3865SOL    HW113036   0.601   1.892   1.071 -0.0452 -0.6904 -1.4008
 3865SOL    HW213037   0.701   2.003   1.093  0.6600 -1.6475  0.4878
 3866SOL     OW13038   5.839   2.000   4.565  0.3403  0.4928  0.3243
 3866SOL    HW113039   5.781   1.925   4.578 -0.4799  0.7650 -1.5136
 3866SOL    HW213040   5.917   1.964   4.524  0.4746  0.4836  0.5813
 3867SOL     OW13041   3.242   0.411  10.993  0.2271 -0.0549  0.4460
 3867SOL    HW113042   3.216   0.453  10.911  0.0919  1.2458  1.1314
 3867SOL    HW213043   3.337   0.403  10.988  0.1580 -0.5714 -0.1019
 3868SOL     OW13044   1.943   1.581   8.653  0.0706 -0.1195  0.2113
 3868SOL    HW113045   2.034   1.581   8.624  0.2516  0.2940  0.7456
 3868SOL    HW213046   1.895   1.626   8.584  0.2065 -0.6769 -0.2526
 3869SOL     OW13047   5.740   7.681   4.901 -0.4084 -0.3926  0.4820
 3869SOL    HW113048   5.817   7.627   4.921 -0.8709 -0.6125  1.8150
 3869SOL    HW213049   5.696   7.635   4.830  0.9761  0.0432 -0.7118
 3870SOL     OW13050   5.441   5.426  10.264  0.3428  0.8044  0.6862
 3870SOL    HW113051   5.451   5.331  10.252 -0.3195  0.6930  0.9787
 3870SOL    HW213052   5.407   5.457  10.180 -1.7561  0.4117  1.3216
 3871SOL     OW13053   3.574   5.710   4.049  0.7337 -0.0436  0.1806
 3871SOL    HW113054   3.595   5.688   4.140  2.5332  1.0990  0.0900
 3871SOL    HW213055   3.645   5.672   3.998 -0.3451 -0.8076 -0.8022
 3872SOL     OW13056   2.273   5.231   8.219  0.6001 -0.6858  0.3765
 3872SOL    HW113057   2.258   5.283   8.298  2.0357 -1.1189  0.9620
 3872SOL    HW213058   2.337   5.281   8.169  1.1956 -1.3681  0.4437
 3873SOL     OW13059   6.910   7.108   2.520  0.2949  0.1543 -0.0733
 3873SOL    HW113060   6.928   7.170   2.449 -0.0824  0.4171  0.0525
 3873SOL    HW213061   6.815   7.093   2.515  0.3698 -0.3324 -0.0345
 3874SOL     OW13062   3.495   1.505  12.228 -0.6673  0.0518  0.3828
 3874SOL    HW113063   3.483   1.573  12.162 -0.8391 -0.6160 -0.2924
 3874SOL    HW213064   3.420   1.447  12.217  0.1002 -0.9197  0.1165
 3875SOL     OW13065   5.077   3.488  12.468  0.0688  0.4023 -0.5080
 3875SOL    HW113066   4.997   3.437  12.458  0.7915 -1.1953  1.2247
 3875SOL    HW213067   5.072   3.524  12.557  0.6950  1.3711 -0.8455
 3876SOL     OW13068   6.321   0.971   2.509 -0.5522 -0.7416  0.2894
 3876SOL    HW113069   6.247   1.023   2.539 -0.3350 -1.7314  2.7440
 3876SOL    HW213070   6.392   0.994   2.568 -0.0159 -2.6069  0.4424
 3877SOL     OW13071   1.840   7.664  10.948  0.1679  0.7665  0.3519
 3877SOL    HW113072   1.753   7.697  10.928  0.3498  0.4642 -1.0247
 3877SOL    HW213073   1.825   7.597  11.015 -0.6260  0.8426  0.2617
 3878SOL     OW13074   5.673   5.082   2.464  0.4109  0.4823  0.1322
 3878SOL    HW113075   5.746   5.025   2.485  1.1191  1.1962 -0.3341
 3878SOL    HW213076   5.687   5.161   2.516 -0.5179  0.2826  0.7147
 3879SOL     OW13077   1.812   0.985   5.514  0.1403  0.1801  0.3346
 3879SOL    HW113078   1.857   1.052   5.463 -0.4763 -0.1415 -0.6513
 3879SOL    HW213079   1.864   0.977   5.594  0.3638  1.6381  0.3577
 3880SOL     OW13080   3.266   0.164   7.810 -0.1858 -0.9388 -0.2556
 3880SOL    HW113081   3.174   0.191   7.808  0.1998  0.7217  1.4988
 3880SOL    HW213082   3.271   0.100   7.881 -0.1194 -1.6998 -0.9308
 3881SOL     OW13083   1.180   2.628   8.684 -0.0588  0.3610 -0.0589
 3881SOL    HW113084   1.174   2.584   8.769 -0.9491 -2.5343 -1.4923
 3881SOL    HW213085   1.223   2.565   8.627 -1.0772  1.4839 -2.1930
 3882SOL     OW13086   3.104   2.665   6.800  0.4705 -0.2444 -0.2095
 3882SOL    HW113087   3.112   2.586   6.853  0.7041  0.0837  0.2461
 3882SOL    HW213088   3.049   2.638   6.726  0.1053 -0.6903  0.2174
 3883SOL     OW13089   7.203   0.614   1.715 -0.1939 -0.3066  0.1834
 3883SOL    HW113090   7.248   0.697   1.731 -1.4663 -0.0533  3.0602
 3883SOL    HW213091   7.124   0.639   1.667 -0.0839  0.0077  0.1591
 3884SOL     OW13092   7.460   4.143   8.683  0.3555  0.0188  0.4918
 3884SOL    HW113093   7.465   4.228   8.727 -0.0192  0.0474  0.4806
 3884SOL    HW213094   7.441   4.164   8.592 -1.7726 -0.1353  0.8602
 3885SOL     OW13095   1.819   4.010  11.935  0.2747 -0.3701  0.4306
 3885SOL    HW113096   1.890   4.063  11.971  1.1443 -1.0412 -0.2583
 3885SOL    HW213097   1.798   4.052  11.852  0.6327 -0.7999  0.1150
 3886SOL     OW13098   1.346   7.875   6.669  0.7146 -0.1346  0.2577
 3886SOL    HW113099   1.374   7.784   6.679  0.1389 -0.3187  0.2400
 3886SOL    HW213100   1.348   7.910   6.758  0.1058 -0.4196  0.3908
 3887SOL     OW13101   4.315   3.734  11.399  0.3102 -0.1809 -0.4751
 3887SOL    HW113102   4.376   3.699  11.464 -0.4473 -1.4826 -0.4349
 3887SOL    HW213103   4.284   3.817  11.437  0.0581 -0.8112  0.7256
 3888SOL     OW13104   2.038   1.283   3.044  0.4173 -0.4014 -0.0912
 3888SOL    HW113105   2.101   1.346   3.078 -0.2346  1.1620 -1.5995
 3888SOL    HW213106   1.958   1.334   3.029 -0.5852 -1.8955 -0.0812
 3889SOL     OW13107   4.515   6.671   4.677  0.0240  0.6841  0.2497
 3889SOL    HW113108   4.427   6.703   4.695 -0.0976 -0.1780  1.3171
 3889SOL    HW213109   4.550   6.647   4.763  1.1876  0.7382 -0.1928
 3890SOL     OW13110   5.924   7.447   9.571  0.3892 -0.2628  0.2219
 3890SOL    HW113111   5.845   7.405   9.539  0.4628  0.1273 -0.5009
 3890SOL    HW213112   5.908   7.462   9.664  0.0291 -1.1092  0.3023
 3891SOL     OW13113   1.292   6.552   4.002  0.2767 -0.4566 -0.1257
 3891SOL    HW113114   1.289   6.457   3.999  0.8693 -0.4701 -3.2671
 3891SOL    HW213115   1.203   6.580   3.980  0.9854 -0.4319 -3.5590
 3892SOL     OW13116   2.231   4.817   3.925 -0.1880  0.3898 -0.0474
 3892SOL    HW113117   2.173   4.747   3.894 -2.0052  2.0454 -0.6194
 3892SOL    HW213118   2.252   4.868   3.846  1.6754  0.1356  0.2430
 3893SOL     OW13119   7.472   5.993   6.695  0.4974  0.0916  0.1329
 3893SOL    HW113120   7.411   5.934   6.649 -0.7080  1.5370 -0.1962
 3893SOL    HW213121   7.462   6.077   6.651  1.4735  0.7983  1.2111
 3894SOL     OW13122   0.846   2.285   6.113  0.4262 -0.4909 -0.2562
 3894SOL    HW113123   0.763   2.254   6.076  0.0568 -0.2364  0.3429
 3894SOL    HW213124   0.821   2.329   6.194  1.1566 -0.4582 -0.0422
 3895SOL     OW13125   4.816   1.959   3.664  0.5452 -0.1960 -0.2111
 3895SOL    HW113126   4.907   1.933   3.680  1.1159 -0.6684 -3.4680
 3895SOL    HW213127   4.782   1.891   3.606 -0.6558  1.9175 -2.1067
 3896SOL     OW13128   0.922   3.468  12.356  0.1592 -0.3147 -0.5045
 3896SOL    HW113129   0.852   3.511  12.406  0.0276  1.3367 -2.0178
 3896SOL    HW213130   0.978   3.429  12.423 -0.0142  1.7983  0.9827
 3897SOL     OW13131   3.112   7.112   5.475 -0.0027 -1.0653  0.3758
 3897SOL    HW113132   3.076   7.153   5.397 -0.3449 -0.7725  0.6818
 3897SOL    HW213133   3.121   7.184   5.538  0.0711 -1.3322  0.6743
 3898SOL     OW13134   3.212   1.954   9.739 -0.3588 -0.4656  0.1830
 3898SOL    HW113135   3.305   1.977   9.743 -0.4247  0.0393 -0.8686
 3898SOL    HW213136   3.173   1.999   9.814  0.2187 -0.5633  0.5436
 3899SOL     OW13137   6.416   7.689   7.219  0.0704 -0.0851  0.7000
 3899SOL    HW113138   6.379   7.718   7.136 -0.8194  1.2006  1.5127
 3899SOL    HW213139   6.446   7.770   7.262  0.6303 -0.7337  1.5847
 3900SOL     OW13140   6.617   0.596   0.104  0.0713 -0.1533  0.1735
 3900SOL    HW113141   6.565   0.645   0.168 -1.5692 -0.0362 -1.1518
 3900SOL    HW213142   6.603   0.642   0.022  0.4548 -1.4458 -0.6537
 3901SOL     OW13143   6.156   7.234   6.014 -0.5734  0.3354 -0.3018
 3901SOL    HW113144   6.125   7.324   6.010 -0.5097  0.3384 -0.7494
 3901SOL    HW213145   6.077   7.182   6.024 -0.5411  0.5058  1.1415
 3902SOL     OW13146   7.515   6.403  10.234 -0.6071 -0.3094 -0.4067
 3902SOL    HW113147   7.541   6.495  10.247  1.3809 -0.6907 -1.2717
 3902SOL    HW213148   7.457   6.405  10.157 -0.6458  0.2289 -0.3685
 3903SOL     OW13149   5.135   0.968   6.557 -0.4998 -0.1077  0.3006
 3903SOL    HW113150   5.068   0.907   6.588  0.5335 -0.3876  2.1338
 3903SOL    HW213151   5.189   0.986   6.634 -0.0464  2.2099 -0.4857
 3904SOL     OW13152   4.263   7.263   5.937 -0.3778 -0.0622  0.5296
 3904SOL    HW113153   4.227   7.294   5.854  1.4771  1.7241  0.3214
 3904SOL    HW213154   4.199   7.291   6.003 -0.8291  0.4076 -0.0981
 3905SOL     OW13155   7.574   6.663   9.137 -0.0698  0.5761 -0.1173
 3905SOL    HW113156   7.596   6.590   9.195  0.0642  1.8511  1.5195
 3905SOL    HW213157   7.491   6.638   9.097 -0.1271 -0.3925  0.5630
 3906SOL     OW13158   5.456   1.663   8.712  0.1708  0.1710 -0.0016
 3906SOL    HW113159   5.513   1.652   8.636  0.6340  1.7403  0.0709
 3906SOL    HW213160   5.502   1.727   8.766  0.2467 -1.4919  2.0208
 3907SOL     OW13161   3.872   0.632   9.077  0.8770  0.3160 -0.7798
 3907SOL    HW113162   3.886   0.694   9.005  1.9027 -0.1347 -0.9916
 3907SOL    HW213163   3.958   0.593   9.091 -0.0071 -2.1845 -1.6935
 3908SOL     OW13164   3.786   3.419   6.272 -0.2695 -0.2440 -0.0538
 3908SOL    HW113165   3.804   3.344   6.214 -0.5082 -0.4845  0.1815
 3908SOL    HW213166   3.693   3.410   6.295 -0.1754 -0.1513  0.3710
 3909SOL     OW13167   1.176   5.957   1.280  0.2080 -0.2075  0.2119
 3909SOL    HW113168   1.200   6.029   1.338  1.3943  0.1573 -0.6926
 3909SOL    HW213169   1.082   5.946   1.294 -0.4005  2.6699 -0.8298
 3910SOL     OW13170   0.843   2.691   3.265 -0.1156  0.3760 -0.2590
 3910SOL    HW113171   0.853   2.679   3.171 -1.3354 -1.8829 -0.1803
 3910SOL    HW213172   0.758   2.734   3.275  0.1189  0.8281 -0.1841
 3911SOL     OW13173   0.860   1.453  10.505  0.3110  0.0337  0.7005
 3911SOL    HW113174   0.851   1.422  10.415 -0.5219 -1.0109  1.1271
 3911SOL    HW213175   0.883   1.375  10.555  1.9750  0.8232  1.2397
 3912SOL     OW13176   2.309   1.754   0.049 -0.3015  0.0896 -1.0906
 3912SOL    HW113177   2.240   1.782  -0.010 -1.4006 -1.5112 -0.6216
 3912SOL    HW213178   2.264   1.709   0.120  0.6974  4.0636  2.4585
 3913SOL     OW13179   7.168   7.030  11.374 -0.2327  0.2781  0.0308
 3913SOL    HW113180   7.198   6.981  11.297 -0.2330 -0.0878  0.2629
 3913SOL    HW213181   7.181   6.970  11.447  1.0431  1.0999  0.5082
 3914SOL     OW13182   5.879   4.643   7.644  0.0790  0.3867  0.7657
 3914SOL    HW113183   5.844   4.585   7.711  1.0735 -0.5711  0.4954
 3914SOL    HW213184   5.949   4.592   7.603  0.7826  1.6715  0.3093
 3915SOL     OW13185   3.468   6.142   3.361  0.2502 -0.5499 -0.4178
 3915SOL    HW113186   3.489   6.069   3.303  0.6089 -0.5222 -0.3255
 3915SOL    HW213187   3.424   6.205   3.305 -0.4890 -1.0386 -0.3970
 3916SOL     OW13188   2.345   3.134   9.840  0.0326  0.4815  0.4067
 3916SOL    HW113189   2.375   3.202   9.900  0.5336 -1.1433  2.1034
 3916SOL    HW213190   2.382   3.053   9.876 -1.2341 -0.7935 -1.0408
 3917SOL     OW13191   3.398   2.242   6.977  0.0300  0.1416  0.2993
 3917SOL    HW113192   3.476   2.241   6.922  0.9153 -1.1119  1.5094
 3917SOL    HW213193   3.431   2.227   7.066 -1.4930  0.6478  0.9919
 3918SOL     OW13194   4.261   5.844   0.844  0.6272  0.1889 -0.1060
 3918SOL    HW113195   4.247   5.766   0.898 -0.5369  0.0463 -0.5906
 3918SOL    HW213196   4.178   5.891   0.848  1.0342  0.9635 -0.5271
 3919SOL     OW13197   5.046   0.796   0.087  0.5876  0.2028 -0.2846
 3919SOL    HW113198   5.047   0.730   0.018  1.4238 -1.0146  0.8439
 3919SOL    HW213199   5.020   0.877   0.043  0.4892 -0.6685 -1.8848
 3920SOL     OW13200   7.930   2.001   2.061  0.0099  0.0711 -0.2166
 3920SOL    HW113201   7.989   1.978   2.134  0.8498 -2.0725 -1.4814
 3920SOL    HW213202   7.943   2.095   2.049  1.0775  0.1642  1.3400
 3921SOL     OW13203   5.701   3.553   9.749  0.1311 -0.4656 -0.5555
 3921SOL    HW113204   5.646   3.594   9.815  0.9320 -0.7321  0.2890
 3921SOL    HW213205   5.639   3.521   9.683 -0.7615 -1.0710  0.5434
 3922SOL     OW13206   5.524   5.426   1.582  0.7358 -0.4251  0.5517
 3922SOL    HW113207   5.595   5.471   1.537 -0.0570 -0.8142 -1.1592
 3922SOL    HW213208   5.486   5.493   1.640  0.2551  0.8307 -1.1589
 3923SOL     OW13209   1.627   5.415   3.051  0.1889 -0.1430 -0.4108
 3923SOL    HW113210   1.596   5.429   2.961  0.4199  1.0836 -0.3146
 3923SOL    HW213211   1.574   5.342   3.083 -3.1237  2.1887 -0.0550
 3924SOL     OW13212   1.704   3.693  10.888 -0.2592  0.4727 -0.3348
 3924SOL    HW113213   1.728   3.760  10.824  1.6744 -1.6250 -1.9738
 3924SOL    HW213214   1.788   3.656  10.917 -1.2403 -2.1457 -0.5604
 3925SOL     OW13215   4.057   0.520   7.584  0.5999  0.3074 -0.0683
 3925SOL    HW113216   3.991   0.480   7.528  0.2690  0.9009 -0.1032
 3925SOL    HW213217   4.025   0.608   7.601  1.1998  0.4775  0.2203
 3926SOL     OW13218   5.189   5.547  11.909 -0.8052 -0.0541  0.1253
 3926SOL    HW113219   5.149   5.596  11.837 -1.8171  1.4469  1.6233
 3926SOL    HW213220   5.116   5.529  11.969  0.0620 -0.9521  0.9499
 3927SOL     OW13221   7.108   5.358  11.267 -0.2754 -0.1239 -0.1606
 3927SOL    HW113222   7.132   5.414  11.193  2.3381  0.1147  0.7575
 3927SOL    HW213223   7.094   5.420  11.339  3.7644 -0.4746  1.1691
 3928SOL     OW13224   7.947   4.487   5.909  0.0267  0.2734 -0.3841
 3928SOL    HW113225   7.947   4.559   5.971 -0.4342  0.8178 -0.9983
 3928SOL    HW213226   8.035   4.451   5.913  0.0523  0.4170  0.4461
 3929SOL     OW13227   1.179   4.122   0.294  0.3162  0.6954  0.0995
 3929SOL    HW113228   1.094   4.167   0.292  0.1517  0.3957  0.2359
 3929SOL    HW213229   1.243   4.190   0.274 -0.0841  0.6124 -1.6316
 3930SOL     OW13230   0.905   7.406   4.354  0.0889 -0.7607 -0.4466
 3930SOL    HW113231   0.833   7.359   4.313 -0.5580  0.0181 -0.2297
 3930SOL    HW213232   0.960   7.435   4.281 -0.7420  0.1100 -0.7563
 3931SOL     OW13233   3.388   7.654   1.050  0.1259  0.1371  0.0081
 3931SOL    HW113234   3.459   7.637   1.112 -0.4295  0.0455  0.6370
 3931SOL    HW213235   3.309   7.624   1.096 -0.4037  0.8902 -0.3955
 3932SOL     OW13236   6.932   4.021   5.199  0.2959 -0.2895 -0.3375
 3932SOL    HW113237   6.941   4.111   5.231 -0.2225 -0.0647 -0.8271
 3932SOL    HW213238   6.948   3.967   5.276  0.5844  0.2217 -0.0340
 3933SOL     OW13239   6.925   6.444   6.229  0.1264 -0.1016 -0.1082
 3933SOL    HW113240   6.914   6.521   6.173 -0.6767 -0.9191 -1.1205
 3933SOL    HW213241   6.916   6.477   6.318  0.3096  1.0486 -0.5076
 3934SOL     OW13242   2.801   7.753   0.989 -0.3876 -0.2667 -0.7559
 3934SOL    HW113243   2.808   7.688   0.919 -0.0142 -0.2829 -0.7059
 3934SOL    HW213244   2.888   7.756   1.027 -1.0716 -1.7308  1.0576
 3935SOL     OW13245   0.605   3.164   7.764  0.0388 -0.2847  0.3533
 3935SOL    HW113246   0.559   3.116   7.833  0.2188 -0.8898  0.0576
 3935SOL    HW213247   0.617   3.101   7.694  0.6622  0.0715  0.1230
 3936SOL     OW13248   2.475   1.549   3.349  0.8151  0.2730 -0.0486
 3936SOL    HW113249   2.470   1.569   3.443  4.5267 -0.3367  0.4582
 3936SOL    HW213250   2.462   1.454   3.344  0.3902  0.3380 -0.1864
 3937SOL     OW13251   2.006   6.219   2.574 -0.2666 -0.1196 -0.2684
 3937SOL    HW113252   2.097   6.206   2.601 -0.3455  2.0826  1.4243
 3937SOL    HW213253   1.968   6.274   2.644 -1.8757  2.0513 -2.6537
 3938SOL     OW13254   6.072   4.232   4.775 -0.0363  0.4235 -0.4399
 3938SOL    HW113255   6.084   4.227   4.870  0.1168  1.7432 -0.3737
 3938SOL    HW213256   6.151   4.191   4.739 -0.5882 -1.0615 -0.0177
 3939SOL     OW13257   4.026   2.812  11.067 -0.2688  0.0676 -0.2010
 3939SOL    HW113258   4.040   2.741  11.005 -1.1313  0.5183 -0.9386
 3939SOL    HW213259   4.067   2.888  11.026 -1.1480  0.4468 -0.4167
 3940SOL     OW13260   2.279   1.686   1.652 -0.8518 -0.2946  0.1384
 3940SOL    HW113261   2.285   1.779   1.673  0.7667 -0.3579  0.0586
 3940SOL    HW213262   2.271   1.682   1.557  2.3346 -0.2528 -0.2486
 3941SOL     OW13263   7.350   2.251  11.329 -0.0301 -0.0399  0.3063
 3941SOL    HW113264   7.415   2.189  11.363  0.1833 -0.2826 -0.5362
 3941SOL    HW213265   7.294   2.198  11.272  0.0211  0.4991 -0.2487
 3942SOL     OW13266   1.127   4.168   1.775  0.1964  0.3293 -0.1552
 3942SOL    HW113267   1.161   4.201   1.858 -0.8959  0.7892  0.1252
 3942SOL    HW213268   1.205   4.139   1.727  0.7945 -0.4276  1.2205
 3943SOL     OW13269   7.355   2.151   1.300  0.7875 -0.1995 -0.0808
 3943SOL    HW113270   7.374   2.149   1.206 -2.0133  1.1537 -0.7869
 3943SOL    HW213271   7.265   2.118   1.306  0.6114  0.5585  2.0395
 3944SOL     OW13272   6.863   3.109   4.289 -0.0755 -0.0036  0.5336
 3944SOL    HW113273   6.905   3.182   4.243  0.5157 -0.3229  0.5611
 3944SOL    HW213274   6.874   3.130   4.382  0.4528 -0.3262  0.5459
 3945SOL     OW13275   4.274   0.528  12.170  0.0509  0.3974  0.1460
 3945SOL    HW113276   4.219   0.455  12.144  1.1883  0.1286 -1.6785
 3945SOL    HW213277   4.225   0.571  12.240 -1.7024 -0.7590 -0.3061
 3946SOL     OW13278   4.503   7.551  11.307  0.3093  0.2281 -0.2684
 3946SOL    HW113279   4.487   7.549  11.213  2.2628  1.0247 -0.6701
 3946SOL    HW213280   4.593   7.520  11.317  0.0852  0.0159  1.3582
 3947SOL     OW13281   4.804   4.811   1.401 -0.0025  0.1299 -0.2592
 3947SOL    HW113282   4.765   4.747   1.460  0.3035 -0.1855 -0.3972
 3947SOL    HW213283   4.743   4.816   1.328 -0.4392  0.6039  0.1255
 3948SOL     OW13284   1.187   0.502   4.121 -0.0809 -0.1140  0.0133
 3948SOL    HW113285   1.176   0.407   4.124  1.7684 -0.5338 -2.6792
 3948SOL    HW213286   1.124   0.535   4.185  0.2867 -3.1732  2.2299
 3949SOL     OW13287   2.760   6.072   6.585  0.3576 -0.4934 -0.0774
 3949SOL    HW113288   2.728   6.095   6.497  1.2948 -0.1151 -0.3374
 3949SOL    HW213289   2.685   6.085   6.642 -0.3290 -0.9427 -0.8503
 3950SOL     OW13290   7.642   2.929   3.186  0.0767 -0.0831  0.1065
 3950SOL    HW113291   7.658   2.969   3.100  1.3844 -0.5821  0.0943
 3950SOL    HW213292   7.703   2.856   3.190  1.4664  1.0779  2.2475
 3951SOL     OW13293   0.376   0.053  11.385  0.0940 -0.0736  0.3357
 3951SOL    HW113294   0.420   0.074  11.302 -0.3515 -0.0461  0.1052
 3951SOL    HW213295   0.329  -0.028  11.367  3.1891 -2.3728  1.7025
 3952SOL     OW13296   1.775   2.545   4.897 -0.4346  0.2521  0.4111
 3952SOL    HW113297   1.831   2.610   4.855 -1.5481  0.6267 -0.5629
 3952SOL    HW213298   1.832   2.470   4.913 -0.0485 -0.1698 -2.3895
 3953SOL     OW13299   7.971   4.578   6.194  0.8567 -0.1132 -0.4745
 3953SOL    HW113300   7.928   4.493   6.186 -0.9483  0.7021  0.0367
 3953SOL    HW213301   7.966   4.599   6.288 -0.5478  1.4287 -0.8560
 3954SOL     OW13302   0.878   5.998   5.343  0.5429 -0.2079 -0.2327
 3954SOL    HW113303   0.897   5.928   5.406  0.6868 -0.9122 -1.0217
 3954SOL    HW213304   0.783   5.999   5.336  0.5381 -0.3017 -0.1831
 3955SOL     OW13305   5.912   1.333   2.112 -0.2055  0.4936  0.1886
 3955SOL    HW113306   5.834   1.277   2.120  0.7785 -1.1445 -0.9305
 3955SOL    HW213307   5.970   1.303   2.182  0.1030  0.4832 -0.0695
 3956SOL     OW13308   1.961   7.801   6.876  0.5331  0.1210 -0.5210
 3956SOL    HW113309   1.897   7.867   6.851 -1.3892 -1.3534  0.3297
 3956SOL    HW213310   1.953   7.795   6.971  1.1207 -0.9147 -0.5294
 3957SOL     OW13311   0.915   5.248   0.432  0.1394  0.5958 -0.2383
 3957SOL    HW113312   1.005   5.217   0.438  0.1515  0.1933 -1.9503
 3957SOL    HW213313   0.919   5.340   0.456  0.7932  0.2786  0.9015
 3958SOL     OW13314   4.067   7.050  11.849  0.2930 -0.3954  0.6379
 3958SOL    HW113315   4.089   7.033  11.757  1.1371 -3.3424  1.2574
 3958SOL    HW213316   4.107   7.134  11.868  0.2836  0.1852 -1.6269
 3959SOL     OW13317   5.332   4.524  11.893 -0.4246  0.5575 -0.0450
 3959SOL    HW113318   5.277   4.598  11.919 -0.3207  1.2819 -1.7422
 3959SOL    HW213319   5.422   4.557  11.899 -0.2745  0.0620  0.6404
 3960SOL     OW13320   0.703   1.670  11.859  0.0769 -0.8879 -0.0228
 3960SOL    HW113321   0.750   1.589  11.880  0.9440 -0.6638 -1.0058
 3960SOL    HW213322   0.658   1.651  11.777  0.6989 -0.2420 -0.5375
 3961SOL     OW13323   2.002   1.957   5.077  0.2029  0.0065 -0.1485
 3961SOL    HW113324   2.080   1.916   5.039 -0.3839 -1.0032 -0.3203
 3961SOL    HW213325   2.002   1.928   5.168 -0.6030 -1.0227 -0.4496
 3962SOL     OW13326   5.300   0.505   4.604 -0.3475  0.5412 -0.2585
 3962SOL    HW113327   5.234   0.482   4.670  0.3719  0.8299  0.5824
 3962SOL    HW213328   5.263   0.580   4.558  0.2100  1.9778  1.5268
 3963SOL     OW13329   1.516   1.470  10.711  0.3184  0.5018 -0.1573
 3963SOL    HW113330   1.474   1.386  10.730  0.8869 -0.1783 -1.6877
 3963SOL    HW213331   1.504   1.482  10.616  0.0180  2.2926  0.0749
 3964SOL     OW13332   7.017   2.575   0.025  0.2319  0.1033 -0.1011
 3964SOL    HW113333   6.987   2.542   0.109 -2.9431  1.0009 -0.7456
 3964SOL    HW213334   7.007   2.670   0.031 -1.1263  0.1278 -1.7665
 3965SOL     OW13335   7.743   4.101  12.013 -0.0298 -0.0307 -0.1585
 3965SOL    HW113336   7.741   4.142  11.927  0.5155  0.3014 -0.0130
 3965SOL    HW213337   7.678   4.030  12.007 -0.0579  0.0455 -0.8110
 3966SOL     OW13338   7.856   3.520   8.339  0.1490  0.1665  0.0482
 3966SOL    HW113339   7.886   3.479   8.258 -0.1729  0.0412 -0.0092
 3966SOL    HW213340   7.929   3.574   8.367 -0.3186  1.5184 -1.2035
 3967SOL     OW13341   3.704   5.628  10.458  0.0028 -0.5069  0.2992
 3967SOL    HW113342   3.730   5.635  10.549  0.1292 -1.1471  0.3172
 3967SOL    HW213343   3.752   5.552  10.425 -0.0290 -0.2707 -0.3023
 3968SOL     OW13344   5.933   7.468   2.542 -0.1962 -0.3238  0.0571
 3968SOL    HW113345   6.013   7.461   2.490  0.2084  2.3305  0.1774
 3968SOL    HW213346   5.862   7.457   2.478  0.2196 -2.4497 -0.0857
 3969SOL     OW13347   2.037   4.489   5.324  0.7766 -0.1618 -0.0644
 3969SOL    HW113348   1.958   4.469   5.275  1.0517 -0.9845 -0.1731
 3969SOL    HW213349   2.083   4.406   5.333  2.8014  0.6351 -2.0304
 3970SOL     OW13350   0.370   1.325   2.534  0.4174 -0.8857  0.0623
 3970SOL    HW113351   0.406   1.353   2.449  0.3247 -0.8105  0.0481
 3970SOL    HW213352   0.412   1.384   2.597  0.4384 -0.9002  0.0619
 3971SOL     OW13353   4.743   1.221   1.104  0.9674  0.0944 -0.6144
 3971SOL    HW113354   4.711   1.135   1.133  1.7908 -0.3854 -1.0933
 3971SOL    HW213355   4.703   1.283   1.165  0.0216 -0.5862 -0.5242
 3972SOL     OW13356   3.544   3.503   3.380  0.1975 -0.3590 -0.0862
 3972SOL    HW113357   3.630   3.522   3.343 -0.2793  0.5134 -0.7872
 3972SOL    HW213358   3.498   3.457   3.310 -0.4059  0.5108 -0.2786
 3973SOL     OW13359   0.792   6.072   0.581  0.4605  0.0093  0.3329
 3973SOL    HW113360   0.754   6.032   0.503  1.7411  0.5525 -0.6132
 3973SOL    HW213361   0.791   6.166   0.562  0.8048  0.1446  0.9596
 3974SOL     OW13362   4.866   6.228   2.650 -0.4728  0.0911  0.3583
 3974SOL    HW113363   4.938   6.281   2.615 -0.6645  0.1493  0.0495
 3974SOL    HW213364   4.874   6.144   2.606 -0.0490 -0.2081  0.9980
 3975SOL     OW13365   5.236   7.446   3.105 -0.5170 -0.8230 -1.0660
 3975SOL    HW113366   5.312   7.431   3.048 -0.0568 -2.0789 -0.1734
 3975SOL    HW213367   5.212   7.538   3.090 -0.1582 -0.9967 -2.9473
 3976SOL     OW13368   1.136   7.741   6.054 -0.0489 -0.6238  0.5436
 3976SOL    HW113369   1.056   7.729   6.104 -1.6762  1.1615 -1.4346
 3976SOL    HW213370   1.162   7.653   6.027 -0.1251 -1.4293  2.8908
 3977SOL     OW13371   5.596   6.596   8.768  0.0178  0.4243  0.6723
 3977SOL    HW113372   5.544   6.552   8.701  1.2185  0.2635 -0.1875
 3977SOL    HW213373   5.533   6.617   8.837 -0.6895 -2.2845  0.9668
 3978SOL     OW13374   7.259   6.814   5.752 -0.2774 -0.0207 -0.7999
 3978SOL    HW113375   7.290   6.824   5.662  0.7323  0.7743 -0.3855
 3978SOL    HW213376   7.198   6.741   5.749 -1.7004  1.1624 -2.4844
 3979SOL     OW13377   2.302   3.959   1.170  0.2727  0.1575 -0.2989
 3979SOL    HW113378   2.282   3.881   1.118  0.3790 -0.1365  0.0967
 3979SOL    HW213379   2.369   3.930   1.231  0.5137  0.6352 -0.3307
 3980SOL     OW13380   0.298   3.572   3.359  0.3170  0.3917  0.5576
 3980SOL    HW113381   0.301   3.665   3.384  2.7221  0.2267  1.1572
 3980SOL    HW213382   0.259   3.572   3.272  0.5791  2.0095  0.4015
 3981SOL     OW13383   5.238   4.783   3.668  0.4442 -0.2883 -0.2091
 3981SOL    HW113384   5.222   4.698   3.709  1.4914  0.5411  2.1313
 3981SOL    HW213385   5.158   4.833   3.685  1.1538  0.2966  1.6136
 3982SOL     OW13386   4.227   3.542   2.827 -0.2764 -0.0915  0.5662
 3982SOL    HW113387   4.236   3.556   2.922 -0.1010  1.2595  0.3773
 3982SOL    HW213388   4.138   3.570   2.807  0.2876  1.4768  0.0669
 3983SOL     OW13389   0.968   6.895   7.150  0.0918 -0.1370 -0.1278
 3983SOL    HW113390   0.957   6.802   7.129  1.8613  0.1324 -2.6475
 3983SOL    HW213391   0.915   6.940   7.085  3.9273  0.6792 -2.9957
 3984SOL     OW13392   2.527   0.448   0.820 -0.1168  0.2269 -0.5735
 3984SOL    HW113393   2.496   0.427   0.908  1.0451 -1.2166 -0.4669
 3984SOL    HW213394   2.620   0.423   0.820  0.2529  1.4641 -1.8082
 3985SOL     OW13395   7.176   7.475   0.781  0.5236  0.1819  0.0832
 3985SOL    HW113396   7.208   7.389   0.806  0.2816  0.1274  0.2139
 3985SOL    HW213397   7.237   7.506   0.714  0.6491 -0.0607  0.0873
 3986SOL     OW13398   5.860   3.722   9.477  0.2569 -0.3316  0.4745
 3986SOL    HW113399   5.822   3.673   9.404  0.7780  1.1215 -0.8273
 3986SOL    HW213400   5.793   3.786   9.501  0.2632 -0.5100  0.9727
 3987SOL     OW13401   3.360   1.295   2.103  0.3118 -0.0440 -0.0262
 3987SOL    HW113402   3.408   1.226   2.057 -1.0919 -1.0610 -0.0548
 3987SOL    HW213403   3.418   1.322   2.175  0.7394 -1.5531  0.2294
 3988SOL     OW13404   1.585   6.785   8.427  0.0895  0.5883  0.4232
 3988SOL    HW113405   1.553   6.751   8.343  0.2218  0.0481  0.5911
 3988SOL    HW213406   1.506   6.814   8.472 -0.2011 -0.8595  0.8856
 3989SOL     OW13407   6.551   1.281   8.150  0.0418 -0.0662 -0.6874
 3989SOL    HW113408   6.582   1.228   8.224 -2.7432 -0.2233  0.4822
 3989SOL    HW213409   6.585   1.368   8.167  0.6367 -0.4166 -0.0038
 3990SOL     OW13410   6.788   5.034  10.592  0.5530 -0.4204  0.1929
 3990SOL    HW113411   6.698   5.069  10.593 -0.1780 -2.1994  0.8056
 3990SOL    HW213412   6.804   5.008  10.683  2.6882  2.1026  0.6905
 3991SOL     OW13413   7.031   4.310  11.020  0.0983 -0.3093  0.2677
 3991SOL    HW113414   7.003   4.397  10.992 -1.2532 -0.4294  1.1807
 3991SOL    HW213415   7.091   4.281  10.951  0.8194  1.4540  0.1018
 3992SOL     OW13416   3.092   1.599   0.378 -0.6693  0.2637 -0.0902
 3992SOL    HW113417   3.009   1.635   0.409 -0.5805 -0.0884  0.5689
 3992SOL    HW213418   3.079   1.589   0.283 -2.1355 -1.6903  0.2437
 3993SOL     OW13419   6.989   5.350  12.437 -0.2814  0.0102  0.2437
 3993SOL    HW113420   7.046   5.369  12.363  0.8389 -0.1832  1.0299
 3993SOL    HW213421   7.014   5.261  12.465 -1.9992 -0.6959 -0.2999
 3994SOL     OW13422   1.569   5.864   4.052 -0.4288 -0.6925  0.1488
 3994SOL    HW113423   1.653   5.910   4.055 -1.2269  0.7982  0.2550
 3994SOL    HW213424   1.588   5.778   4.090  1.7893 -1.6346 -2.6649
 3995SOL     OW13425   7.924   3.870   1.506  0.0089 -0.0612 -0.1786
 3995SOL    HW113426   7.898   3.943   1.450  0.5644  0.3971  0.1575
 3995SOL    HW213427   8.020   3.870   1.504  0.0400  0.0134  0.8335
 3996SOL     OW13428   3.104   3.885   5.953  0.3592 -0.0365  0.0853
 3996SOL    HW113429   3.171   3.879   6.022  0.7121 -3.5213 -0.3912
 3996SOL    HW213430   3.131   3.961   5.900  1.1360  1.5806  2.6127
 3997SOL     OW13431   4.147   2.763  12.348 -0.1754  0.7626  0.4205
 3997SOL    HW113432   4.174   2.824  12.280  0.5171 -2.1929 -2.1650
 3997SOL    HW213433   4.222   2.759  12.408  1.3342 -0.2317 -1.4327
 3998SOL     OW13434   0.667   3.687   3.754 -0.3464 -0.1676  0.2515
 3998SOL    HW113435   0.704   3.605   3.785  0.1933 -1.0178 -2.4454
 3998SOL    HW213436   0.594   3.662   3.698 -1.0386  1.2614  0.4575
 3999SOL     OW13437   1.678   0.129   4.286  0.2581  0.5793 -0.1733
 3999SOL    HW113438   1.668   0.211   4.237 -0.1881  0.9431  0.5113
 3999SOL    HW213439   1.663   0.060   4.220 -0.8281  1.0650 -0.4606
 4000SOL     OW13440   3.250   6.326   3.334  0.7446 -0.5423  0.6600
 4000SOL    HW113441   3.221   6.287   3.416  0.3068 -0.7540  0.4055
 4000SOL    HW213442   3.319   6.387   3.360 -1.7846  2.1319  1.6249
 4001SOL     OW13443   6.739   5.672   0.374  0.9917 -0.4191 -0.4419
 4001SOL    HW113444   6.766   5.712   0.291  0.1205  0.1410 -0.4688
 4001SOL    HW213445   6.648   5.699   0.385  1.2666  0.0166  0.9843
 4002SOL     OW13446   2.161   2.183   1.653  0.8480 -0.2311 -0.2041
 4002SOL    HW113447   2.113   2.262   1.679 -1.2178 -1.1259 -1.0633
 4002SOL    HW213448   2.219   2.212   1.583  2.5724  1.1240  1.6564
 4003SOL     OW13449   1.971   2.423   4.271  0.6022 -0.3147  0.1510
 4003SOL    HW113450   1.909   2.485   4.310  2.0454  1.4244 -0.1633
 4003SOL    HW213451   1.916   2.354   4.235 -1.2143  1.2940 -0.3840
 4004SOL     OW13452   5.504   4.341   4.647  1.0934 -0.2438  0.2498
 4004SOL    HW113453   5.536   4.319   4.734  1.5030  1.1754  0.4920
 4004SOL    HW213454   5.409   4.338   4.655  1.1054 -2.1255  0.1696
 4005SOL     OW13455   1.708   2.680   2.389 -0.7901  0.3116  0.0446
 4005SOL    HW113456   1.692   2.704   2.480 -0.3855 -1.3765  0.5995
 4005SOL    HW213457   1.658   2.599   2.377  3.8205 -2.9784  0.6571
 4006SOL     OW13458   1.851   4.966  10.920 -0.0137 -0.2110 -0.9700
 4006SOL    HW113459   1.833   4.890  10.865  2.4739 -3.3671  2.1232
 4006SOL    HW213460   1.766   5.009  10.930 -1.2957 -1.8203 -3.8443
 4007SOL     OW13461   6.451   0.587   0.876  0.7196 -0.2311  0.6537
 4007SOL    HW113462   6.507   0.539   0.937  2.0178 -0.9143 -0.9900
 4007SOL    HW213463   6.418   0.519   0.816 -0.6776  0.3874  0.6917
 4008SOL     OW13464   2.902   4.761   7.107 -0.3217  0.1881  0.2954
 4008SOL    HW113465   2.818   4.715   7.110 -0.8910  1.0893 -1.0407
 4008SOL    HW213466   2.880   4.854   7.111  0.7729  0.4287  2.2220
 4009SOL     OW13467   7.308   5.752   8.503 -0.6877 -0.5329  0.2519
 4009SOL    HW113468   7.362   5.678   8.474  2.5376  2.3228 -1.8682
 4009SOL    HW213469   7.255   5.775   8.426 -1.6093 -0.5384  0.8694
 4010SOL     OW13470   6.670   7.600   7.880  0.7921 -0.3133  0.3081
 4010SOL    HW113471   6.667   7.518   7.929  0.4633 -0.4646  0.0442
 4010SOL    HW213472   6.717   7.578   7.799 -0.4141 -0.5773 -0.3533
 4011SOL     OW13473   2.824   6.461   6.211  0.0140 -0.1804 -0.3575
 4011SOL    HW113474   2.890   6.437   6.146  1.5971  0.4622  0.9320
 4011SOL    HW213475   2.843   6.552   6.232 -1.8774  0.3013 -0.5805
 4012SOL     OW13476   5.147   4.361   6.053  0.0229 -0.0293 -0.4799
 4012SOL    HW113477   5.194   4.344   6.135  1.0101  1.5130 -0.6675
 4012SOL    HW213478   5.058   4.385   6.081  0.2944  0.2851  0.1462
 4013SOL     OW13479   3.176   4.750   2.651  0.1864  0.1512  0.5828
 4013SOL    HW113480   3.162   4.817   2.584  0.1273  0.3252  0.7660
 4013SOL    HW213481   3.209   4.674   2.603 -0.4900  0.0523  0.2702
 4014SOL     OW13482   5.044   2.692   7.081 -0.1071  0.3250  0.9603
 4014SOL    HW113483   5.047   2.615   7.137  1.2402 -0.0029  0.4786
 4014SOL    HW213484   5.061   2.765   7.141 -0.4775  0.1665  1.2654
 4015SOL     OW13485   4.390   2.819  11.812 -0.1033  0.5216  0.3827
 4015SOL    HW113486   4.457   2.876  11.774 -2.1308  0.0024 -4.9318
 4015SOL    HW213487   4.427   2.731  11.805 -0.0686  0.5143  0.6657
 4016SOL     OW13488   6.783   0.877   8.231 -0.5435 -0.4978  0.3825
 4016SOL    HW113489   6.851   0.832   8.282 -2.3989  0.3498  4.0010
 4016SOL    HW213490   6.831   0.939   8.177  1.6377 -0.4437  2.2104
 4017SOL     OW13491   5.282   3.194   3.158 -0.1385  0.2376 -0.0072
 4017SOL    HW113492   5.281   3.168   3.250  0.6473  2.1849  0.6196
 4017SOL    HW213493   5.374   3.195   3.134 -0.2275  1.0676 -0.3711
 4018SOL     OW13494   7.272   6.354   3.225 -0.6378 -0.3284  0.1382
 4018SOL    HW113495   7.362   6.327   3.245 -0.4294  0.7137  0.6496
 4018SOL    HW213496   7.225   6.271   3.213  0.3541 -0.8906 -0.0313
 4019SOL     OW13497   0.643   4.977   7.778  0.4003 -0.4161  0.4477
 4019SOL    HW113498   0.591   5.002   7.854 -0.9344  0.9021 -0.8259
 4019SOL    HW213499   0.621   4.885   7.763  0.8645 -0.7593  1.7562
 4020SOL     OW13500   3.899   5.816  12.233  0.5113  0.1628 -0.6652
 4020SOL    HW113501   3.906   5.757  12.158 -0.8958 -1.0096  0.0601
 4020SOL    HW213502   3.844   5.769  12.295  2.2268  0.7916  1.4340
 4021SOL     OW13503   4.766   7.251   9.772 -0.2375  0.0248 -0.6539
 4021SOL    HW113504   4.774   7.186   9.702 -1.7463  0.0328 -0.8762
 4021SOL    HW213505   4.718   7.205   9.841  0.7619  0.1846  0.1704
 4022SOL     OW13506   5.383   3.012   9.874  0.0923  0.6534  0.1200
 4022SOL    HW113507   5.416   2.967   9.951  0.2913 -0.6927 -0.7256
 4022SOL    HW213508   5.338   3.090   9.909  0.9455  0.5474  1.5114
 4023SOL     OW13509   1.214   7.820   9.809 -0.5285  0.4636  0.3666
 4023SOL    HW113510   1.285   7.876   9.780  0.2947 -0.3977  0.6627
 4023SOL    HW213511   1.189   7.769   9.732  0.7198 -0.8316  0.7696
 4024SOL     OW13512   0.794   0.792   9.547  0.1602  0.0910  0.1729
 4024SOL    HW113513   0.752   0.821   9.628  0.6517  0.4408  0.3022
 4024SOL    HW213514   0.774   0.861   9.484 -3.0513 -1.6699 -0.9636
 4025SOL     OW13515   0.716   5.582   2.244 -0.2874  0.4805  0.2045
 4025SOL    HW113516   0.772   5.650   2.282  1.5449  0.4145 -2.1719
 4025SOL    HW213517   0.773   5.505   2.238 -1.4387 -0.3804  0.1223
 4026SOL     OW13518   0.164   7.330   2.892  0.0361 -0.0427  0.1634
 4026SOL    HW113519   0.245   7.302   2.934  0.3875  0.7751  0.0535
 4026SOL    HW213520   0.095   7.306   2.954  0.2956 -1.3012 -0.0161
 4027SOL     OW13521   2.280   1.988   2.319 -0.1629  0.2356 -0.5100
 4027SOL    HW113522   2.360   1.958   2.277  0.3625 -0.5042  0.9466
 4027SOL    HW213523   2.263   2.074   2.281  1.2305  0.3278 -0.9602
 4028SOL     OW13524   6.474   2.486  11.546 -0.0285  0.6456  0.0028
 4028SOL    HW113525   6.387   2.482  11.584  0.2314 -0.9377  0.4969
 4028SOL    HW213526   6.494   2.396  11.520  0.7115  1.2885 -1.8692
 4029SOL     OW13527   0.211   1.342   6.029 -0.1131 -0.3840  0.4402
 4029SOL    HW113528   0.226   1.429   6.067 -1.9058  0.6138 -0.9424
 4029SOL    HW213529   0.236   1.281   6.098  2.6748  1.1324  0.9452
 4030SOL     OW13530   7.806   1.915   0.893  0.3598  0.6525 -0.2460
 4030SOL    HW113531   7.712   1.914   0.873  0.2705  0.3955  0.1816
 4030SOL    HW213532   7.811   1.924   0.988  0.7429 -0.5307 -0.1326
 4031SOL     OW13533   0.720   0.647   3.351  0.1014  0.3557  0.3977
 4031SOL    HW113534   0.658   0.720   3.346 -0.5681 -0.2836 -1.1914
 4031SOL    HW213535   0.783   0.664   3.281 -0.5386 -0.9842 -0.5490
 4032SOL     OW13536   6.610   5.411   4.990  0.7895 -0.1391 -0.3537
 4032SOL    HW113537   6.649   5.394   4.904 -2.0343  0.6012 -1.9060
 4032SOL    HW213538   6.554   5.335   5.006 -0.3173  0.6789 -0.2105
 4033SOL     OW13539   6.202   3.990   3.371 -0.1632 -0.3361 -0.3409
 4033SOL    HW113540   6.280   4.034   3.406  0.0770 -1.5541  0.7135
 4033SOL    HW213541   6.226   3.969   3.280  1.4914 -2.3196  0.4901
 4034SOL     OW13542   6.039   2.646   2.937  0.3739 -0.3136  0.3848
 4034SOL    HW113543   6.052   2.552   2.949  0.3533 -0.1435  1.9812
 4034SOL    HW213544   6.103   2.671   2.870  1.4393 -1.1895  1.0415
 4035SOL     OW13545   3.920   3.547   0.445  0.0209  0.6455 -0.5406
 4035SOL    HW113546   3.830   3.530   0.416 -0.1577  1.1891 -0.3194
 4035SOL    HW213547   3.975   3.510   0.376 -0.2723 -2.6497  0.8339
 4036SOL     OW13548   7.472   1.905   4.863  0.0559  0.0197 -0.2557
 4036SOL    HW113549   7.377   1.902   4.853  0.2571 -1.2639 -2.2206
 4036SOL    HW213550   7.500   1.975   4.805  0.1552  2.7442  2.7550
 4037SOL     OW13551   4.628   1.852   9.431  0.1444 -0.2956 -0.1781
 4037SOL    HW113552   4.670   1.880   9.350 -0.4417 -0.8653 -0.6854
 4037SOL    HW213553   4.687   1.884   9.500  0.5899  0.2926 -0.8118
 4038SOL     OW13554   6.257   7.290   0.186  0.6064  0.1381 -0.3216
 4038SOL    HW113555   6.224   7.333   0.265 -1.5510 -0.3920 -0.8656
 4038SOL    HW213556   6.313   7.355   0.144 -0.3778  1.4056  0.2754
 4039SOL     OW13557   3.835   6.515   6.309  0.7324 -0.6146 -0.4770
 4039SOL    HW113558   3.920   6.559   6.298 -0.1149  0.9510 -1.1386
 4039SOL    HW213559   3.807   6.540   6.397  0.4798 -0.2289 -0.6636
 4040SOL     OW13560   0.032   5.324  12.334 -0.0797  0.1548 -0.1463
 4040SOL    HW113561  -0.020   5.371  12.269 -0.2220  0.3611  0.1140
 4040SOL    HW213562   0.049   5.389  12.402 -0.7916 -0.3206  0.5093
 4041SOL     OW13563   7.306   5.715   6.620 -0.3012 -0.8133  0.0949
 4041SOL    HW113564   7.279   5.676   6.703  1.5638 -0.8298  0.7458
 4041SOL    HW213565   7.230   5.705   6.563 -1.6240 -0.8296  1.7744
 4042SOL     OW13566   0.154   4.098   3.904 -0.2049  0.4645  0.1265
 4042SOL    HW113567   0.157   4.174   3.845  0.8222  0.2047 -0.1761
 4042SOL    HW213568   0.126   4.026   3.848 -2.1044  0.7682  0.6125
 4043SOL     OW13569   5.259   7.729   7.884 -0.4342  0.0417 -0.3437
 4043SOL    HW113570   5.327   7.737   7.817  0.2823  0.3736  0.3964
 4043SOL    HW213571   5.276   7.643   7.924  1.0362  1.0707  1.3764
 4044SOL     OW13572   3.647   1.453   7.262 -0.5383  0.0314 -0.1920
 4044SOL    HW113573   3.581   1.502   7.311 -1.0716  1.0433 -1.8676
 4044SOL    HW213574   3.730   1.490   7.292 -0.6903 -0.9570  1.6116
 4045SOL     OW13575   1.795   3.223  10.320 -0.1008 -0.2806 -0.0508
 4045SOL    HW113576   1.699   3.227  10.320 -0.3144 -3.2199 -0.2108
 4045SOL    HW213577   1.822   3.292  10.259 -2.2385 -0.7793 -1.6915
 4046SOL     OW13578   0.588   7.738   9.661 -0.1186  0.2803 -0.1769
 4046SOL    HW113579   0.612   7.699   9.577  0.5243 -1.5752  0.8139
 4046SOL    HW213580   0.544   7.668   9.709  2.3928  0.1590  2.2446
 4047SOL     OW13581   2.645   0.796   3.758 -0.1146 -0.6857  0.1162
 4047SOL    HW113582   2.621   0.716   3.710 -0.6019 -0.2770 -0.3310
 4047SOL    HW213583   2.572   0.811   3.818 -0.9543  0.4758 -1.1379
 4048SOL     OW13584   1.874   6.989  11.017  0.0274  0.3436 -0.1653
 4048SOL    HW113585   1.872   7.085  11.015 -0.8899  0.4335  2.3248
 4048SOL    HW213586   1.784   6.964  11.037  0.7594 -0.9024  1.7608
 4049SOL     OW13587   2.126   3.580   4.204 -0.6485  0.1123 -0.2132
 4049SOL    HW113588   2.068   3.509   4.233 -2.0451  1.4075  0.3519
 4049SOL    HW213589   2.105   3.652   4.263  1.9343  0.5152  0.3012
 4050SOL     OW13590   4.591   3.353   2.576  0.0794 -0.0433  0.0363
 4050SOL    HW113591   4.607   3.321   2.487 -0.4256 -2.7581  0.8330
 4050SOL    HW213592   4.514   3.410   2.567 -0.5663 -1.0432 -1.1474
 4051SOL     OW13593   1.798   4.690   1.465  0.3938  0.2520 -0.0895
 4051SOL    HW113594   1.807   4.767   1.522 -1.1512 -0.7127  1.5929
 4051SOL    HW213595   1.833   4.618   1.517 -0.5153 -0.5643 -0.5705
 4052SOL     OW13596   6.740   5.925   5.342 -0.0927  0.5354 -0.2822
 4052SOL    HW113597   6.815   5.984   5.356 -0.8134  1.3426  0.2824
 4052SOL    HW213598   6.774   5.857   5.284  1.3530  0.3655  0.7014
 4053SOL     OW13599   4.991   6.294   0.200 -0.1933 -0.1509  0.0917
 4053SOL    HW113600   5.059   6.226   0.203  0.6471  0.6478 -0.6208
 4053SOL    HW213601   4.915   6.252   0.241  0.7101 -1.0657  0.9048
 4054SOL     OW13602   2.150   1.443   6.006  0.4046 -0.2952 -0.4635
 4054SOL    HW113603   2.241   1.458   5.979  0.3073  0.5128 -0.3466
 4054SOL    HW213604   2.142   1.348   6.007  0.9920 -0.3727 -1.3394
 4055SOL     OW13605   6.922   5.333   3.734  0.4328 -0.2776 -0.6147
 4055SOL    HW113606   6.943   5.410   3.787 -2.2486  0.2048 -0.1347
 4055SOL    HW213607   6.984   5.336   3.661  2.9862  0.0931  1.4406
 4056SOL     OW13608   6.359   3.322   9.669  0.3559 -0.1487 -0.1319
 4056SOL    HW113609   6.304   3.400   9.677 -0.6574 -0.3422 -3.6608
 4056SOL    HW213610   6.437   3.352   9.623  1.7182 -0.6076  1.7181
 4057SOL     OW13611   7.008   4.981   6.557 -0.4057 -0.1030 -0.0139
 4057SOL    HW113612   7.053   4.919   6.500  0.8541 -0.6402  1.5123
 4057SOL    HW213613   7.062   5.060   6.554 -0.8030  0.1632 -0.2254
 4058SOL     OW13614   5.603   6.966   1.115 -0.4506 -0.1986 -0.7349
 4058SOL    HW113615   5.523   6.989   1.164  1.5037  2.3920  1.6387
 4058SOL    HW213616   5.613   7.037   1.052  0.9503  0.6913  0.4124
 4059SOL     OW13617   1.313   0.567   2.198  0.1690 -0.4020 -0.1169
 4059SOL    HW113618   1.282   0.550   2.287  1.4455 -0.5057  0.3184
 4059SOL    HW213619   1.232   0.576   2.147 -0.6370  1.0807  1.3034
 4060SOL     OW13620   0.231   2.590   4.504  0.3013  0.7982 -0.0741
 4060SOL    HW113621   0.296   2.622   4.567 -0.3211  0.5295  0.7253
 4060SOL    HW213622   0.148   2.592   4.552 -0.4548  1.9552 -1.3287
 4061SOL     OW13623   0.918   5.290   1.726 -0.1965  0.1974 -0.1318
 4061SOL    HW113624   0.835   5.280   1.773 -0.1610  1.1055  0.1228
 4061SOL    HW213625   0.980   5.236   1.775 -0.2205  0.9289  0.7173
 4062SOL     OW13626   4.202   4.867   4.469 -0.6586  0.0277 -0.4054
 4062SOL    HW113627   4.186   4.786   4.421 -2.1244  0.9364 -1.5260
 4062SOL    HW213628   4.131   4.871   4.533 -0.4197  0.2736 -0.1553
 4063SOL     OW13629   4.446   3.264   2.308 -0.1164 -0.7092  0.3407
 4063SOL    HW113630   4.541   3.275   2.304 -0.1755 -0.3936 -0.2802
 4063SOL    HW213631   4.432   3.171   2.289 -0.0194 -0.4388 -1.2128
 4064SOL     OW13632   4.720   1.035   5.885  0.4086 -0.6474  0.4394
 4064SOL    HW113633   4.813   1.046   5.906  0.7343 -0.6250 -0.9064
 4064SOL    HW213634   4.684   1.123   5.886  0.6085 -0.5596  0.1183
 4065SOL     OW13635   5.841   4.163   6.746 -0.0976 -0.2392 -0.2616
 4065SOL    HW113636   5.888   4.199   6.822  0.0061  2.1233 -1.3395
 4065SOL    HW213637   5.750   4.185   6.762 -0.1797 -0.4573 -0.4353
 4066SOL     OW13638   0.968   5.617  12.040  0.0761  0.1209 -0.7508
 4066SOL    HW113639   1.034   5.640  12.105 -0.3308 -2.0617  0.5500
 4066SOL    HW213640   1.011   5.551  11.985 -0.5458 -0.3196 -0.7240
 4067SOL     OW13641   0.911   0.694   1.434 -0.4552  0.3697  0.4074
 4067SOL    HW113642   0.971   0.702   1.359 -0.7455 -0.7942  0.0319
 4067SOL    HW213643   0.824   0.708   1.396 -0.5377  0.5935  0.6803
 4068SOL     OW13644   3.635   5.605   3.003 -0.1789  0.1550 -0.5865
 4068SOL    HW113645   3.540   5.608   3.000 -0.2046  0.4380  0.1422
 4068SOL    HW213646   3.661   5.696   3.021  0.1829 -0.0514 -0.0364
 4069SOL     OW13647   3.085   1.703   8.501 -0.0416 -0.1607  0.4898
 4069SOL    HW113648   3.033   1.713   8.580 -0.1816 -1.9467  0.6822
 4069SOL    HW213649   3.132   1.620   8.514  1.6135  0.5875 -0.3756
 4070SOL     OW13650   5.699   7.251   4.429  0.7189  0.3817  0.3165
 4070SOL    HW113651   5.770   7.275   4.488 -0.0553  1.4234  0.8651
 4070SOL    HW213652   5.652   7.333   4.414  0.8222  0.1223 -1.6765
 4071SOL     OW13653   0.224   3.531   6.842  0.1495  0.0791 -0.4612
 4071SOL    HW113654   0.260   3.618   6.823  0.3065  0.4021  1.1581
 4071SOL    HW213655   0.188   3.539   6.930  0.0022 -1.4593 -0.3575
 4072SOL     OW13656   2.647   0.143   6.188  0.7014  0.1449 -0.0088
 4072SOL    HW113657   2.596   0.067   6.217  0.1179  0.6092  0.2038
 4072SOL    HW213658   2.598   0.219   6.220  0.9288  0.6333 -0.7674
 4073SOL     OW13659   2.060   5.108   4.248 -0.5654 -0.3934  0.6420
 4073SOL    HW113660   2.054   5.197   4.214 -0.2799 -1.0061 -1.1004
 4073SOL    HW213661   2.152   5.084   4.235 -0.7067 -1.0534  0.8331
 4074SOL     OW13662   2.845   3.061   3.321  0.2087  0.0261 -0.5052
 4074SOL    HW113663   2.805   3.145   3.347 -3.1858 -1.2485 -1.0343
 4074SOL    HW213664   2.869   3.020   3.404 -0.8902  0.3322 -0.0052
 4075SOL     OW13665   0.529   0.185   9.260 -0.1980 -0.3520 -0.5598
 4075SOL    HW113666   0.544   0.168   9.353  0.6260 -0.1378 -0.6436
 4075SOL    HW213667   0.579   0.265   9.242 -1.1267  0.1497 -0.9720
 4076SOL     OW13668   4.386   6.294   6.440 -0.1712 -0.4675 -0.5551
 4076SOL    HW113669   4.384   6.361   6.509 -0.8633 -0.1458 -0.8766
 4076SOL    HW213670   4.308   6.242   6.457 -0.5429 -0.1651 -1.3070
 4077SOL     OW13671   3.541   3.412   1.927 -0.0352 -0.5676  0.2296
 4077SOL    HW113672   3.570   3.406   2.018 -0.1872 -0.4252  0.2892
 4077SOL    HW213673   3.616   3.384   1.875 -0.0268 -0.8780  0.4089
 4078SOL     OW13674   7.211   0.208   6.721 -0.1184 -0.0690  0.0596
 4078SOL    HW113675   7.178   0.255   6.644 -2.3088 -0.8188  0.4687
 4078SOL    HW213676   7.166   0.124   6.719  2.3133 -1.4738  0.3754
 4079SOL     OW13677   5.431   1.142   0.707  0.1658  0.2868  0.1876
 4079SOL    HW113678   5.515   1.177   0.740  0.4778  0.0803 -0.3758
 4079SOL    HW213679   5.365   1.193   0.753  0.6115  1.7818 -0.7424
 4080SOL     OW13680   2.458   6.887   6.616 -0.3489  0.1612  0.0575
 4080SOL    HW113681   2.388   6.822   6.616  0.8843 -1.2340 -0.9256
 4080SOL    HW213682   2.502   6.876   6.700 -0.5881  0.2417  0.1936
 4081SOL     OW13683   4.092   2.606   1.022  0.3813 -0.0656  0.0282
 4081SOL    HW113684   4.063   2.690   0.988 -0.7829 -1.2623 -2.1930
 4081SOL    HW213685   4.178   2.592   0.984  0.0297 -0.4057 -0.6725
 4082SOL     OW13686   2.308   5.682   0.832  0.2307  0.1906 -0.7374
 4082SOL    HW113687   2.319   5.725   0.917  0.1252 -0.7703 -0.2224
 4082SOL    HW213688   2.396   5.654   0.807  0.3407  0.9265 -1.2019
 4083SOL     OW13689   2.059   5.262   3.629  0.0055  0.1827 -0.2794
 4083SOL    HW113690   2.014   5.228   3.707  0.5460 -0.3975 -0.2027
 4083SOL    HW213691   2.151   5.236   3.642  0.2366  0.7382 -0.7551
 4084SOL     OW13692   2.850   0.994   3.700 -0.0688 -0.3416 -0.3690
 4084SOL    HW113693   2.799   1.063   3.658  0.0879 -0.4370 -0.7140
 4084SOL    HW213694   2.789   0.920   3.707 -0.5932  0.1789  1.0165
 4085SOL     OW13695   2.433   1.547   2.108  0.3546 -0.2874  0.2287
 4085SOL    HW113696   2.466   1.480   2.168  0.3181 -0.4118  0.1111
 4085SOL    HW213697   2.510   1.601   2.088  0.1180  0.4974  1.3398
 4086SOL     OW13698   1.867   2.452   2.689  0.5745 -0.2377  0.3396
 4086SOL    HW113699   1.799   2.389   2.713  0.5085 -0.5011 -0.5358
 4086SOL    HW213700   1.819   2.534   2.676  0.8219  0.3888  2.8737
 4087SOL     OW13701   4.026   2.209   4.718 -0.0597 -0.3348  0.4339
 4087SOL    HW113702   3.956   2.204   4.782 -0.5429 -0.5390 -0.1023
 4087SOL    HW213703   4.030   2.302   4.693 -1.3032 -0.5765 -0.7900
 4088SOL     OW13704   7.013   7.915  10.199  0.5636 -0.0221  0.1611
 4088SOL    HW113705   7.082   7.894  10.261 -0.1064 -1.7476  0.3815
 4088SOL    HW213706   7.017   8.010  10.189  0.9420  0.2696  2.5430
 4089SOL     OW13707   0.195   3.356   3.646 -0.4474 -0.5355  0.3694
 4089SOL    HW113708   0.151   3.440   3.641 -0.3318 -0.4582  0.6361
 4089SOL    HW213709   0.233   3.353   3.734 -1.6637 -1.4654  0.8917
 4090SOL     OW13710   1.205   2.091   1.061  0.2562 -0.4279 -0.0534
 4090SOL    HW113711   1.234   2.182   1.053  0.8613 -0.5893  0.2434
 4090SOL    HW213712   1.216   2.054   0.973  1.8436 -0.7349  0.2399
 4091SOL     OW13713   2.616   6.720  11.674 -0.0226  0.3634 -0.2313
 4091SOL    HW113714   2.533   6.694  11.633 -1.1693  2.0166  0.9100
 4091SOL    HW213715   2.590   6.759  11.758  1.8010  2.3783 -0.5318
 4092SOL     OW13716   2.653   1.846   4.028 -0.0529  0.0001 -1.2408
 4092SOL    HW113717   2.667   1.877   3.938  2.5922 -0.6383 -1.1195
 4092SOL    HW213718   2.662   1.925   4.081  1.6297 -0.0980 -1.3285
 4093SOL     OW13719   6.144   1.201   7.595  0.2786  0.2586 -0.3988
 4093SOL    HW113720   6.090   1.144   7.650  0.5783  1.0934  0.8042
 4093SOL    HW213721   6.083   1.266   7.560  0.1932  0.0926 -0.5599
 4094SOL     OW13722   6.185   5.774   3.925 -0.0450 -0.6236 -0.1540
 4094SOL    HW113723   6.126   5.849   3.916 -0.3243 -0.9833 -1.7355
 4094SOL    HW213724   6.257   5.806   3.980 -2.1954 -0.5209  2.8392
 4095SOL     OW13725   0.468   4.261   1.752  0.4568  0.0027  0.5497
 4095SOL    HW113726   0.561   4.243   1.755  0.7752  1.5386  2.2985
 4095SOL    HW213727   0.439   4.253   1.843 -1.1520 -0.5460  0.0287
 4096SOL     OW13728   5.986   6.317   8.881 -0.4070  0.4347 -0.4878
 4096SOL    HW113729   5.951   6.403   8.903 -0.9162  0.1705 -0.2520
 4096SOL    HW213730   5.951   6.259   8.949 -0.3958 -0.0330 -0.8781
 4097SOL     OW13731   0.229   0.383   9.276 -0.3421  0.0447  0.7868
 4097SOL    HW113732   0.306   0.422   9.316 -0.4167  0.4848  0.5034
 4097SOL    HW213733   0.168   0.455   9.264  0.6505  0.5018 -2.4840
 4098SOL     OW13734   2.206   7.555  12.061  0.1787  0.1813  0.1888
 4098SOL    HW113735   2.113   7.574  12.073  0.2160 -0.1161  0.9375
 4098SOL    HW213736   2.208   7.482  11.999 -0.1064 -0.2650  0.7058
 4099SOL     OW13737   0.492   0.428   0.991  0.3741  0.8458  0.1303
 4099SOL    HW113738   0.425   0.453   0.928  0.4820  1.2580  0.1748
 4099SOL    HW213739   0.445   0.378   1.058  0.1184  1.1103  0.1488
 4100SOL     OW13740   1.654   3.370   9.310 -0.0473  0.0629  0.0838
 4100SOL    HW113741   1.718   3.402   9.374  0.1196  0.7799 -0.4215
 4100SOL    HW213742   1.584   3.436   9.312 -0.7464 -0.6762  0.5787
 4101SOL     OW13743   3.571   7.855   2.584  0.0950 -0.1637 -0.0931
 4101SOL    HW113744   3.628   7.802   2.639 -2.0616 -2.2121  0.3518
 4101SOL    HW213745   3.553   7.933   2.636  2.2544  0.4461 -0.1773
 4102SOL     OW13746   5.403   2.818   6.263  0.4460  0.0782 -0.6198
 4102SOL    HW113747   5.362   2.894   6.222  1.3220  0.1609 -1.3838
 4102SOL    HW213748   5.468   2.856   6.323 -0.0476 -0.0608  0.0156
 4103SOL     OW13749   6.919   0.992   1.456 -0.1903 -0.7374  0.2628
 4103SOL    HW113750   6.970   0.977   1.376 -2.4525  2.5496 -2.0669
 4103SOL    HW213751   6.828   0.984   1.428 -1.0990 -1.9426  3.2006
 4104SOL     OW13752   1.921   3.312   2.799 -0.2142 -0.2389  0.0126
 4104SOL    HW113753   1.996   3.357   2.760  0.5769  0.0889  1.7996
 4104SOL    HW213754   1.956   3.273   2.879 -1.6280 -1.3541  0.1295
 4105SOL     OW13755   0.353   5.329   9.708  0.2588 -0.1250 -0.7337
 4105SOL    HW113756   0.376   5.413   9.749 -2.8441  0.1279  0.8083
 4105SOL    HW213757   0.425   5.271   9.732  0.9665  1.3099  0.9133
 4106SOL     OW13758   7.649   4.117   7.463 -0.3215  0.0874 -0.5517
 4106SOL    HW113759   7.707   4.088   7.393 -1.4419 -0.4530 -1.2907
 4106SOL    HW213760   7.702   4.177   7.515  1.2739 -1.3000 -0.4861
 4107SOL     OW13761   6.001   5.417   3.069  0.8792 -0.2945  0.0194
 4107SOL    HW113762   5.944   5.344   3.092  0.0606  0.4840  0.5720
 4107SOL    HW213763   6.082   5.377   3.038  0.2133 -1.4234 -0.2832
 4108SOL     OW13764   7.548   0.463   2.536 -0.0099  0.2035 -0.0250
 4108SOL    HW113765   7.512   0.508   2.459  0.1492 -0.8336 -0.7331
 4108SOL    HW213766   7.641   0.486   2.535  0.7000 -2.2163 -2.0141
 4109SOL     OW13767   2.386   6.923   2.318  0.5462  0.1100 -0.6151
 4109SOL    HW113768   2.445   6.904   2.391  2.0883 -1.7204 -2.2102
 4109SOL    HW213769   2.305   6.878   2.340 -1.1182  3.9918  2.3939
 4110SOL     OW13770   4.751   1.496   7.872  0.0839 -0.1217  0.0820
 4110SOL    HW113771   4.664   1.458   7.876  0.2360 -0.4790 -0.0044
 4110SOL    HW213772   4.746   1.575   7.927 -0.6611  0.6002 -0.9774
 4111SOL     OW13773   5.094   6.494   8.496  0.3072  0.1342  0.2348
 4111SOL    HW113774   5.142   6.510   8.416  0.7760 -0.4850  0.3864
 4111SOL    HW213775   5.135   6.551   8.561  0.7986 -0.3391  0.3462
 4112SOL     OW13776   4.446   2.986   6.034 -0.1728  0.1782 -0.7692
 4112SOL    HW113777   4.542   2.988   6.028 -0.2229 -0.0178 -1.8071
 4112SOL    HW213778   4.416   2.991   5.943 -1.1064 -2.1213 -0.6727
 4113SOL     OW13779   2.782   4.321   5.431 -0.2614 -0.5006  0.6361
 4113SOL    HW113780   2.844   4.282   5.369 -0.6367  1.2985 -0.9685
 4113SOL    HW213781   2.830   4.395   5.468 -0.6335 -0.5331  1.1837
 4114SOL     OW13782   2.452   4.607   9.266  0.6116 -0.3102 -0.4885
 4114SOL    HW113783   2.518   4.677   9.265  1.0692 -0.6677  1.2929
 4114SOL    HW213784   2.389   4.634   9.200  0.5075  2.0813  0.4555
 4115SOL     OW13785   3.746   7.811   1.304 -0.1840  0.2943 -0.3970
 4115SOL    HW113786   3.815   7.858   1.257 -0.1647  0.0503 -0.6143
 4115SOL    HW213787   3.787   7.785   1.387  0.0105  0.0858 -0.5559
 4116SOL     OW13788   7.656   0.341   5.473 -0.0475  0.0158 -0.0523
 4116SOL    HW113789   7.698   0.262   5.438  1.1221  0.3528  0.5428
 4116SOL    HW213790   7.659   0.329   5.568  2.6011  1.9183  0.2184
 4117SOL     OW13791   4.075   7.145  11.222  0.0150  0.1647  0.4085
 4117SOL    HW113792   4.054   7.216  11.283  1.1518 -0.2488  1.3129
 4117SOL    HW213793   4.169   7.134  11.230 -0.3208 -2.5746  1.5434
 4118SOL     OW13794   6.784   7.897   0.043  0.1858  0.1271  0.4660
 4118SOL    HW113795   6.704   7.940   0.073 -1.2033  2.2320 -4.9945
 4118SOL    HW213796   6.753   7.823  -0.009  1.6482  0.8945 -1.6489
 4119SOL     OW13797   7.785   3.690   8.885  0.2559 -0.0786  0.1268
 4119SOL    HW113798   7.728   3.703   8.961  0.2103 -0.4797  0.1621
 4119SOL    HW213799   7.776   3.597   8.863 -0.6453  0.2559 -1.0928
 4120SOL     OW13800   2.572   3.696   8.167  0.4205 -0.2376  0.3515
 4120SOL    HW113801   2.544   3.666   8.080 -1.4857 -0.6236  1.0589
 4120SOL    HW213802   2.634   3.767   8.149  0.9139 -1.0393 -1.3159
 4121SOL     OW13803   5.855   2.145   9.557  0.1326  0.0435  0.4164
 4121SOL    HW113804   5.855   2.056   9.591  2.2964  0.0942  0.6993
 4121SOL    HW213805   5.898   2.197   9.626  2.1875  0.6218 -1.1843
 4122SOL     OW13806   1.908   6.754   6.409  0.2953  0.7426 -0.1313
 4122SOL    HW113807   1.956   6.673   6.391  0.8819  1.0486  0.0404
 4122SOL    HW213808   1.861   6.772   6.327 -0.6362 -0.2952  0.1462
 4123SOL     OW13809   2.936   5.045   7.435  0.5941 -0.6665  0.3052
 4123SOL    HW113810   3.016   4.993   7.445 -0.2228 -2.1238 -0.3834
 4123SOL    HW213811   2.867   4.980   7.421 -1.0097  0.4376  2.3819
 4124SOL     OW13812   5.132   0.916  11.543 -0.3370 -0.2419 -0.7858
 4124SOL    HW113813   5.146   0.997  11.592  0.9147 -0.5019 -0.6922
 4124SOL    HW213814   5.038   0.916  11.523 -1.7771 -1.7215  4.4901
 4125SOL     OW13815   6.598   0.117   0.075  0.4539  0.0147  0.0738
 4125SOL    HW113816   6.641   0.201   0.060  0.2620  0.2454  0.7935
 4125SOL    HW213817   6.511   0.127   0.036  1.2040 -0.6366 -1.8681
 4126SOL     OW13818   3.810   0.728   5.783  0.3470  0.1752 -0.6749
 4126SOL    HW113819   3.894   0.728   5.830  1.2369  1.1666 -2.1683
 4126SOL    HW213820   3.818   0.655   5.722 -0.5990 -0.7857  0.2944
 4127SOL     OW13821   1.441   2.255  11.684  0.1847  0.0931  0.1824
 4127SOL    HW113822   1.406   2.240  11.596 -0.1871  1.8509 -0.0172
 4127SOL    HW213823   1.464   2.168  11.716 -0.6408 -0.6941 -1.2453
 4128SOL     OW13824   6.624   2.099   3.269 -0.6756  0.2691  0.7210
 4128SOL    HW113825   6.694   2.136   3.215 -0.2682  1.0669  1.7769
 4128SOL    HW213826   6.656   2.012   3.293  1.2753  1.6153  3.4627
 4129SOL     OW13827   2.698   0.383   5.807 -0.7472  0.0704  0.4511
 4129SOL    HW113828   2.737   0.317   5.750  0.1137  0.3505  0.6971
 4129SOL    HW213829   2.760   0.456   5.805 -1.7344  0.9276  0.0917
 4130SOL     OW13830   1.405   7.867   0.333  0.4232 -0.4064  0.0445
 4130SOL    HW113831   1.334   7.871   0.269 -0.1586 -1.0682  0.6295
 4130SOL    HW213832   1.394   7.945   0.387 -0.4402 -0.9769  0.7146
 4131SOL     OW13833   6.157   1.903   6.503  0.3595  0.7380  0.3976
 4131SOL    HW113834   6.110   1.968   6.451  0.3015  2.4678  2.4532
 4131SOL    HW213835   6.247   1.936   6.507  0.5845  0.1121  0.6089
 4132SOL     OW13836   3.053   2.410   2.012  0.4121  0.6304  0.3935
 4132SOL    HW113837   3.014   2.495   1.991  0.9044  0.5013 -1.2010
 4132SOL    HW213838   3.132   2.432   2.062  1.5300  1.2816 -1.5346
 4133SOL     OW13839   3.177   0.050  10.216 -0.7152  0.1094  0.1923
 4133SOL    HW113840   3.201  -0.040  10.241 -0.2143  0.1117 -0.2613
 4133SOL    HW213841   3.189   0.101  10.296  0.2222 -0.0054  0.1391
 4134SOL     OW13842   1.768   3.466   0.481  0.5865  0.0944  0.3876
 4134SOL    HW113843   1.830   3.514   0.537 -0.1056 -0.6700  1.8568
 4134SOL    HW213844   1.696   3.527   0.468  0.1802 -0.1456  1.3990
 4135SOL     OW13845   3.862   5.647   1.309 -0.4546  0.4921 -0.4480
 4135SOL    HW113846   3.902   5.731   1.285 -1.1573  0.6799 -0.9860
 4135SOL    HW213847   3.773   5.653   1.276 -0.6497 -0.2891 -0.0720
 4136SOL     OW13848   6.858   6.443   1.666  0.1541 -0.1216 -0.1951
 4136SOL    HW113849   6.785   6.491   1.704 -0.1402 -0.6633 -0.0603
 4136SOL    HW213850   6.933   6.465   1.722 -0.1757 -0.5386  0.4132
 4137SOL     OW13851   5.364   0.184   2.232 -0.7926 -0.5337  0.1157
 4137SOL    HW113852   5.285   0.226   2.265 -0.4765  0.5161 -0.4095
 4137SOL    HW213853   5.333   0.112   2.178 -1.4064  0.0808 -0.3667
 4138SOL     OW13854   7.070   1.958   7.457 -0.1972 -0.3583 -0.4918
 4138SOL    HW113855   7.008   2.006   7.512 -1.1767 -0.5837 -1.3664
 4138SOL    HW213856   7.040   1.867   7.461 -1.1049 -0.1979 -2.4000
 4139SOL     OW13857   6.520   7.694  10.954 -0.0296 -0.1895 -0.1372
 4139SOL    HW113858   6.556   7.605  10.955 -0.6548 -0.4454  0.1152
 4139SOL    HW213859   6.561   7.738  11.028 -0.0880 -0.4226  0.0346
 4140SOL     OW13860   7.367   2.704  12.031 -0.0635 -0.2945  0.1313
 4140SOL    HW113861   7.343   2.786  12.072 -1.5243  0.6828 -2.4201
 4140SOL    HW213862   7.289   2.649  12.036  0.9249 -1.6487  1.9025
 4141SOL     OW13863   2.986   6.839   3.823 -0.1896  0.2205 -0.0160
 4141SOL    HW113864   2.961   6.890   3.900 -0.3325  0.2891 -0.1047
 4141SOL    HW213865   2.943   6.885   3.750  0.4968  0.5485 -0.2172
 4142SOL     OW13866   6.887   0.250   8.873  1.1336 -0.0216  0.2625
 4142SOL    HW113867   6.887   0.180   8.807  0.1951  1.4565 -1.3702
 4142SOL    HW213868   6.832   0.216   8.944 -1.9462  0.1870 -1.8472
 4143SOL     OW13869   5.782   4.079   7.530 -0.1434  0.2679  0.0100
 4143SOL    HW113870   5.720   4.114   7.465  0.5294 -0.1889 -0.8962
 4143SOL    HW213871   5.790   4.148   7.595 -1.9189  0.1803  0.3704
 4144SOL     OW13872   0.845   2.183  11.523 -0.2619 -0.0155  0.1622
 4144SOL    HW113873   0.885   2.219  11.444  0.5837 -0.0485  0.5636
 4144SOL    HW213874   0.792   2.255  11.558  0.2841  0.3755  0.1870
 4145SOL     OW13875   1.435   7.570   5.854  0.0254  0.0122  0.0585
 4145SOL    HW113876   1.385   7.563   5.936 -0.6475 -1.4259 -0.4478
 4145SOL    HW213877   1.371   7.553   5.785  0.4846  1.6607 -0.8272
 4146SOL     OW13878   2.011   5.939   0.688  0.0742  0.3322  0.0070
 4146SOL    HW113879   1.923   5.909   0.710  0.2324 -1.0238 -1.0992
 4146SOL    HW213880   1.997   6.018   0.635 -0.4766  0.1381 -0.1388
 4147SOL     OW13881   2.318   5.741   1.801 -0.0673  0.0202 -0.4665
 4147SOL    HW113882   2.256   5.731   1.873  0.5964  0.0147  0.1096
 4147SOL    HW213883   2.383   5.672   1.815  0.2369  0.2156 -0.8940
 4148SOL     OW13884   2.107   7.248   8.295 -0.3366 -0.1588 -0.1729
 4148SOL    HW113885   2.047   7.308   8.340 -0.7180 -0.3878 -0.3706
 4148SOL    HW213886   2.133   7.185   8.362 -1.1334 -0.6719 -0.3407
 4149SOL     OW13887   2.737   6.146   6.978 -0.1423 -0.2984  0.4046
 4149SOL    HW113888   2.821   6.104   6.960 -0.7510 -0.9270 -1.1244
 4149SOL    HW213889   2.711   6.186   6.895 -2.0312 -1.3624  0.4290
 4150SOL     OW13890   1.691   7.330  10.319  0.3151  0.0748  0.1417
 4150SOL    HW113891   1.630   7.400  10.295 -0.3419 -0.1338  1.1565
 4150SOL    HW213892   1.672   7.259  10.258 -0.9015 -0.2171  0.8188
 4151SOL     OW13893   7.853   2.765   3.223  0.4189 -0.3829  0.0051
 4151SOL    HW113894   7.910   2.820   3.276  1.2784 -1.1040 -0.1467
 4151SOL    HW213895   7.898   2.758   3.139 -0.7630  0.4773 -0.7289
 4152SOL     OW13896   1.592   5.761   3.355 -0.3880 -0.7104 -0.4303
 4152SOL    HW113897   1.601   5.855   3.341 -1.6605 -0.6424 -0.8855
 4152SOL    HW213898   1.654   5.722   3.293  0.6933 -0.1692  0.2831
 4153SOL     OW13899   6.257   1.140  11.465 -0.2890 -0.4566  0.1250
 4153SOL    HW113900   6.243   1.234  11.468 -0.7130 -0.4759 -0.9421
 4153SOL    HW213901   6.175   1.103  11.500 -0.7326 -0.4508 -0.8809
 4154SOL     OW13902   2.044   6.393   4.426 -0.0923  0.1151 -0.2937
 4154SOL    HW113903   1.970   6.450   4.408 -1.9563 -2.5839 -2.0064
 4154SOL    HW213904   2.096   6.394   4.346 -1.2046 -1.9047 -1.1228
 4155SOL     OW13905   2.861   2.912  10.541  0.3779  0.4804 -0.4667
 4155SOL    HW113906   2.918   2.966  10.596 -0.1317  0.2673  0.2841
 4155SOL    HW213907   2.780   2.962  10.533  0.7981  0.9735 -1.8815
 4156SOL     OW13908   3.310   7.181  10.757  0.6452 -0.6444 -0.2612
 4156SOL    HW113909   3.332   7.197  10.849  0.8017 -1.3102 -0.1739
 4156SOL    HW213910   3.389   7.141  10.720  0.3717 -0.9554 -0.5238
 4157SOL     OW13911   1.025   6.211  10.134 -0.3631  0.1084  0.1790
 4157SOL    HW113912   1.103   6.207  10.190  1.9774 -2.4854 -2.9000
 4157SOL    HW213913   1.050   6.268  10.061 -2.4445  1.4280  0.4023
 4158SOL     OW13914   5.422   6.734   8.968 -0.3222 -0.3428 -0.1660
 4158SOL    HW113915   5.395   6.644   8.988  1.4497 -0.8225  0.2754
 4158SOL    HW213916   5.384   6.786   9.038  0.5202 -1.1097  0.9071
 4159SOL     OW13917   5.321   5.514   5.014 -0.3181  0.8703 -0.3674
 4159SOL    HW113918   5.273   5.495   5.094  2.1208  1.2416  1.2954
 4159SOL    HW213919   5.335   5.609   5.016  0.9917  0.7010 -0.4606
 4160SOL     OW13920   6.038   4.322  12.463 -0.1003 -0.4424 -0.0867
 4160SOL    HW113921   5.978   4.330  12.537  0.0149 -0.3999  0.0036
 4160SOL    HW213922   6.112   4.380  12.487  0.5393 -1.4194  0.3612
 4161SOL     OW13923   7.854   3.194  12.415 -0.3061 -0.3484 -0.2464
 4161SOL    HW113924   7.823   3.117  12.368  0.1110 -0.7451  0.1180
 4161SOL    HW213925   7.853   3.167  12.507  2.1377 -0.7560 -0.2818
 4162SOL     OW13926   3.727   5.128  11.270 -0.3616 -0.3609 -0.1375
 4162SOL    HW113927   3.742   5.036  11.290  0.1586 -0.1638  0.4042
 4162SOL    HW213928   3.675   5.127  11.189 -3.6280 -1.2352  1.7634
 4163SOL     OW13929   3.248   2.289  11.789 -0.7875  0.0731 -0.1609
 4163SOL    HW113930   3.305   2.277  11.865 -1.5525  1.5035  0.6715
 4163SOL    HW213931   3.278   2.223  11.726 -1.0108 -2.0583  1.8515
 4164SOL     OW13932   2.661   1.173   3.615  0.5469  0.3377 -0.5115
 4164SOL    HW113933   2.671   1.268   3.620  0.3127  0.4230 -1.5087
 4164SOL    HW213934   2.568   1.157   3.629  0.7445  0.1674  0.6772
 4165SOL     OW13935   6.242   4.648   1.620  0.2260 -0.1303  0.0735
 4165SOL    HW113936   6.222   4.690   1.704  1.1260 -0.0633  0.2598
 4165SOL    HW213937   6.299   4.710   1.575  2.9975 -1.7736  1.0426
 4166SOL     OW13938   7.681   1.612   5.911  0.1620  0.3920 -0.6053
 4166SOL    HW113939   7.675   1.691   5.857  2.1973 -0.0725 -1.6184
 4166SOL    HW213940   7.693   1.541   5.847  1.2455 -0.3589  0.3993
 4167SOL     OW13941   6.319   4.891   3.810  0.3821  0.2485 -0.1396
 4167SOL    HW113942   6.297   4.909   3.719 -0.6162 -0.4018 -0.0421
 4167SOL    HW213943   6.376   4.814   3.806 -2.1191 -1.7315 -0.0845
 4168SOL     OW13944   1.409   4.322   8.096  0.2189  0.7600 -0.1691
 4168SOL    HW113945   1.323   4.312   8.135 -0.0434  1.2339 -0.6155
 4168SOL    HW213946   1.419   4.246   8.039  1.2419 -0.7852  1.9380
 4169SOL     OW13947   0.369   0.073   6.228  0.0800 -0.3773 -0.0966
 4169SOL    HW113948   0.317  -0.007   6.220  1.5014 -1.3042 -0.4453
 4169SOL    HW213949   0.325   0.124   6.296 -1.1373 -1.2188 -0.2263
 4170SOL     OW13950   4.753   7.434   9.307  0.3694  0.1338  0.8539
 4170SOL    HW113951   4.736   7.415   9.215 -1.0446  0.7407  0.9636
 4170SOL    HW213952   4.795   7.355   9.341 -1.0864 -0.9583  0.2034
 4171SOL     OW13953   5.483   5.344   6.545 -0.4581  0.0053 -0.2354
 4171SOL    HW113954   5.436   5.267   6.575  3.2518 -1.1458  3.6704
 4171SOL    HW213955   5.474   5.407   6.616  0.5690  1.2270 -1.1377
 4172SOL     OW13956   2.636   2.663   8.490 -0.0072  0.3016  0.0325
 4172SOL    HW113957   2.558   2.672   8.435 -0.9027 -0.7250  1.0873
 4172SOL    HW213958   2.692   2.601   8.444 -0.0876  0.5495 -0.4085
 4173SOL     OW13959   2.303   1.588  10.011  0.0639  0.2034  0.4587
 4173SOL    HW113960   2.232   1.531  10.040  0.0860 -0.1269 -0.1290
 4173SOL    HW213961   2.327   1.637  10.090 -2.9302  2.6561  0.0402
 4174SOL     OW13962   7.585   0.761  10.263 -0.7008  0.0144 -0.2445
 4174SOL    HW113963   7.492   0.777  10.280 -0.5053 -0.0720  1.0451
 4174SOL    HW213964   7.617   0.720  10.344  0.2702 -0.7602 -0.9911
 4175SOL     OW13965   2.647   6.071  12.312 -0.3525  0.0032 -0.1151
 4175SOL    HW113966   2.662   5.991  12.261 -0.1428  0.7224 -1.2216
 4175SOL    HW213967   2.729   6.084  12.360 -0.8853 -1.1897  1.1621
 4176SOL     OW13968   6.607   2.937   8.021 -0.6333 -0.0642 -0.3414
 4176SOL    HW113969   6.568   2.994   7.955 -1.4653  0.3625  0.4967
 4176SOL    HW213970   6.594   2.984   8.104  2.1901  0.3882 -0.0539
 4177SOL     OW13971   3.893   2.995   2.965  0.2527 -0.0630 -0.0847
 4177SOL    HW113972   3.847   3.068   2.922 -0.9846 -1.2035 -0.7685
 4177SOL    HW213973   3.956   2.965   2.901  1.1694  0.7467  0.4134
 4178SOL     OW13974   4.898   2.100   1.962  0.2490  0.1884 -0.1735
 4178SOL    HW113975   4.871   2.026   2.015  1.1124 -0.2273 -0.2940
 4178SOL    HW213976   4.850   2.090   1.880  0.1052 -0.0405 -0.0612
 4179SOL     OW13977   3.958   2.840   5.475 -0.5908 -0.1495  0.8818
 4179SOL    HW113978   3.984   2.923   5.434 -0.0177  0.2158  1.9309
 4179SOL    HW213979   4.017   2.831   5.550 -0.3954 -1.7026  0.5827
 4180SOL     OW13980   2.232   2.330   7.316  0.0996 -0.6084 -0.3605
 4180SOL    HW113981   2.275   2.248   7.340  2.1648  0.1446 -1.2670
 4180SOL    HW213982   2.283   2.398   7.361 -0.8498  0.2683 -0.5640
 4181SOL     OW13983   7.949   1.437   4.007 -0.1376 -0.0980 -0.0536
 4181SOL    HW113984   7.955   1.514   3.949  0.8886  0.1590  0.3659
 4181SOL    HW213985   7.994   1.368   3.959 -1.6181 -0.6342 -0.7100
 4182SOL     OW13986   1.304   3.264  12.318 -0.4062 -0.1160  0.0573
 4182SOL    HW113987   1.356   3.184  12.331 -1.1388 -0.4737  0.8869
 4182SOL    HW213988   1.278   3.290  12.406 -0.5467  0.7993 -0.2462
 4183SOL     OW13989   0.254   6.948   2.911 -0.8208  0.1184  0.7498
 4183SOL    HW113990   0.340   6.955   2.953  0.3062  1.2615 -1.6049
 4183SOL    HW213991   0.240   6.854   2.901  0.1594 -0.0754  1.1052
 4184SOL     OW13992   1.855   2.259   0.671  0.1326  0.0539 -0.0303
 4184SOL    HW113993   1.907   2.297   0.599 -0.1728  0.5383 -0.0010
 4184SOL    HW213994   1.806   2.188   0.630  1.5278 -1.0348  0.1393
 4185SOL     OW13995   4.671   2.946  11.069 -0.2714  0.3301  0.3296
 4185SOL    HW113996   4.584   2.937  11.029  0.4512 -1.9788 -0.9289
 4185SOL    HW213997   4.705   3.028  11.034 -1.9502  1.3680  0.9633
 4186SOL     OW13998   0.864   7.772   7.842  0.1332  0.2883 -0.0337
 4186SOL    HW113999   0.947   7.729   7.860  1.2440  1.9470 -0.8959
 4186SOL    HW214000   0.835   7.736   7.758  0.0256 -0.2315  0.2272
 4187SOL     OW14001   2.114   5.170  10.312 -0.3174  0.1604 -0.3584
 4187SOL    HW114002   2.106   5.075  10.304  1.3692 -0.0601  0.0005
 4187SOL    HW214003   2.025   5.203  10.304 -1.1155 -1.5582  0.8034
 4188SOL     OW14004   6.352   5.297   0.627  0.2551 -0.2775 -0.0487
 4188SOL    HW114005   6.371   5.335   0.541 -0.6332 -0.8332 -0.4956
 4188SOL    HW214006   6.438   5.294   0.671  0.5133  1.2925 -0.3685
 4189SOL     OW14007   6.249   0.648   6.235 -0.0396 -0.7925  0.7484
 4189SOL    HW114008   6.228   0.555   6.233  1.0339 -1.0433 -1.2122
 4189SOL    HW214009   6.316   0.656   6.303 -0.3716 -1.3859  1.1522
 4190SOL     OW14010   2.579   1.824   8.742 -0.1038  0.0981 -0.3528
 4190SOL    HW114011   2.610   1.915   8.746 -1.3081  0.5303 -0.4283
 4190SOL    HW214012   2.508   1.826   8.678  0.5588 -1.1333 -1.1699
 4191SOL     OW14013   6.642   0.344   7.023  0.2902 -0.0942 -0.1534
 4191SOL    HW114014   6.630   0.437   7.005  0.3501 -0.3489 -1.5842
 4191SOL    HW214015   6.711   0.316   6.963  0.5034 -1.0005  0.4831
 4192SOL     OW14016   2.834   0.850   8.940 -0.1379  0.1117 -0.7286
 4192SOL    HW114017   2.899   0.881   8.877 -1.0321 -0.5030 -1.9725
 4192SOL    HW214018   2.859   0.759   8.958 -0.5635 -0.0806 -1.0991
 4193SOL     OW14019   5.292   0.250   6.970  0.7503  0.0552  0.6148
 4193SOL    HW114020   5.326   0.276   7.055  0.8538  0.1922  0.5328
 4193SOL    HW214021   5.301   0.329   6.916 -0.3159  0.3045  0.7771
 4194SOL     OW14022   6.894   3.731   0.163 -0.3758 -0.5343 -0.4841
 4194SOL    HW114023   6.868   3.815   0.125  1.0062 -0.1651 -0.6905
 4194SOL    HW214024   6.817   3.700   0.209 -0.6048  1.3492  0.4829
 4195SOL     OW14025   2.692   4.134   4.037  0.1995 -0.5594 -0.2072
 4195SOL    HW114026   2.603   4.107   4.063  0.1515  1.0478  1.4441
 4195SOL    HW214027   2.700   4.224   4.067  2.4558 -0.7002 -0.2394
 4196SOL     OW14028   4.751   5.544   4.869 -0.2067  0.4732  0.4698
 4196SOL    HW114029   4.757   5.515   4.778 -0.8672  0.6903  0.3545
 4196SOL    HW214030   4.739   5.463   4.919 -2.5856  0.5336  0.1001
 4197SOL     OW14031   1.929   2.011   7.756 -0.5232 -0.3257 -0.2031
 4197SOL    HW114032   1.938   2.033   7.663 -0.1000 -2.3237 -0.6837
 4197SOL    HW214033   1.838   1.981   7.765 -0.3363 -0.8964 -0.1657
 4198SOL     OW14034   0.690   4.332   9.111  0.2182  0.5535 -0.8914
 4198SOL    HW114035   0.768   4.277   9.109  0.0675  0.2293  0.8363
 4198SOL    HW214036   0.666   4.337   9.203 -1.5735  0.9810 -1.3336
 4199SOL     OW14037   3.551   0.109   1.205  0.1898  0.3385  0.3972
 4199SOL    HW114038   3.610   0.176   1.169 -0.5295  0.9021  0.2389
 4199SOL    HW214039   3.602   0.028   1.202  0.5050  0.5528 -0.9877
 4200SOL     OW14040   5.845   4.416   8.296  0.4286  0.1686  0.7330
 4200SOL    HW114041   5.898   4.468   8.236  1.1899 -0.5905  0.7346
 4200SOL    HW214042   5.761   4.407   8.251  0.7106  0.3295  0.1680
 4201SOL     OW14043   0.750   6.281   8.951 -0.4482  0.0251  0.1817
 4201SOL    HW114044   0.836   6.324   8.955 -0.6860  0.5087  0.1491
 4201SOL    HW214045   0.707   6.306   9.032 -0.7877  0.2745 -0.0716
 4202SOL     OW14046   0.472   0.111   9.928  0.5641  0.1872 -0.0426
 4202SOL    HW114047   0.483   0.018   9.910 -0.4555 -0.0808  0.6277
 4202SOL    HW214048   0.493   0.121  10.021  0.0529  0.5058  0.0475
 4203SOL     OW14049   3.750   1.640   0.286  0.3805 -0.8598  0.4900
 4203SOL    HW114050   3.660   1.606   0.281  0.0185 -0.1950  1.8601
 4203SOL    HW214051   3.761   1.664   0.378  2.6056 -2.5906  0.7500
 4204SOL     OW14052   3.055   7.701  11.037 -0.0834  0.1044 -0.1710
 4204SOL    HW114053   2.993   7.679  11.107 -0.0000  0.9633  0.1814
 4204SOL    HW214054   3.113   7.766  11.076  2.3857 -2.1384  0.1942
 4205SOL     OW14055   0.102   3.770   4.726 -0.5478  0.0437 -0.5493
 4205SOL    HW114056   0.184   3.816   4.745 -0.8331 -0.2378  1.6684
 4205SOL    HW214057   0.050   3.781   4.806 -2.0840 -1.0449 -1.3524
 4206SOL     OW14058   5.585   3.388   6.122 -0.0867 -0.3103  0.1257
 4206SOL    HW114059   5.668   3.342   6.133  0.5113  0.7413  0.0971
 4206SOL    HW214060   5.553   3.360   6.037  1.1065  0.6013 -0.6534
 4207SOL     OW14061   0.996   5.873   0.198 -0.5479  0.2995 -0.2934
 4207SOL    HW114062   1.040   5.789   0.190 -0.3894  0.3328  0.1641
 4207SOL    HW214063   0.957   5.889   0.112  0.8901  0.5813 -0.9266
 4208SOL     OW14064   4.386   6.850   7.715 -0.2917  0.1356 -0.0150
 4208SOL    HW114065   4.448   6.802   7.769 -0.7997 -0.4918  0.0165
 4208SOL    HW214066   4.326   6.890   7.778 -1.4168 -1.3159 -0.1081
 4209SOL     OW14067   3.861   4.191   2.467 -0.2522 -0.4661  0.4127
 4209SOL    HW114068   3.949   4.202   2.502 -0.6581  0.3746  1.2095
 4209SOL    HW214069   3.841   4.099   2.480 -0.3100 -0.2217  2.2427
 4210SOL     OW14070   0.091   0.641   8.298  0.0273  0.3379  0.2751
 4210SOL    HW114071   0.113   0.725   8.338 -1.8573  0.0514  2.0922
 4210SOL    HW214072   0.174   0.593   8.296  1.3373  2.4560 -1.6111
 4211SOL     OW14073   5.622   0.104  12.192 -0.4405 -0.2198 -0.7421
 4211SOL    HW114074   5.530   0.078  12.201 -1.1753  2.1090 -0.6558
 4211SOL    HW214075   5.640   0.101  12.098 -0.4261 -1.1967 -0.7109
 4212SOL     OW14076   1.477   2.620   0.883 -0.2394  0.5409  0.0232
 4212SOL    HW114077   1.546   2.681   0.909 -0.0570  0.2405  0.2453
 4212SOL    HW214078   1.398   2.674   0.877 -0.2938  0.6111  1.2239
 4213SOL     OW14079   1.547   7.781  12.235 -0.1384  0.5939 -0.2511
 4213SOL    HW114080   1.614   7.848  12.232 -0.1036  0.5437 -1.0604
 4213SOL    HW214081   1.514   7.782  12.324  0.0310  1.5173 -0.1971
 4214SOL     OW14082   0.939   5.267   1.025  0.0543  0.6101 -0.5552
 4214SOL    HW114083   0.925   5.330   1.095  0.4376 -0.6021  0.6661
 4214SOL    HW214084   0.859   5.215   1.024  0.3589  0.1344 -0.4899
 4215SOL     OW14085   2.140   5.795   9.139 -0.2770  0.4045 -0.4332
 4215SOL    HW114086   2.227   5.775   9.104  0.3011  0.5806  0.8217
 4215SOL    HW214087   2.112   5.872   9.090  0.3519  0.4442 -0.7503
 4216SOL     OW14088   7.358   3.717  10.240 -0.0759 -0.0025 -0.1044
 4216SOL    HW114089   7.274   3.731  10.283 -0.2242  2.6127 -1.0084
 4216SOL    HW214090   7.418   3.692  10.310 -1.3446 -0.7030  0.7581
 4217SOL     OW14091   3.936   6.272  11.171 -0.4394 -0.0296 -0.4253
 4217SOL    HW114092   3.942   6.217  11.094 -1.7253  1.1014 -1.3892
 4217SOL    HW214093   4.022   6.314  11.178  0.4716 -1.8803  0.1847
 4218SOL     OW14094   3.097   6.142  10.317  0.9649  0.3181 -0.3351
 4218SOL    HW114095   3.104   6.155  10.411  0.4594  1.1734 -0.4000
 4218SOL    HW214096   3.121   6.051  10.303  2.7388  0.6217  0.4283
 4219SOL     OW14097   7.383   7.393   7.703 -0.2789  0.3315  0.2299
 4219SOL    HW114098   7.319   7.392   7.632 -0.2942 -1.2013  0.2136
 4219SOL    HW214099   7.467   7.379   7.659 -0.0856  1.0824  0.3635
 4220SOL     OW14100   3.790   5.687   2.149 -0.3792  0.0688  0.4381
 4220SOL    HW114101   3.876   5.730   2.147 -0.1363 -0.4225  0.0954
 4220SOL    HW214102   3.795   5.624   2.221 -0.3542 -0.1582  0.2389
 4221SOL     OW14103   4.130   1.920   9.943 -0.3160 -0.7024  0.0073
 4221SOL    HW114104   4.058   1.969   9.983 -0.1118  0.1355 -0.6279
 4221SOL    HW214105   4.206   1.977   9.952  0.9436 -2.5712  2.9780
 4222SOL     OW14106   0.932   7.843   5.772 -0.0825  0.2647 -0.6353
 4222SOL    HW114107   0.928   7.928   5.817  0.1915  0.5555 -1.1588
 4222SOL    HW214108   0.909   7.780   5.840  0.1481  0.7156 -0.1270
 4223SOL     OW14109   5.092   4.657   4.035  0.1909  0.5309  0.0731
 4223SOL    HW114110   5.109   4.681   4.126  0.1219 -1.2947  0.6005
 4223SOL    HW214111   5.178   4.637   3.999  0.0892 -0.0190  0.1280
 4224SOL     OW14112   0.062   6.979  11.650  0.4137  0.6829  0.2784
 4224SOL    HW114113  -0.001   6.910  11.630 -0.6917  1.9299 -0.7027
 4224SOL    HW214114   0.142   6.951  11.604  0.0226  0.0065 -0.0227
 4225SOL     OW14115   5.614   4.418   5.538 -0.4462 -0.2315 -0.2014
 4225SOL    HW114116   5.682   4.351   5.537 -0.2276 -0.0086 -0.8959
 4225SOL    HW214117   5.537   4.375   5.502 -0.8092 -0.6041  0.9616
 4226SOL     OW14118   1.528   7.182   3.755 -0.2111  0.2603  0.0492
 4226SOL    HW114119   1.463   7.147   3.816 -0.1412 -0.5819 -0.3414
 4226SOL    HW214120   1.500   7.272   3.739 -1.4164 -0.1447 -0.2641
 4227SOL     OW14121   1.612   0.742  10.548  0.0812  0.0269  0.2064
 4227SOL    HW114122   1.563   0.782  10.620  0.8280 -0.6364  1.1263
 4227SOL    HW214123   1.568   0.659  10.531 -0.4604  0.4574 -0.5389
 4228SOL     OW14124   0.633   6.779  11.454  0.4099  0.1048  0.0032
 4228SOL    HW114125   0.580   6.848  11.413 -0.0386 -0.9217 -1.2280
 4228SOL    HW214126   0.685   6.743  11.382  0.6714 -0.8034  0.6299
 4229SOL     OW14127   1.987   1.509   9.502 -0.2626 -0.1197 -0.3659
 4229SOL    HW114128   1.990   1.443   9.434 -2.6992  1.7712 -2.4725
 4229SOL    HW214129   2.066   1.562   9.487 -1.4432  1.1080 -2.7425
 4230SOL     OW14130   0.428   4.748   2.465  0.0502 -0.5173  0.3195
 4230SOL    HW114131   0.477   4.830   2.469 -0.6095 -0.1381  0.6660
 4230SOL    HW214132   0.471   4.692   2.530 -0.8980  0.3295  1.7180
 4231SOL     OW14133   4.396   7.878   6.476 -0.2802  0.2728 -0.8303
 4231SOL    HW114134   4.451   7.841   6.407 -0.7257 -0.3191 -0.8756
 4231SOL    HW214135   4.447   7.865   6.557 -1.0789 -1.9337 -0.6050
 4232SOL     OW14136   1.536   1.289  10.983 -0.0054  0.0047 -0.1971
 4232SOL    HW114137   1.476   1.312  11.054  1.7099  0.8955  1.0300
 4232SOL    HW214138   1.543   1.369  10.931  0.1906 -0.0608 -0.2711
 4233SOL     OW14139   7.618   4.708   3.922  0.5909  0.4333  0.3295
 4233SOL    HW114140   7.551   4.670   3.978 -1.2035 -0.1423 -2.0683
 4233SOL    HW214141   7.687   4.735   3.982 -1.5255  0.5486  2.8509
 4234SOL     OW14142   2.489   3.012   3.593 -0.1815  0.1001  0.0477
 4234SOL    HW114143   2.493   2.958   3.672  1.8681  0.3540  0.1824
 4234SOL    HW214144   2.509   2.952   3.521  0.4076  0.3331  0.0093
 4235SOL     OW14145   4.604   0.597   0.504  0.1720  0.3013  0.0269
 4235SOL    HW114146   4.517   0.578   0.540 -0.5973  1.5884 -1.0563
 4235SOL    HW214147   4.607   0.550   0.421  1.4450 -1.6076  1.0770
 4236SOL     OW14148   6.544   5.716   3.753 -0.1460  0.6701  0.3397
 4236SOL    HW114149   6.464   5.710   3.702  0.5529  0.4253 -0.7812
 4236SOL    HW214150   6.519   5.758   3.835 -1.4780  0.2480  0.1597
 4237SOL     OW14151   6.361   0.690   1.629 -0.4803  0.1613 -0.0892
 4237SOL    HW114152   6.307   0.689   1.708  1.0055  1.7692  1.0118
 4237SOL    HW214153   6.335   0.611   1.582 -1.6712 -0.6642  1.8163
 4238SOL     OW14154   1.984   1.375   7.398 -0.0047  0.0485  0.4541
 4238SOL    HW114155   1.900   1.421   7.402  0.4517  1.1405 -1.4312
 4238SOL    HW214156   2.048   1.443   7.377  1.2193 -0.9160  0.9386
 4239SOL     OW14157   5.173   3.435   9.163  0.2554  0.0147  0.0924
 4239SOL    HW114158   5.081   3.433   9.137 -0.0295  1.3828  0.8842
 4239SOL    HW214159   5.198   3.527   9.155  0.6463  0.2396  2.7916
 4240SOL     OW14160   1.337   5.855   8.975  0.1737  0.0227  0.4599
 4240SOL    HW114161   1.403   5.840   9.043  1.3352  0.0667 -0.6298
 4240SOL    HW214162   1.373   5.925   8.922 -0.8863  0.2243 -0.0124
 4241SOL     OW14163   0.121   4.005  11.086  0.7243 -0.4226 -0.6142
 4241SOL    HW114164   0.045   4.017  11.030 -0.9822 -1.8962  1.2444
 4241SOL    HW214165   0.153   4.094  11.102 -0.9135  0.2702 -1.0421
 4242SOL     OW14166   6.564   3.983   6.478 -0.7172  0.1666 -0.3874
 4242SOL    HW114167   6.607   3.952   6.398  1.1768  1.5539  0.0396
 4242SOL    HW214168   6.525   3.904   6.516  1.4438 -1.2021 -0.8173
 4243SOL     OW14169   7.462   6.712   8.081 -0.5547  0.0633 -0.2408
 4243SOL    HW114170   7.547   6.673   8.059 -0.4241  0.4504 -0.4451
 4243SOL    HW214171   7.485   6.784   8.140 -0.8436 -0.5393  0.6310
 4244SOL     OW14172   6.879   4.179   0.351  0.2285 -0.0972  0.6073
 4244SOL    HW114173   6.898   4.251   0.412  2.0704 -0.8883  1.0318
 4244SOL    HW214174   6.912   4.210   0.267  0.5344 -0.2291  0.6776
 4245SOL     OW14175   4.015   1.445   0.753  0.6562 -0.0036 -0.0912
 4245SOL    HW114176   4.103   1.454   0.715  0.8548 -0.2427  0.3073
 4245SOL    HW214177   4.029   1.401   0.836  0.1721  0.1273  0.0629
 4246SOL     OW14178   3.169   3.338   1.763 -0.0075 -0.6179 -0.3266
 4246SOL    HW114179   3.170   3.296   1.677  1.4562  0.4429 -0.8749
 4246SOL    HW214180   3.151   3.430   1.744 -0.1217 -0.4577  0.5443
 4247SOL     OW14181   4.840   2.206   8.642  0.0661 -0.0789  1.3250
 4247SOL    HW114182   4.745   2.206   8.659 -0.1883 -1.3663  0.0520
 4247SOL    HW214183   4.878   2.230   8.727 -1.4271  2.9279  1.3004
 4248SOL     OW14184   3.412   2.223  11.991 -0.3849  0.3544 -0.0525
 4248SOL    HW114185   3.454   2.276  12.059  0.1062 -1.6334  1.2667
 4248SOL    HW214186   3.486   2.182  11.945 -0.7752 -0.6827  0.2190
 4249SOL     OW14187   0.423   0.308   8.990 -0.5184  0.3751  0.1190
 4249SOL    HW114188   0.512   0.280   8.967 -0.8149 -0.6285  0.1625
 4249SOL    HW214189   0.424   0.403   8.976  0.2592  0.2362 -0.8592
 4250SOL     OW14190   2.982   1.010   5.999 -0.1418  0.1699  0.3610
 4250SOL    HW114191   2.966   1.066   6.075  0.1740  0.8858 -0.0840
 4250SOL    HW214192   2.919   1.041   5.933 -0.8038 -0.8181  0.5024
 4251SOL     OW14193   1.309   0.742   0.612  0.1280  0.1126  0.0266
 4251SOL    HW114194   1.249   0.739   0.538 -0.7197  1.1593  0.6414
 4251SOL    HW214195   1.365   0.665   0.601 -0.3367 -0.0510 -1.3821
 4252SOL     OW14196   5.832   2.757  10.542 -0.2533  0.1317 -0.0202
 4252SOL    HW114197   5.747   2.780  10.503 -0.8709 -0.0721  1.1714
 4252SOL    HW214198   5.871   2.696  10.479 -0.5203  1.0225 -1.0829
 4253SOL     OW14199   4.949   0.127   7.137  0.1487  0.6950 -0.3498
 4253SOL    HW114200   5.040   0.101   7.153  0.0278 -0.1698 -0.9523
 4253SOL    HW214201   4.907   0.125   7.223  0.9357  2.1566  0.1061
 4254SOL     OW14202   6.098   5.892   8.147 -0.1191  0.2209  0.1047
 4254SOL    HW114203   6.192   5.885   8.167 -0.1010  1.0988  0.3352
 4254SOL    HW214204   6.093   5.956   8.076 -0.5936  0.6215  0.4968
 4255SOL     OW14205   6.944   6.831   2.004 -0.8496 -0.3714  0.1660
 4255SOL    HW114206   6.886   6.859   2.075 -0.5674  0.7318 -0.0145
 4255SOL    HW214207   6.886   6.820   1.929 -1.2090 -1.9305  0.6427
 4256SOL     OW14208   4.276   5.007   5.031  0.4907 -0.2570 -0.5705
 4256SOL    HW114209   4.306   4.986   5.119  1.2008 -1.5645 -1.0983
 4256SOL    HW214210   4.192   4.961   5.023 -1.0918  2.2669  0.4161
 4257SOL     OW14211   4.907   0.599   4.013 -0.1129 -0.2304 -0.2466
 4257SOL    HW114212   4.934   0.590   3.921 -0.3593 -1.9213 -0.1987
 4257SOL    HW214213   4.988   0.619   4.060  0.2273 -0.5112 -0.6989
 4258SOL     OW14214   4.337   1.787  10.980  0.0012 -0.0180 -0.3826
 4258SOL    HW114215   4.392   1.759  11.053 -1.6400 -0.8556  0.5603
 4258SOL    HW214216   4.286   1.861  11.015 -1.7342 -1.2415 -0.2263
 4259SOL     OW14217   4.385   3.400  10.062 -0.3154 -0.0964  0.0318
 4259SOL    HW114218   4.392   3.494  10.045 -0.1374 -0.4305 -1.9847
 4259SOL    HW214219   4.476   3.371  10.076 -0.4275  0.1135  1.3100
 4260SOL     OW14220   6.020   0.590   2.189  0.2975  0.7655 -0.0929
 4260SOL    HW114221   6.100   0.625   2.149  1.2842 -0.3519  0.8643
 4260SOL    HW214222   6.034   0.496   2.194 -1.0470  0.5595  0.1933
 4261SOL     OW14223   0.739   3.940   1.451  0.4099  0.0756  0.0578
 4261SOL    HW114224   0.817   3.922   1.503  1.5964 -0.1325 -1.7361
 4261SOL    HW214225   0.767   3.932   1.360 -2.1474 -2.0745 -0.6886
 4262SOL     OW14226   4.132   7.774  10.906 -0.0656  0.0362 -0.2607
 4262SOL    HW114227   4.157   7.779  10.814  2.3821  2.2503  0.4047
 4262SOL    HW214228   4.037   7.791  10.906 -0.1367 -0.1186 -2.3555
 4263SOL     OW14229   0.378   6.885   0.581  0.2236  0.4075 -0.6907
 4263SOL    HW114230   0.284   6.895   0.567  0.2136  1.1107 -0.1893
 4263SOL    HW214231   0.404   6.814   0.522 -0.4155  0.9886 -1.7122
 4264SOL     OW14232   7.729   0.508   3.045  0.1953  0.1374 -0.8902
 4264SOL    HW114233   7.777   0.589   3.063  0.0895 -0.0110  0.0768
 4264SOL    HW214234   7.703   0.516   2.953  0.0673  1.2588 -0.7681
 4265SOL     OW14235   5.474   6.447  10.260  0.0789 -0.2582 -0.4259
 4265SOL    HW114236   5.540   6.477  10.197  0.2282 -0.1666 -0.2247
 4265SOL    HW214237   5.519   6.382  10.313  0.7913  1.6399  1.4107
 4266SOL     OW14238   6.176   6.105   4.429  0.3537  0.6663 -0.1483
 4266SOL    HW114239   6.198   6.188   4.386  0.3332  0.4020 -0.6758
 4266SOL    HW214240   6.084   6.114   4.454  0.6161  1.1790  0.6830
 4267SOL     OW14241   4.565   3.960   1.226  0.0947 -0.3043 -0.0685
 4267SOL    HW114242   4.572   3.866   1.206 -1.5114 -0.4640 -0.0764
 4267SOL    HW214243   4.648   3.997   1.198  0.1896 -1.4923 -1.4967
 4268SOL     OW14244   6.335   0.892   9.845 -0.5019 -0.0433  0.4767
 4268SOL    HW114245   6.264   0.954   9.865 -0.1479  0.4646  0.1761
 4268SOL    HW214246   6.365   0.918   9.758  0.1733 -0.1373  0.6763
 4269SOL     OW14247   6.393   0.770  12.150 -0.3606  0.0484  0.0565
 4269SOL    HW114248   6.453   0.755  12.078 -0.8224 -0.6835 -0.1919
 4269SOL    HW214249   6.312   0.800  12.108  0.2425  2.4863  0.4806
 4270SOL     OW14250   6.788   1.574   8.411  0.1987  0.4901  0.0655
 4270SOL    HW114251   6.802   1.488   8.450  0.7614  0.8407  0.6539
 4270SOL    HW214252   6.723   1.559   8.342  0.1264 -0.3599  0.3114
 4271SOL     OW14253   4.335   5.721   5.319  0.2015 -0.3179  0.5051
 4271SOL    HW114254   4.370   5.647   5.269 -0.6057 -1.1310  1.1153
 4271SOL    HW214255   4.296   5.778   5.253  3.6360  1.2688 -0.3769
 4272SOL     OW14256   6.219   1.696   2.253 -0.1851  0.3734  0.2111
 4272SOL    HW114257   6.305   1.717   2.291  0.5249 -0.8089 -0.6739
 4272SOL    HW214258   6.223   1.602   2.235 -0.9898  0.6318 -1.5009
 4273SOL     OW14259   6.898   7.478  12.239  0.1339 -0.3926  0.4786
 4273SOL    HW114260   6.930   7.390  12.257 -0.4082 -0.3502  1.7372
 4273SOL    HW214261   6.972   7.524  12.200  0.2198 -1.5887 -0.8516
 4274SOL     OW14262   7.915   2.802   5.940  0.2897 -0.0756 -0.4500
 4274SOL    HW114263   7.992   2.798   5.998 -0.3960 -1.4192  0.4128
 4274SOL    HW214264   7.943   2.759   5.859 -0.2620 -3.0350  0.7941
 4275SOL     OW14265   1.469   1.874   5.975  0.6863  0.4262  0.2857
 4275SOL    HW114266   1.465   1.967   5.955 -2.5926  0.0881 -1.4222
 4275SOL    HW214267   1.506   1.834   5.897 -0.2140  0.1410 -0.0099
 4276SOL     OW14268   0.859   2.537   7.475  0.4512 -0.4159  0.2122
 4276SOL    HW114269   0.778   2.559   7.428  0.0738 -1.2305  0.4574
 4276SOL    HW214270   0.841   2.451   7.514  1.5468 -0.7539  0.0046
 4277SOL     OW14271   6.082   4.698   9.585 -0.0084  0.3638  0.4245
 4277SOL    HW114272   6.159   4.651   9.552 -0.1797  0.4464 -0.1004
 4277SOL    HW214273   6.050   4.643   9.657  0.4205  0.2238  0.5136
 4278SOL     OW14274   2.020   7.739   6.505  1.0392  0.6170  0.2567
 4278SOL    HW114275   2.047   7.667   6.448  1.9098 -0.0759  1.5058
 4278SOL    HW214276   1.943   7.775   6.462 -0.0936 -1.7509  0.1284
 4279SOL     OW14277   5.127   1.645   4.359  0.2041 -0.7179 -0.2443
 4279SOL    HW114278   5.187   1.602   4.419  2.0961  1.3140 -0.5677
 4279SOL    HW214279   5.100   1.725   4.404 -1.3745 -1.0172 -0.5941
 4280SOL     OW14280   2.396   6.819   4.785  0.2596  0.0852  0.7308
 4280SOL    HW114281   2.374   6.861   4.702 -1.1192  1.1174  1.5832
 4280SOL    HW214282   2.484   6.850   4.805  0.9410 -0.7970 -0.7010
 4281SOL     OW14283   3.285   2.444   2.176 -0.2879  0.3636  0.4316
 4281SOL    HW114284   3.224   2.398   2.233  0.7437 -0.6953  0.7388
 4281SOL    HW214285   3.300   2.528   2.219 -1.4205  0.5933  0.4051
 4282SOL     OW14286   6.454   6.204   4.493 -0.2705  0.3776 -0.0397
 4282SOL    HW114287   6.484   6.148   4.565 -1.0376 -2.0335 -1.4677
 4282SOL    HW214288   6.377   6.159   4.459 -0.4666  1.9259 -1.7852
 4283SOL     OW14289   6.465   3.880  10.349  0.3801 -0.1086 -0.1020
 4283SOL    HW114290   6.484   3.945  10.417  0.3193  0.6333 -0.7763
 4283SOL    HW214291   6.389   3.832  10.382  1.7476 -1.3585  1.4247
 4284SOL     OW14292   6.902   2.835   3.003  0.3564 -0.0196 -0.1416
 4284SOL    HW114293   6.989   2.800   2.983 -0.1315  0.1883 -3.0287
 4284SOL    HW214294   6.843   2.761   2.992  0.1312 -0.3304  2.4544
 4285SOL     OW14295   7.235   6.624  11.890 -0.5025  0.0881  0.5940
 4285SOL    HW114296   7.242   6.717  11.869 -1.1250 -0.0718 -0.4513
 4285SOL    HW214297   7.165   6.592  11.832 -1.7508 -0.6035  2.3907
 4286SOL     OW14298   0.670   6.294   5.182  0.2878  0.1912 -0.2352
 4286SOL    HW114299   0.621   6.375   5.197  1.0627  0.7582 -0.7315
 4286SOL    HW214300   0.627   6.253   5.107  0.1320  0.3281 -0.2208
 4287SOL     OW14301   2.447   4.455   1.721 -0.1729  0.2611  0.1503
 4287SOL    HW114302   2.521   4.479   1.777 -0.3951 -0.6640  0.8784
 4287SOL    HW214303   2.384   4.415   1.782 -0.9990  0.4590 -0.5586
 4288SOL     OW14304   5.642   2.720   1.490 -0.6092  0.5429  0.2772
 4288SOL    HW114305   5.589   2.798   1.472  1.1565  1.9667  0.9582
 4288SOL    HW214306   5.594   2.674   1.559 -1.3817  1.3327  0.2917
 4289SOL     OW14307   7.143   6.420   2.410 -0.2653  0.3806  0.3810
 4289SOL    HW114308   7.130   6.327   2.430 -0.6026 -0.4393 -3.0957
 4289SOL    HW214309   7.192   6.421   2.328  0.6288  3.3345  0.8100
 4290SOL     OW14310   2.100   6.048  10.532  0.1173 -0.1341 -0.4863
 4290SOL    HW114311   2.196   6.054  10.531  0.1695  0.1992  1.4197
 4290SOL    HW214312   2.070   6.139  10.533 -0.1237 -0.2047  0.7584
 4291SOL     OW14313   3.388   4.536   1.418 -0.1315  0.3617  0.4360
 4291SOL    HW114314   3.473   4.534   1.375 -0.7648 -0.4610 -0.8226
 4291SOL    HW214315   3.383   4.452   1.465 -0.0451  0.6395  0.9569
 4292SOL     OW14316   2.656   1.820  11.872 -0.3087  0.8052 -0.2800
 4292SOL    HW114317   2.743   1.836  11.836 -0.3649  0.3955 -0.6118
 4292SOL    HW214318   2.613   1.905  11.869  0.9151  1.5878  2.2771
 4293SOL     OW14319   0.591   5.776   4.489  0.2250  0.2212  0.4141
 4293SOL    HW114320   0.642   5.852   4.461 -0.0967 -0.2904 -1.6850
 4293SOL    HW214321   0.547   5.745   4.410 -2.3700 -0.1454  1.8783
 4294SOL     OW14322   2.145   4.220   9.474 -0.1753 -0.6842 -0.5863
 4294SOL    HW114323   2.191   4.289   9.521  0.2221 -1.9173  0.9235
 4294SOL    HW214324   2.200   4.202   9.398  1.7389 -1.8611  0.9681
 4295SOL     OW14325   7.807   4.486   6.619 -0.2511 -0.2039  0.2695
 4295SOL    HW114326   7.869   4.556   6.642  1.5551  0.0564 -4.2218
 4295SOL    HW214327   7.735   4.532   6.576 -2.0184 -0.7940  2.4564
 4296SOL     OW14328   0.382   2.215   8.796 -0.1365 -0.4900 -0.2530
 4296SOL    HW114329   0.394   2.128   8.757 -0.9663 -1.0394  0.6868
 4296SOL    HW214330   0.337   2.198   8.879  0.5326  0.7615  0.3911
 4297SOL     OW14331   3.980   5.466   4.196 -0.2136 -0.1359  0.7587
 4297SOL    HW114332   4.039   5.412   4.248  0.5373 -0.1003 -0.0389
 4297SOL    HW214333   3.923   5.403   4.152 -0.8005 -0.1687  1.5326
 4298SOL     OW14334   4.854   6.477   5.528  0.4592  0.1082 -0.0761
 4298SOL    HW114335   4.844   6.533   5.451  0.6355  1.0580  0.5840
 4298SOL    HW214336   4.781   6.415   5.521 -0.2445  0.9399 -0.3720
 4299SOL     OW14337   5.281   1.602   5.916  0.4563  0.3081 -0.0605
 4299SOL    HW114338   5.268   1.518   5.872  1.1482  0.7482 -1.1572
 4299SOL    HW214339   5.307   1.662   5.846  0.8687  1.2167  0.8448
 4300SOL     OW14340   4.355   7.907   1.848 -0.1522  0.0892 -0.8540
 4300SOL    HW114341   4.334   7.821   1.884 -2.7023  0.8064 -0.4479
 4300SOL    HW214342   4.375   7.889   1.756  0.7584 -1.0637 -0.4669
 4301SOL     OW14343   7.219   5.349   3.086 -0.0575 -0.2763 -0.1369
 4301SOL    HW114344   7.164   5.321   3.013 -0.3066 -1.8535  0.6152
 4301SOL    HW214345   7.161   5.403   3.140  0.0534  0.6738 -0.9451
 4302SOL     OW14346   0.503   6.069   3.920  0.1629 -0.9255 -0.8722
 4302SOL    HW114347   0.472   6.158   3.904  0.9044 -0.5524 -0.2910
 4302SOL    HW214348   0.484   6.053   4.012  2.1505 -0.4753 -0.3409
 4303SOL     OW14349   3.622   1.451   6.380 -0.6131  0.1887 -0.1778
 4303SOL    HW114350   3.602   1.360   6.404  0.6308 -0.0151  0.1340
 4303SOL    HW214351   3.598   1.501   6.458 -0.9684  0.1008 -0.2248
 4304SOL     OW14352   1.250   2.520   8.936 -0.2783 -0.3841  0.0914
 4304SOL    HW114353   1.332   2.545   8.893 -0.4364  0.0625  0.0354
 4304SOL    HW214354   1.271   2.520   9.030  0.1247 -1.5853  0.0078
 4305SOL     OW14355   2.947   7.038   3.612  0.6417  0.1778  0.0725
 4305SOL    HW114356   2.977   7.125   3.587  1.7954 -0.0991  0.4040
 4305SOL    HW214357   3.000   6.978   3.559  0.4705 -0.3268  0.4593
 4306SOL     OW14358   5.517   3.851   4.834 -0.3112 -0.6554  0.0819
 4306SOL    HW114359   5.594   3.806   4.870  0.7024  0.3691 -0.7140
 4306SOL    HW214360   5.538   3.944   4.843 -2.1698 -0.3034  1.3138
 4307SOL     OW14361   3.775   2.665   2.211  0.1741  0.3550 -0.2848
 4307SOL    HW114362   3.751   2.739   2.267  1.3132  1.6154 -1.3760
 4307SOL    HW214363   3.868   2.651   2.229  0.2352 -0.0683 -0.9051
 4308SOL     OW14364   2.281   3.608   9.433  0.1596  0.2778  0.0257
 4308SOL    HW114365   2.270   3.697   9.400  0.2370  1.6443  3.2902
 4308SOL    HW214366   2.309   3.619   9.524 -1.7288 -3.0312  1.2154
 4309SOL     OW14367   5.426   4.710   9.313 -0.3494 -0.0067  0.6781
 4309SOL    HW114368   5.366   4.749   9.249  1.0376 -0.8654 -1.2364
 4309SOL    HW214369   5.490   4.779   9.331  1.1501 -0.7553 -1.4468
 4310SOL     OW14370   0.566   4.475   0.224 -0.1013 -0.1109  0.0458
 4310SOL    HW114371   0.587   4.560   0.186 -1.2466 -0.1388 -0.6871
 4310SOL    HW214372   0.527   4.425   0.152 -2.5604 -0.0861  1.2571
 4311SOL     OW14373   3.210   0.664   4.095  0.0882  0.2849 -0.2785
 4311SOL    HW114374   3.146   0.735   4.102  0.0823  0.4366 -1.6827
 4311SOL    HW214375   3.170   0.592   4.142 -0.3163  0.9216  0.3821
 4312SOL     OW14376   1.127   3.998  11.683 -0.3510 -0.2343 -0.0444
 4312SOL    HW114377   1.179   3.926  11.718 -0.2529 -0.6089 -0.9459
 4312SOL    HW214378   1.062   3.956  11.627 -1.1317  0.2900  0.4438
 4313SOL     OW14379   1.352   1.165   9.250  0.3348  0.0582 -0.0872
 4313SOL    HW114380   1.360   1.253   9.215  0.4075  0.3751  0.7201
 4313SOL    HW214381   1.331   1.177   9.343  0.0744 -0.7676 -0.0293
 4314SOL     OW14382   5.866   2.589   3.965 -0.4954  0.3445 -0.0365
 4314SOL    HW114383   5.813   2.547   4.032  0.5681  0.3771  0.8485
 4314SOL    HW214384   5.883   2.520   3.901  0.4877 -0.3380  0.9503
 4315SOL     OW14385   2.118   7.495   6.379 -0.8767 -0.0905 -0.6327
 4315SOL    HW114386   2.073   7.497   6.295 -0.9870  1.3122 -0.5792
 4315SOL    HW214387   2.210   7.508   6.358 -0.5510 -2.1798 -0.6841
 4316SOL     OW14388   7.059   7.808   8.888  0.3891  0.3992  0.2028
 4316SOL    HW114389   7.141   7.808   8.938  0.7035 -0.5504 -0.2989
 4316SOL    HW214390   7.008   7.737   8.927 -0.2015  0.9789  0.5056
 4317SOL     OW14391   2.986   0.555   8.761  0.1637 -0.7009 -0.8655
 4317SOL    HW114392   3.071   0.579   8.723 -0.6457  2.8237 -0.6988
 4317SOL    HW214393   2.922   0.572   8.693 -0.6312 -1.5975 -0.3810
 4318SOL     OW14394   3.281   5.158   1.715 -0.4148  0.1180 -0.1502
 4318SOL    HW114395   3.316   5.227   1.772  0.1031 -0.5696  0.3917
 4318SOL    HW214396   3.272   5.200   1.629 -0.1011  0.8546  0.1671
 4319SOL     OW14397   3.008   2.686   1.618 -0.5761 -0.2535  0.1645
 4319SOL    HW114398   3.003   2.759   1.680 -0.6158 -1.0663  1.1520
 4319SOL    HW214399   2.919   2.650   1.617 -0.3308 -0.8718  0.4187
 4320SOL     OW14400   4.561   6.904   3.449  0.3341  0.6377  0.3259
 4320SOL    HW114401   4.509   6.953   3.385 -0.6518 -1.2211 -0.3805
 4320SOL    HW214402   4.523   6.928   3.534 -1.1414  0.0067 -0.1200
 4321SOL     OW14403   1.004   1.902   3.110 -0.0774 -0.6989  0.0463
 4321SOL    HW114404   1.065   1.830   3.094  0.8525  0.3382 -1.3092
 4321SOL    HW214405   1.046   1.955   3.178 -0.5114 -1.1161  0.6574
 4322SOL     OW14406   6.253   0.948   1.581  0.4976 -0.2442 -0.5037
 4322SOL    HW114407   6.267   0.861   1.618 -1.2040 -0.4111 -0.1616
 4322SOL    HW214408   6.270   0.938   1.487  1.7642 -0.5685 -0.2565
 4323SOL     OW14409   6.972   5.072   3.370 -0.6183 -0.2567  0.1995
 4323SOL    HW114410   7.066   5.076   3.355 -0.2606  1.1561  2.3788
 4323SOL    HW214411   6.936   5.037   3.289  1.8289 -1.4628 -0.4455
 4324SOL     OW14412   3.126   7.604   8.443  0.2913 -0.5343  0.7933
 4324SOL    HW114413   3.092   7.571   8.526 -1.8434  2.8719  1.4255
 4324SOL    HW214414   3.206   7.651   8.467  1.1894 -1.8013  0.4324
 4325SOL     OW14415   2.593   4.775   6.019  0.8349  0.0148  0.0476
 4325SOL    HW114416   2.666   4.713   6.017  0.4217 -0.4646 -0.8144
 4325SOL    HW214417   2.630   4.854   6.059  1.3763 -0.7639  1.1559
 4326SOL     OW14418   3.516   5.911   1.720 -0.0669  0.0580 -0.2066
 4326SOL    HW114419   3.569   5.869   1.788  0.1506 -1.0198 -1.0242
 4326SOL    HW214420   3.573   5.915   1.644 -0.3856  1.0596 -0.3986
 4327SOL     OW14421   4.123   6.304   6.230  0.4596 -0.2388 -0.0910
 4327SOL    HW114422   4.115   6.250   6.309 -0.1647  0.6644  0.4700
 4327SOL    HW214423   4.191   6.368   6.252 -1.7400  1.9245  0.8750
 4328SOL     OW14424   2.451   3.163   5.179 -0.4566 -0.0575 -0.7817
 4328SOL    HW114425   2.386   3.135   5.244 -0.7349 -0.0736 -1.0645
 4328SOL    HW214426   2.476   3.251   5.206 -1.7132  0.5490 -1.5139
 4329SOL     OW14427   0.512   1.373   8.063  0.0816 -0.0699  0.0862
 4329SOL    HW114428   0.426   1.341   8.090  0.3832  0.2632  1.5493
 4329SOL    HW214429   0.516   1.462   8.099  1.0207 -0.0687  0.0017
 4330SOL     OW14430   4.945   2.619   4.988 -0.0329 -0.2220  0.2162
 4330SOL    HW114431   4.952   2.670   5.069 -2.4544  0.5395  0.0086
 4330SOL    HW214432   4.871   2.561   5.003  1.1951 -2.0606 -0.4654
 4331SOL     OW14433   2.892   0.744  12.105  0.4180  1.3331  0.6465
 4331SOL    HW114434   2.832   0.817  12.094 -0.9952  0.1790  0.3733
 4331SOL    HW214435   2.941   0.764  12.185  1.6582  3.6068 -0.5808
 4332SOL     OW14436   2.657   4.578   5.751  0.1315  0.4154 -0.2628
 4332SOL    HW114437   2.699   4.499   5.719  0.7175  1.1363 -1.3513
 4332SOL    HW214438   2.644   4.562   5.845  2.1120 -0.1691 -0.0375
 4333SOL     OW14439   4.851   3.312   2.720  0.3759 -0.7283  0.4566
 4333SOL    HW114440   4.760   3.307   2.690  0.3854 -1.0809  0.4733
 4333SOL    HW214441   4.885   3.223   2.706  0.1311 -1.1522  2.2827
 4334SOL     OW14442   5.421   1.145   8.187 -0.2477  0.4514 -0.1160
 4334SOL    HW114443   5.472   1.064   8.184  1.0834  1.1236  1.9018
 4334SOL    HW214444   5.342   1.125   8.138 -0.0028 -2.1042  0.3564
 4335SOL     OW14445   1.542   7.657   7.700  1.1460  0.2877 -0.3279
 4335SOL    HW114446   1.540   7.732   7.640  0.5602 -0.6226 -1.4975
 4335SOL    HW214447   1.605   7.682   7.767  2.3871  1.0613 -1.7092
 4336SOL     OW14448   1.563   7.773   9.664  0.3320 -0.1965 -0.2465
 4336SOL    HW114449   1.583   7.719   9.741 -0.5324 -0.7021 -0.3622
 4336SOL    HW214450   1.546   7.709   9.595 -1.2108  0.1920 -0.2607
 4337SOL     OW14451   5.152   7.468   7.218  0.1451  0.8909 -0.1648
 4337SOL    HW114452   5.200   7.386   7.232  0.1535  1.0167  0.5566
 4337SOL    HW214453   5.074   7.460   7.273 -0.1936  1.0893 -0.6060
 4338SOL     OW14454   2.867   6.204   2.429 -0.1781 -0.0819 -0.9660
 4338SOL    HW114455   2.852   6.242   2.515  2.1669  0.2111 -0.6261
 4338SOL    HW214456   2.878   6.280   2.371  0.0942 -0.2687 -1.1603
 4339SOL     OW14457   3.391   6.959   9.224 -0.6897  0.3487 -0.0554
 4339SOL    HW114458   3.442   6.909   9.288 -1.4470  0.6765  0.8231
 4339SOL    HW214459   3.456   7.001   9.168 -0.0205 -1.3712 -0.6439
 4340SOL     OW14460   2.052   1.628   1.811  0.4393  0.5586  0.1144
 4340SOL    HW114461   2.104   1.616   1.732 -0.0865 -0.4980 -0.0983
 4340SOL    HW214462   2.101   1.691   1.863  1.7593 -0.1556 -0.2241
 4341SOL     OW14463   5.389   1.916   7.536 -0.1170 -0.3071 -0.0150
 4341SOL    HW114464   5.377   2.010   7.548 -0.9005 -0.3358 -0.5098
 4341SOL    HW214465   5.335   1.877   7.605 -1.5496 -0.4120 -1.1538
 4342SOL     OW14466   0.501   0.564   1.399 -0.8477  0.3288  0.2772
 4342SOL    HW114467   0.569   0.630   1.411  0.2078 -0.9338  1.4728
 4342SOL    HW214468   0.468   0.547   1.487 -1.8977  0.0674 -0.1570
 4343SOL     OW14469   1.901   3.692   0.526  0.4132 -0.4871 -0.1241
 4343SOL    HW114470   1.893   3.752   0.452  0.4170 -1.9429 -1.3425
 4343SOL    HW214471   1.930   3.747   0.599  0.5605  0.9518 -1.2391
 4344SOL     OW14472   4.990   5.702   0.851  0.0930  0.0770  0.2519
 4344SOL    HW114473   4.914   5.651   0.878 -0.3431  0.0733 -0.9637
 4344SOL    HW214474   4.965   5.743   0.769  1.8956 -1.0706 -0.9608
 4345SOL     OW14475   7.119   5.376   8.679 -0.3668 -0.3334 -0.1120
 4345SOL    HW114476   7.060   5.425   8.736 -0.9019 -0.8010 -0.2519
 4345SOL    HW214477   7.100   5.409   8.591  1.2494  1.1992  0.0543
 4346SOL     OW14478   3.029   5.191   5.084 -0.0049  0.1159  0.4641
 4346SOL    HW114479   2.948   5.189   5.033  0.6168 -1.1129 -0.5197
 4346SOL    HW214480   3.037   5.102   5.120  1.8417 -0.3845 -1.0189
 4347SOL     OW14481   7.655   4.993   4.727  0.5896  0.1351  0.6516
 4347SOL    HW114482   7.563   5.016   4.709  0.9261  2.9689  1.9886
 4347SOL    HW214483   7.698   5.002   4.642  0.2667  2.7662  0.6720
 4348SOL     OW14484   1.601   2.609  11.078  0.1192 -0.4867 -0.6474
 4348SOL    HW114485   1.517   2.630  11.037 -1.2833  0.7972  2.5194
 4348SOL    HW214486   1.663   2.670  11.040 -1.1848  0.9339 -0.5903
 4349SOL     OW14487   0.048   3.179   4.840  0.2095  0.2574 -0.5155
 4349SOL    HW114488   0.015   3.089   4.833 -1.1557  0.8030 -1.5507
 4349SOL    HW214489   0.143   3.170   4.843  0.0430 -1.3110  1.1814
 4350SOL     OW14490   3.342   1.850  10.029  0.2560  0.3420  0.3229
 4350SOL    HW114491   3.279   1.918  10.007  0.5701 -0.2369 -2.7787
 4350SOL    HW214492   3.301   1.769  10.001  0.4733 -0.6530  2.6773
 4351SOL     OW14493   7.227   1.574  10.101 -0.2116  0.1292 -0.2677
 4351SOL    HW114494   7.194   1.489  10.130  1.7720 -0.1946  1.2024
 4351SOL    HW214495   7.235   1.566  10.006 -1.7971 -0.6376 -0.3819
 4352SOL     OW14496   1.954   7.872  12.025  0.5389 -0.3583 -0.2161
 4352SOL    HW114497   1.931   7.780  12.019 -2.1528 -0.0444  2.5537
 4352SOL    HW214498   1.915   7.913  11.948 -3.3612 -0.8462  1.2730
 4353SOL     OW14499   7.351   1.809   8.293 -0.1940  0.1333  0.4760
 4353SOL    HW114500   7.291   1.790   8.221  0.6675 -0.2047 -0.1600
 4353SOL    HW214501   7.438   1.807   8.254  0.2130  1.2699  1.2504
 4354SOL     OW14502   2.440   4.430   2.502  0.0789 -0.4006 -0.2205
 4354SOL    HW114503   2.471   4.408   2.414  0.4703 -4.1465  0.6724
 4354SOL    HW214504   2.483   4.366   2.559 -1.5412  0.7317  2.4717
 4355SOL     OW14505   6.536   5.211   1.623  0.3118  0.1715 -0.1608
 4355SOL    HW114506   6.509   5.167   1.542 -2.0445  0.1703  0.5594
 4355SOL    HW214507   6.536   5.304   1.600 -0.6460  0.1940 -0.1223
 4356SOL     OW14508   7.955   3.871  12.012  0.7990 -0.2578 -0.3134
 4356SOL    HW114509   8.000   3.904  11.934  0.6198 -0.7187 -0.6157
 4356SOL    HW214510   7.966   3.776  12.007 -0.9110 -0.4542 -0.8221
 4357SOL     OW14511   2.804   3.437   9.198  0.1504 -0.2869  0.1595
 4357SOL    HW114512   2.740   3.454   9.266 -0.1952 -0.0828 -0.2107
 4357SOL    HW214513   2.771   3.359   9.152 -1.0074  1.0283 -1.3891
 4358SOL     OW14514   0.796   0.234   8.062 -0.2170  0.0038 -0.0509
 4358SOL    HW114515   0.854   0.288   8.115 -0.1256  0.1519 -0.2997
 4358SOL    HW214516   0.783   0.284   7.981 -0.8339  0.0556  0.0766
 4359SOL     OW14517   3.064   1.943   8.738  0.0721  0.4125 -0.5247
 4359SOL    HW114518   3.007   1.869   8.716 -0.8802  1.5543 -2.1217
 4359SOL    HW214519   3.108   1.964   8.656  0.8965  1.1620  0.0902
 4360SOL     OW14520   3.283   1.731   0.200  0.9492  0.1208 -0.6975
 4360SOL    HW114521   3.290   1.816   0.244  0.4939 -0.5116  0.6767
 4360SOL    HW214522   3.351   1.677   0.242  0.6510 -0.4355 -0.9174
 4361SOL     OW14523   3.166   5.748   6.619  0.3739 -0.0475 -0.6917
 4361SOL    HW114524   3.118   5.669   6.594 -1.0970  0.6604 -0.2137
 4361SOL    HW214525   3.119   5.782   6.695  2.4826 -0.0667  0.7302
 4362SOL     OW14526   3.323   5.749   7.437 -0.1037 -0.4232 -0.2055
 4362SOL    HW114527   3.408   5.759   7.480  0.0766 -0.6096 -0.5213
 4362SOL    HW214528   3.312   5.654   7.429 -0.8484 -0.4462  0.8509
 4363SOL     OW14529   5.852   4.767   2.334  0.8320 -0.5014 -0.0927
 4363SOL    HW114530   5.789   4.821   2.287  1.9437  0.2872 -0.7204
 4363SOL    HW214531   5.827   4.677   2.311 -1.4587 -0.3774  1.5105
 4364SOL     OW14532   3.605   0.948   4.831 -0.1992  0.2970 -0.1775
 4364SOL    HW114533   3.627   0.872   4.776  0.1104  0.9228 -0.9288
 4364SOL    HW214534   3.670   0.946   4.901 -1.0083 -0.9001  0.5814
 4365SOL     OW14535   7.877   0.800   6.609  0.1461 -0.1594  0.3171
 4365SOL    HW114536   7.876   0.782   6.515 -0.3717  0.6947  0.1477
 4365SOL    HW214537   7.786   0.821   6.630  0.0521 -1.4090  1.2319
 4366SOL     OW14538   4.270   2.480   2.849  0.1560 -0.3746  0.2284
 4366SOL    HW114539   4.217   2.499   2.926  2.2001 -0.3615  1.7156
 4366SOL    HW214540   4.359   2.504   2.874  0.9176 -0.4262 -2.1357
 4367SOL     OW14541   3.636   4.194   2.848  0.4633  0.8199  0.4087
 4367SOL    HW114542   3.628   4.216   2.755  0.7441 -0.4979  0.0437
 4367SOL    HW214543   3.652   4.099   2.848 -0.7756  0.5858  1.8701
 4368SOL     OW14544   6.453   6.072   5.967 -0.2003 -0.2292 -0.2370
 4368SOL    HW114545   6.390   6.074   5.895 -1.8161  1.0474  1.1204
 4368SOL    HW214546   6.451   5.982   5.997 -0.6147 -0.4432 -0.8697
 4369SOL     OW14547   2.528   5.101  11.401 -0.4264  0.0263  0.7756
 4369SOL    HW114548   2.568   5.138  11.323 -0.8401  0.7418  0.8974
 4369SOL    HW214549   2.437   5.087  11.377 -0.5800  0.3511  1.1582
 4370SOL     OW14550   7.863   6.276   8.820  0.4338 -0.1530 -0.0045
 4370SOL    HW114551   7.914   6.277   8.738  0.1432  2.0223 -0.1985
 4370SOL    HW214552   7.815   6.358   8.819 -1.6784 -1.3081  1.0911
 4371SOL     OW14553   0.652   5.829   3.203  0.4259  0.1038 -0.3346
 4371SOL    HW114554   0.581   5.889   3.181  0.8085  0.9627  0.6552
 4371SOL    HW214555   0.629   5.747   3.160 -1.6081  0.0907  0.6600
 4372SOL     OW14556   6.716   1.027   1.269 -0.0703  0.5430 -0.3189
 4372SOL    HW114557   6.713   0.942   1.227  1.3626  0.8148 -1.0233
 4372SOL    HW214558   6.668   1.015   1.351  1.3888 -1.3934  0.3431
 4373SOL     OW14559   1.234   4.534   2.435 -0.0405  0.5130  0.3532
 4373SOL    HW114560   1.204   4.586   2.509 -1.8285 -2.7965  2.1826
 4373SOL    HW214561   1.295   4.471   2.473  0.5039 -0.0455 -1.3438
 4374SOL     OW14562   2.337   0.643  10.624  0.5682  0.0203 -0.0255
 4374SOL    HW114563   2.379   0.689  10.696 -1.0439  0.1778  0.8594
 4374SOL    HW214564   2.354   0.697  10.547 -2.2659  2.8683  1.1451
 4375SOL     OW14565   1.583   0.053   1.565 -0.2001  0.2881 -0.2703
 4375SOL    HW114566   1.559   0.102   1.644 -1.1683  2.3553 -1.7227
 4375SOL    HW214567   1.568   0.116   1.494  1.8470 -1.0755 -2.0019
 4376SOL     OW14568   1.962   3.005   7.903  0.0003  0.2255 -0.6918
 4376SOL    HW114569   2.050   3.043   7.907 -0.1722  0.6299 -0.7823
 4376SOL    HW214570   1.924   3.022   7.989  0.0919 -0.1559 -0.5705
 4377SOL     OW14571   6.442   4.817   2.953  0.7447 -0.4031 -0.1528
 4377SOL    HW114572   6.468   4.802   3.044  2.3816  1.2181 -0.2799
 4377SOL    HW214573   6.381   4.891   2.958 -0.2989 -1.2375 -0.2717
 4378SOL     OW14574   7.705   1.706  10.145 -0.8306  0.0225 -0.0632
 4378SOL    HW114575   7.619   1.669  10.129 -0.4729 -0.4279 -1.0491
 4378SOL    HW214576   7.716   1.771  10.076 -0.8067  0.8498  0.7035
 4379SOL     OW14577   2.392   3.627   0.570  0.1875 -0.1926  0.1190
 4379SOL    HW114578   2.395   3.723   0.571 -0.4703 -0.0704 -2.5283
 4379SOL    HW214579   2.416   3.602   0.659 -0.1229  2.4303  1.0492
 4380SOL     OW14580   5.629   0.106   8.293  0.1715  0.0654  0.1523
 4380SOL    HW114581   5.645   0.112   8.199 -0.1670  0.8740  0.1340
 4380SOL    HW214582   5.689   0.038   8.324  0.8614  0.3540 -0.5217
 4381SOL     OW14583   3.918   6.556   7.743  0.0947  0.2775 -0.0132
 4381SOL    HW114584   3.831   6.582   7.713  0.8447  0.4239 -2.2282
 4381SOL    HW214585   3.970   6.636   7.734  0.1779  0.6143  2.7266
 4382SOL     OW14586   0.524   3.674   6.509  0.4155  0.0921 -0.4029
 4382SOL    HW114587   0.608   3.663   6.465 -0.3677 -0.3855 -1.8374
 4382SOL    HW214588   0.508   3.590   6.552  0.8960  0.3584  0.3199
 4383SOL     OW14589   3.173   7.523   7.154  0.2392  0.4666 -0.1593
 4383SOL    HW114590   3.125   7.447   7.123  1.1829 -0.6940  1.0694
 4383SOL    HW214591   3.118   7.561   7.222  0.7940 -0.5545  0.8866
 4384SOL     OW14592   6.437   5.275   6.256  0.2182 -0.0086  0.4406
 4384SOL    HW114593   6.521   5.276   6.301  0.4792  0.5403 -0.0432
 4384SOL    HW214594   6.393   5.197   6.290  0.6462  0.0648  1.1893
 4385SOL     OW14595   7.165   3.429   9.312 -0.2767  0.2721 -0.0197
 4385SOL    HW114596   7.138   3.435   9.404  1.3049  0.6514  0.4426
 4385SOL    HW214597   7.181   3.336   9.298  0.3404  0.3140  0.3648
 4386SOL     OW14598   4.682   1.678   3.214  0.1021  0.2976 -0.1855
 4386SOL    HW114599   4.650   1.761   3.180 -0.7056 -0.2379 -0.7857
 4386SOL    HW214600   4.605   1.621   3.216  0.3345 -0.0161  1.6017
 4387SOL     OW14601   7.922   7.674   7.383  0.0785  0.1004  0.0255
 4387SOL    HW114602   7.941   7.635   7.298 -0.7681  0.2742 -0.2555
 4387SOL    HW214603   7.829   7.655   7.397 -0.6206  2.7513 -0.5168
 4388SOL     OW14604   2.520   4.833   6.360  0.8305 -0.2276  0.2584
 4388SOL    HW114605   2.551   4.892   6.291  1.5896  1.5876  2.0554
 4388SOL    HW214606   2.439   4.796   6.325  0.4709  1.6695 -1.0953
 4389SOL     OW14607   7.297   3.472   1.904  0.6578 -0.0021 -0.0358
 4389SOL    HW114608   7.246   3.413   1.848  0.3139  0.2058  0.0514
 4389SOL    HW214609   7.333   3.536   1.843 -2.0585  1.9472  0.2155
 4390SOL     OW14610   7.055   4.168  11.239  0.1849  0.0847  0.5545
 4390SOL    HW114611   6.964   4.146  11.260  0.9001 -1.0520  2.8085
 4390SOL    HW214612   7.049   4.225  11.163 -2.4830  0.9927  1.3374
 4391SOL     OW14613   2.871   5.038   7.152 -0.0090 -0.0949  0.2149
 4391SOL    HW114614   2.803   5.071   7.209 -0.0831  1.3859 -0.6765
 4391SOL    HW214615   2.944   5.099   7.164  1.0059 -1.3841  0.8042
 4392SOL     OW14616   7.394   0.783   4.931 -0.4411  0.8885  0.1173
 4392SOL    HW114617   7.382   0.871   4.965  0.6504  1.5277 -1.0754
 4392SOL    HW214618   7.443   0.795   4.849 -0.7346 -0.7778 -0.3383
 4393SOL     OW14619   0.859   7.079   3.479  0.0414 -0.0383 -0.1251
 4393SOL    HW114620   0.945   7.119   3.463  0.0717  0.5693  1.4188
 4393SOL    HW214621   0.870   7.031   3.561 -0.8714 -0.6912 -0.3639
 4394SOL     OW14622   4.473   2.673   4.999  0.0661  0.3022 -0.3495
 4394SOL    HW114623   4.520   2.750   5.033  1.0956 -0.9232  1.1377
 4394SOL    HW214624   4.384   2.683   5.031  0.7734 -0.3126  2.0415
 4395SOL     OW14625   5.516   5.192  10.117 -0.2046 -0.5279  0.0688
 4395SOL    HW114626   5.507   5.184  10.022  1.2076 -1.7707  0.0136
 4395SOL    HW214627   5.557   5.277  10.130 -1.7179  0.3068 -0.3067
 4396SOL     OW14628   1.920   1.531   2.422 -0.3681 -0.6076 -0.1373
 4396SOL    HW114629   1.895   1.622   2.410 -0.7796 -0.2911  2.4075
 4396SOL    HW214630   2.015   1.530   2.413 -0.2847  0.2375  0.5494
 4397SOL     OW14631   0.156   0.597   1.015 -0.0132  0.0700  0.2607
 4397SOL    HW114632   0.235   0.648   0.997  0.1027  0.4534  1.7416
 4397SOL    HW214633   0.143   0.544   0.936  2.0133 -0.3854  0.1848
 4398SOL     OW14634   0.096   0.684   3.927  0.7870  0.1910 -0.7932
 4398SOL    HW114635   0.191   0.684   3.916  0.9683  1.6151  0.4174
 4398SOL    HW214636   0.081   0.736   4.007 -1.0165  0.1414 -1.0539
 4399SOL     OW14637   5.264   6.766  10.722 -0.3131  0.0107 -0.4368
 4399SOL    HW114638   5.227   6.702  10.661  0.3812 -0.0458 -0.8188
 4399SOL    HW214639   5.322   6.715  10.778  0.3417  0.3199 -0.8265
 4400SOL     OW14640   0.186   5.713  12.387 -0.1379 -0.3726 -0.2544
 4400SOL    HW114641   0.263   5.770  12.398 -0.5648  0.2927 -0.6924
 4400SOL    HW214642   0.216   5.644  12.329  1.5676 -2.8201  3.1510
 4401SOL     OW14643   5.180   0.657  11.462 -0.8191  0.1365  0.0318
 4401SOL    HW114644   5.250   0.642  11.527  0.2806  4.0225  0.0461
 4401SOL    HW214645   5.148   0.745  11.483 -1.5319  0.9209 -3.6927
 4402SOL     OW14646   5.845   5.873   4.893 -0.1366  0.4678  0.1830
 4402SOL    HW114647   5.803   5.895   4.976 -0.3336 -0.2781  0.2938
 4402SOL    HW214648   5.901   5.948   4.873  1.3210 -0.0765  1.9085
 4403SOL     OW14649   5.783   1.843   8.222  0.4496 -0.3311 -0.1054
 4403SOL    HW114650   5.839   1.881   8.155 -1.8248  1.3950 -1.1473
 4403SOL    HW214651   5.716   1.795   8.173 -0.2395 -0.5331  1.0060
 4404SOL     OW14652   3.278   0.174   6.292  0.0405  0.3515 -0.2938
 4404SOL    HW114653   3.296   0.121   6.214  0.9556 -0.5861  0.5193
 4404SOL    HW214654   3.182   0.179   6.296 -0.1387 -2.0973  0.1112
 4405SOL     OW14655   5.956   4.720   9.328 -0.7409  0.0922 -0.6094
 4405SOL    HW114656   6.019   4.722   9.400 -0.0074  1.3669 -1.2616
 4405SOL    HW214657   5.940   4.626   9.314  0.4224 -0.2322  0.0710
 4406SOL     OW14658   7.153   4.250   2.960 -0.7188 -0.2077  0.0707
 4406SOL    HW114659   7.171   4.227   3.051  0.3033  0.5219  0.0659
 4406SOL    HW214660   7.104   4.332   2.966  0.7254  0.6966 -0.0545
 4407SOL     OW14661   5.291   2.752  11.722  0.0097 -0.4254  0.1379
 4407SOL    HW114662   5.209   2.761  11.770  0.0199  1.1095 -0.0649
 4407SOL    HW214663   5.343   2.691  11.773 -1.4531 -1.8850 -0.0241
 4408SOL     OW14664   2.806   7.626   2.312  0.2375  0.3795 -0.3281
 4408SOL    HW114665   2.746   7.695   2.284 -0.6436 -0.1232  0.2923
 4408SOL    HW214666   2.887   7.672   2.333 -1.0102  1.5541  2.2465
 4409SOL     OW14667   3.355   1.487   4.986 -0.4436  0.3337  0.2279
 4409SOL    HW114668   3.450   1.474   4.987 -0.4674  0.1210 -0.0430
 4409SOL    HW214669   3.324   1.444   5.065 -0.1722  1.5812  1.0367
 4410SOL     OW14670   1.760   6.084   0.448  0.1241  0.2922 -0.0891
 4410SOL    HW114671   1.727   6.051   0.532 -1.7187  1.6159 -0.2448
 4410SOL    HW214672   1.713   6.166   0.434 -1.4330 -0.9831 -3.4983
 4411SOL     OW14673   3.037   1.680   2.907 -0.2679 -0.0763 -0.3983
 4411SOL    HW114674   2.988   1.684   2.824 -0.8361  1.7704 -0.0144
 4411SOL    HW214675   3.113   1.737   2.893 -0.4080  0.3101  0.3909
 4412SOL     OW14676   5.933   1.931   8.015  0.1363 -0.1910  0.2733
 4412SOL    HW114677   5.925   1.988   7.938 -2.4166  0.2481  0.7955
 4412SOL    HW214678   5.921   1.843   7.981  1.2486 -0.2107 -0.1179
 4413SOL     OW14679   6.138   4.400   3.111  0.5254  1.1252 -0.5069
 4413SOL    HW114680   6.074   4.456   3.067 -0.1860  1.0243  0.3854
 4413SOL    HW214681   6.100   4.382   3.197  0.7883 -0.6395 -0.7304
 4414SOL     OW14682   6.535   1.668  12.144  0.0985  0.1928  0.3377
 4414SOL    HW114683   6.496   1.649  12.228  1.2703  0.8330  1.0586
 4414SOL    HW214684   6.605   1.731  12.163  0.1107  0.6952 -1.1639
 4415SOL     OW14685   3.466   2.277   6.393  0.4340 -0.3085  0.0157
 4415SOL    HW114686   3.392   2.290   6.451  0.4767  0.1852 -0.0340
 4415SOL    HW214687   3.535   2.241   6.449  0.0575 -1.0637 -0.0051
 4416SOL     OW14688   3.228   7.532   7.746  0.3601 -0.1513 -0.4652
 4416SOL    HW114689   3.287   7.603   7.724 -2.1142  1.3350 -2.9343
 4416SOL    HW214690   3.274   7.453   7.719  1.6600  0.8461 -1.2825
 4417SOL     OW14691   0.752   2.342   1.343 -0.0969 -0.0299 -0.7875
 4417SOL    HW114692   0.725   2.251   1.338  2.1648 -0.6915 -2.0410
 4417SOL    HW214693   0.710   2.384   1.267  0.2342 -0.4193 -1.1882
 4418SOL     OW14694   6.240   2.089   5.685 -0.1124 -0.2719  0.1378
 4418SOL    HW114695   6.326   2.098   5.644 -0.0477  0.2450  0.3831
 4418SOL    HW214696   6.177   2.106   5.614 -0.0002  0.7630  0.2713
 4419SOL     OW14697   3.638   6.605   5.935  0.4770  0.2323  0.3399
 4419SOL    HW114698   3.725   6.585   5.969  0.9391 -0.0230 -0.9299
 4419SOL    HW214699   3.604   6.521   5.904  0.8436  0.7178 -1.5028
 4420SOL     OW14700   3.338   3.938   3.654  0.2896  0.1388 -0.0894
 4420SOL    HW114701   3.369   3.879   3.585  0.2318  0.6455 -0.5552
 4420SOL    HW214702   3.382   4.021   3.635  2.7586 -0.4653  2.2600
 4421SOL     OW14703   4.321   3.746   2.433  0.4434 -0.0210  0.5590
 4421SOL    HW114704   4.410   3.763   2.404  0.2962 -1.3305 -0.7513
 4421SOL    HW214705   4.265   3.777   2.362 -0.0837 -0.4206  0.7874
 4422SOL     OW14706   6.634   2.315   5.339 -0.4062  0.5047  0.0336
 4422SOL    HW114707   6.665   2.336   5.251 -1.1230 -0.7730 -0.5640
 4422SOL    HW214708   6.703   2.258   5.376 -1.1361 -0.8325 -0.5971
 4423SOL     OW14709   0.623   1.566   9.581  0.5569 -0.3763  0.7759
 4423SOL    HW114710   0.579   1.589   9.499  0.9305  0.8588  0.9046
 4423SOL    HW214711   0.684   1.497   9.557  0.3001 -0.3834  0.1154
 4424SOL     OW14712   6.394   0.695  10.014 -0.6393  0.3646 -0.1061
 4424SOL    HW114713   6.378   0.766   9.952 -0.3431  2.0555  1.6552
 4424SOL    HW214714   6.485   0.671   9.999  0.1984  2.3997  1.1231
 4425SOL     OW14715   2.657   0.793   9.461 -0.4325  0.0510  0.4361
 4425SOL    HW114716   2.665   0.858   9.530 -0.3254 -0.0523  0.5221
 4425SOL    HW214717   2.695   0.836   9.384 -1.8261  0.6859  0.0825
 4426SOL     OW14718   4.169   6.280   2.765  0.6764  0.4150 -0.3065
 4426SOL    HW114719   4.150   6.252   2.855 -0.0101 -2.1702 -1.1646
 4426SOL    HW214720   4.263   6.264   2.755  0.7268  0.5694 -0.0920
 4427SOL     OW14721   2.015   6.351   5.122  0.3009 -0.0308 -0.0876
 4427SOL    HW114722   2.003   6.256   5.119  1.1803 -0.1296 -1.2423
 4427SOL    HW214723   2.005   6.379   5.031  1.3921  0.8068  0.0353
 4428SOL     OW14724   7.701   1.983   9.173  0.1228  0.0129  0.0428
 4428SOL    HW114725   7.726   1.893   9.197  0.2600  0.5076  1.9205
 4428SOL    HW214726   7.609   1.989   9.200 -0.0535  0.2724 -0.6113
 4429SOL     OW14727   1.326   7.116   9.111 -0.0985 -0.0940 -0.2916
 4429SOL    HW114728   1.333   7.055   9.184  1.1044 -0.1498 -0.4278
 4429SOL    HW214729   1.343   7.063   9.033 -0.6800  0.0985 -0.5524
 4430SOL     OW14730   1.916   0.339   9.113 -0.2845  0.1228 -0.0991
 4430SOL    HW114731   1.850   0.312   9.050  0.7774  0.8850 -1.5984
 4430SOL    HW214732   1.876   0.323   9.198 -1.6903 -1.1288 -0.9430
 4431SOL     OW14733   7.427   2.167   7.074 -0.2472 -0.0348 -0.0265
 4431SOL    HW114734   7.448   2.132   6.987 -0.3071 -0.9523  0.3141
 4431SOL    HW214735   7.372   2.100   7.114 -0.5931  0.5840  0.5574
 4432SOL     OW14736   1.554   5.997   8.098  0.2457 -0.2114  0.1647
 4432SOL    HW114737   1.640   5.956   8.091  0.0035 -0.5844 -0.9597
 4432SOL    HW214738   1.525   6.005   8.007 -2.1190 -2.7413  0.5401
 4433SOL     OW14739   1.467   1.350   3.239 -0.3202 -0.0344 -0.3726
 4433SOL    HW114740   1.389   1.301   3.263 -1.4471  1.8540 -0.0091
 4433SOL    HW214741   1.480   1.329   3.146 -0.0956 -1.8336  0.0175
 4434SOL     OW14742   4.112   6.904   5.494  0.1020  0.3979  0.5384
 4434SOL    HW114743   4.158   6.956   5.428 -0.1705 -0.1405 -0.0861
 4434SOL    HW214744   4.103   6.963   5.569  2.2786  0.3714  0.8857
 4435SOL     OW14745   1.569   7.050   2.239  0.6037  0.1222  0.2375
 4435SOL    HW114746   1.587   7.140   2.266  0.2175 -0.1910  1.6137
 4435SOL    HW214747   1.473   7.042   2.240  0.5876 -0.0305 -0.8614
 4436SOL     OW14748   1.158   6.937   8.716 -0.2014 -0.0454 -0.0367
 4436SOL    HW114749   1.195   7.022   8.694  1.6846 -0.9688 -0.7010
 4436SOL    HW214750   1.136   6.943   8.809  0.0448  1.1104 -0.0462
 4437SOL     OW14751   4.414   6.869   9.701  0.1102 -0.2147 -0.3413
 4437SOL    HW114752   4.327   6.856   9.740  0.6531 -0.5956  0.7834
 4437SOL    HW214753   4.427   6.963   9.702 -0.5439 -0.1024 -1.1106
 4438SOL     OW14754   5.385   5.941   2.210  0.0521 -0.1278 -0.4833
 4438SOL    HW114755   5.457   5.989   2.251 -0.6651  0.8490 -0.3389
 4438SOL    HW214756   5.331   5.911   2.283  0.9177 -1.8994 -0.5192
 4439SOL     OW14757   0.781   3.212  12.392 -0.5710  0.5915  0.1224
 4439SOL    HW114758   0.699   3.177  12.428 -1.7911  0.5804 -2.4448
 4439SOL    HW214759   0.763   3.305  12.378  0.3890  0.9013  0.8995
 4440SOL     OW14760   3.730   0.200   2.543 -0.7756 -0.5046 -0.2053
 4440SOL    HW114761   3.729   0.281   2.593 -0.3890  0.2421 -1.3675
 4440SOL    HW214762   3.661   0.146   2.583 -1.2392  0.5013  0.3921
 4441SOL     OW14763   1.736   3.634   3.568 -0.4593 -0.4086  0.8265
 4441SOL    HW114764   1.768   3.703   3.626 -1.4836 -0.3852  1.3906
 4441SOL    HW214765   1.809   3.617   3.508  0.8149 -0.8064  2.4247
 4442SOL     OW14766   1.532   4.113   3.243  0.0000  0.5838  0.2888
 4442SOL    HW114767   1.566   4.126   3.331  0.6671 -0.3060  0.1772
 4442SOL    HW214768   1.601   4.145   3.185  0.6008 -1.0313  0.0664
 4443SOL     OW14769   0.525   0.499   3.862 -0.1446 -0.0265 -0.2544
 4443SOL    HW114770   0.611   0.500   3.905 -0.0211  1.5569 -0.4798
 4443SOL    HW214771   0.536   0.553   3.784 -1.2644 -0.0514 -0.4518
 4444SOL     OW14772   2.298   1.885   8.063 -0.1704 -0.4740  0.2351
 4444SOL    HW114773   2.364   1.903   7.996 -0.7605 -2.5300 -1.0114
 4444SOL    HW214774   2.244   1.964   8.066  0.6325  0.1404 -0.8110
 4445SOL     OW14775   4.974   1.367   6.473 -0.0973 -0.5793 -0.0669
 4445SOL    HW114776   4.941   1.419   6.547  2.2327  1.1131 -0.0817
 4445SOL    HW214777   4.936   1.409   6.396 -0.0632 -0.3384  0.0440
 4446SOL     OW14778   0.467   3.412   4.870 -0.1680  0.1394  0.4057
 4446SOL    HW114779   0.377   3.430   4.895  0.0860  0.8669  0.8315
 4446SOL    HW214780   0.472   3.432   4.777 -0.3814  0.3613  0.4430
 4447SOL     OW14781   2.925   2.740   7.135  0.2601 -0.0190 -0.4532
 4447SOL    HW114782   3.017   2.724   7.154  0.0379 -0.1340  0.6426
 4447SOL    HW214783   2.901   2.672   7.072  1.2372  0.8296 -1.7731
 4448SOL     OW14784   2.524   0.281   6.452 -0.1637  0.3237  0.0803
 4448SOL    HW114785   2.518   0.322   6.539 -1.0309  0.0975  0.1348
 4448SOL    HW214786   2.436   0.290   6.415  0.3812  1.0681 -1.0845
 4449SOL     OW14787   4.237   4.146   8.449 -0.1050 -0.1615  0.1984
 4449SOL    HW114788   4.262   4.214   8.512  1.2049  2.6055 -2.9844
 4449SOL    HW214789   4.292   4.071   8.472 -0.0415  0.5302  2.5832
 4450SOL     OW14790   5.279   0.309   7.457  0.0924  0.1670  0.6735
 4450SOL    HW114791   5.219   0.363   7.509 -0.6419  0.3321 -0.3185
 4450SOL    HW214792   5.346   0.371   7.427  1.6026 -0.2631  2.9158
 4451SOL     OW14793   7.427   3.813   9.476 -0.2580  0.2499 -0.3177
 4451SOL    HW114794   7.506   3.784   9.430 -0.5688  1.0575 -1.4139
 4451SOL    HW214795   7.443   3.792   9.568  0.9339 -0.2281 -0.6140
 4452SOL     OW14796   4.982   3.591   0.763  0.2383 -0.4021 -0.4099
 4452SOL    HW114797   4.904   3.644   0.774 -0.0593 -0.3630 -2.3087
 4452SOL    HW214798   5.051   3.639   0.810 -1.0905 -1.1648  2.5140
 4453SOL     OW14799   6.037   0.014   8.227  0.3097  0.4219 -0.2664
 4453SOL    HW114800   6.103   0.029   8.159 -1.4749  1.8417 -1.7884
 4453SOL    HW214801   5.994   0.099   8.238 -0.3996 -0.1284  1.6518
 4454SOL     OW14802   3.876   4.703   5.348  0.1127  0.5191 -0.4531
 4454SOL    HW114803   3.805   4.736   5.403 -0.7461 -0.2940 -1.0565
 4454SOL    HW214804   3.953   4.703   5.406 -0.3984  1.2564  0.2530
 4455SOL     OW14805   6.162   3.788   2.399 -0.4249 -0.0020  0.3439
 4455SOL    HW114806   6.173   3.847   2.474 -0.9825  0.6306 -0.0679
 4455SOL    HW214807   6.199   3.835   2.325  1.6258 -1.2837  0.4793
 4456SOL     OW14808   0.838   0.033   6.624 -0.2549  0.0267  0.5429
 4456SOL    HW114809   0.746   0.050   6.604  0.0129  0.4222 -0.4304
 4456SOL    HW214810   0.870   0.116   6.661  0.1953  0.5797 -1.0069
 4457SOL     OW14811   4.080   2.790   4.564 -0.0384 -0.1470  0.2870
 4457SOL    HW114812   4.094   2.884   4.551 -1.0611 -0.1627 -1.1561
 4457SOL    HW214813   3.995   2.773   4.524  0.1216 -1.6882  0.5578
 4458SOL     OW14814   4.058   3.846   1.026  0.4667  0.1753  0.1342
 4458SOL    HW114815   4.047   3.886   1.112 -0.2732 -0.0487  0.1480
 4458SOL    HW214816   4.012   3.762   1.032 -1.6353  1.1507 -1.1753
 4459SOL     OW14817   1.279   5.462   2.989 -0.0018 -0.0023 -0.5968
 4459SOL    HW114818   1.184   5.461   2.976  0.0094  1.7410 -1.1110
 4459SOL    HW214819   1.292   5.521   3.064  0.6758 -0.3798 -0.4107
 4460SOL     OW14820   1.408   1.528   3.647  0.2371  0.6013 -0.0398
 4460SOL    HW114821   1.475   1.464   3.672  1.8007  2.4196  0.6345
 4460SOL    HW214822   1.349   1.479   3.590  2.4007 -0.9749 -1.0788
 4461SOL     OW14823   2.004   1.296   6.632 -0.7384  0.2401  0.4097
 4461SOL    HW114824   1.945   1.267   6.562 -0.5374  1.1826 -0.1669
 4461SOL    HW214825   2.083   1.323   6.586 -0.7151  1.1468  0.9720
 4462SOL     OW14826   1.970   0.569  11.767 -0.4242 -0.2723 -0.7301
 4462SOL    HW114827   1.929   0.603  11.687 -0.0816 -0.7946 -1.1402
 4462SOL    HW214828   2.032   0.636  11.793  2.1042 -1.5272 -2.9491
 4463SOL     OW14829   5.228   6.759   6.342 -0.6611  0.3983  0.1306
 4463SOL    HW114830   5.290   6.757   6.415 -0.7504 -0.8535  0.1884
 4463SOL    HW214831   5.245   6.843   6.298  0.5887  0.3838  0.5611
 4464SOL     OW14832   4.896   2.753   6.070 -0.4481 -0.0707 -0.3438
 4464SOL    HW114833   4.978   2.786   6.106 -0.7306  1.9890 -1.4171
 4464SOL    HW214834   4.914   2.661   6.050  0.4590 -0.6295  2.5886
 4465SOL     OW14835   5.081   6.632  10.002 -0.2469  0.1776  0.2240
 4465SOL    HW114836   5.037   6.574   9.940 -1.4203  1.6551 -0.3628
 4465SOL    HW214837   5.133   6.573  10.057  1.6664 -1.1532 -2.7338
 4466SOL     OW14838   4.285   1.486   3.156  0.2604  0.2089 -0.0279
 4466SOL    HW114839   4.343   1.517   3.086  0.5954 -1.5148 -0.5759
 4466SOL    HW214840   4.226   1.559   3.173  0.5127  0.8515 -1.7401
 4467SOL     OW14841   3.100   6.304  12.174  0.1401 -0.5356  0.5877
 4467SOL    HW114842   3.179   6.331  12.220 -0.4621  1.7003  0.3991
 4467SOL    HW214843   3.031   6.308  12.240 -0.5082  1.5011 -0.1667
 4468SOL     OW14844   4.682   1.754  11.751 -0.0808 -0.3475  0.4025
 4468SOL    HW114845   4.750   1.697  11.714  0.6463  1.0424 -0.4512
 4468SOL    HW214846   4.727   1.804  11.818 -0.1169  0.9592 -0.5251
 4469SOL     OW14847   0.941   4.850   1.778  0.9362  0.0727  0.0566
 4469SOL    HW114848   0.928   4.765   1.736  0.7218  0.3803 -0.5060
 4469SOL    HW214849   0.929   4.833   1.871 -2.2314  0.0433 -0.2370
 4470SOL     OW14850   7.893   3.776  11.066  0.1040  0.0149  0.3714
 4470SOL    HW114851   7.932   3.820  11.142  0.1179  1.8005 -0.6302
 4470SOL    HW214852   7.953   3.704  11.048  1.3521  0.9323  0.6921
 4471SOL     OW14853   2.885   2.715   9.970  0.0921 -0.2593  0.1459
 4471SOL    HW114854   2.969   2.669   9.965 -0.7495 -1.8432  0.1777
 4471SOL    HW214855   2.824   2.651  10.005 -0.9206  1.2107  1.1643
 4472SOL     OW14856   6.580   3.588   9.284  0.4421  0.1919 -0.2153
 4472SOL    HW114857   6.517   3.642   9.237  1.5295  0.9296 -0.8495
 4472SOL    HW214858   6.665   3.629   9.267  1.1201 -0.8781  0.4837
 4473SOL     OW14859   2.481   6.704   5.868 -0.4684 -0.5518 -0.2157
 4473SOL    HW114860   2.571   6.677   5.852 -1.0247 -1.1486 -2.9208
 4473SOL    HW214861   2.433   6.622   5.880 -0.6992 -0.2431  1.0816
 4474SOL     OW14862   4.771   6.151   0.410  0.4088  0.0931 -0.3043
 4474SOL    HW114863   4.689   6.127   0.453  0.9201  2.2967  2.1555
 4474SOL    HW214864   4.836   6.090   0.446  0.3820  0.3297  0.1543
 4475SOL     OW14865   6.871   4.203   1.987 -0.3649 -0.0649  0.0808
 4475SOL    HW114866   6.962   4.181   2.008 -0.2527 -0.7149 -1.0188
 4475SOL    HW214867   6.828   4.118   1.975 -0.9209  0.2495 -0.1876
 4476SOL     OW14868   6.720   5.970   9.838 -0.5812 -0.2277 -0.4323
 4476SOL    HW114869   6.635   5.982   9.797 -0.1887 -0.6556 -1.3814
 4476SOL    HW214870   6.775   6.038   9.800 -0.2525 -0.5375 -0.5189
 4477SOL     OW14871   3.093   5.050   0.897 -0.4645 -0.2949  0.3319
 4477SOL    HW114872   3.086   5.105   0.819 -0.9664 -1.7346 -0.6903
 4477SOL    HW214873   3.003   5.022   0.916 -0.3528  0.0412  1.4476
 4478SOL     OW14874   1.362   3.302   8.503  0.1159 -0.3465  0.7692
 4478SOL    HW114875   1.299   3.355   8.551  1.1873  2.6442 -0.8867
 4478SOL    HW214876   1.440   3.302   8.559  1.1778  2.6796 -0.4854
 4479SOL     OW14877   5.161   0.005   9.411 -0.0122  0.2500  0.1281
 4479SOL    HW114878   5.134  -0.013   9.321  0.3778 -1.8806  0.4009
 4479SOL    HW214879   5.079   0.020   9.458 -0.3154 -0.1812 -0.2602
 4480SOL     OW14880   1.307   1.145  11.694 -0.2622  0.4361 -0.3148
 4480SOL    HW114881   1.394   1.159  11.656 -0.0927  1.9735  0.5424
 4480SOL    HW214882   1.326   1.122  11.786 -0.7550  2.1132  0.2393
 4481SOL     OW14883   4.696   7.959   1.922 -0.1797 -0.3743 -0.4258
 4481SOL    HW114884   4.677   7.865   1.928  1.1567 -0.7496 -1.5902
 4481SOL    HW214885   4.701   7.988   2.013 -1.5524 -1.2057 -0.0483
 4482SOL     OW14886   5.587   5.702  11.663 -0.6987  0.0311  0.8465
 4482SOL    HW114887   5.649   5.765  11.698 -0.0273 -0.1837  0.0717
 4482SOL    HW214888   5.558   5.651  11.739 -0.9090  0.9740  1.4017
 4483SOL     OW14889   6.638   7.443  10.382 -0.0019  0.2037 -0.2037
 4483SOL    HW114890   6.570   7.453  10.315  0.6815 -0.6418 -1.0514
 4483SOL    HW214891   6.707   7.503  10.355  0.5096 -0.5418 -0.5788
 4484SOL     OW14892   7.608   3.280   7.779  0.1951  0.1325  0.1162
 4484SOL    HW114893   7.553   3.355   7.758  0.9102  1.1673  1.7381
 4484SOL    HW214894   7.553   3.203   7.761 -1.4382  1.0941  0.8114
 4485SOL     OW14895   4.969   1.327   7.023  0.0319 -0.1188 -0.2623
 4485SOL    HW114896   4.942   1.272   6.950 -0.5954 -0.3335  0.1277
 4485SOL    HW214897   5.062   1.343   7.008 -0.1169 -0.0731 -1.1601
 4486SOL     OW14898   1.341   0.620   9.781  0.4994  0.1153 -0.0379
 4486SOL    HW114899   1.421   0.665   9.807  0.0782 -0.3037  2.1767
 4486SOL    HW214900   1.350   0.607   9.686  2.7741  0.5317  0.0752
 4487SOL     OW14901   2.477   3.310   1.235  0.4864  0.3783 -0.0999
 4487SOL    HW114902   2.422   3.253   1.182 -0.3976  0.9217  0.2301
 4487SOL    HW214903   2.565   3.274   1.224 -0.0020 -0.8276 -0.1953
 4488SOL     OW14904   5.681   3.019   6.115 -0.0782  0.1726  0.3043
 4488SOL    HW114905   5.661   3.039   6.024  2.9091  0.0676 -0.4729
 4488SOL    HW214906   5.739   3.090   6.143  1.9133 -1.5935  0.9293
 4489SOL     OW14907   4.019   4.884   4.692 -0.0227 -0.5415  0.3309
 4489SOL    HW114908   4.009   4.946   4.765  1.5134 -0.4498  0.4968
 4489SOL    HW214909   4.004   4.798   4.732 -0.0501 -0.4323  0.5626
 4490SOL     OW14910   1.570   6.297   5.891  0.0501  0.6933  0.1997
 4490SOL    HW114911   1.627   6.288   5.815  2.1622 -0.2662  1.7978
 4490SOL    HW214912   1.516   6.218   5.890 -1.2230  1.5492 -1.2626
 4491SOL     OW14913   6.465   1.945   1.734 -0.1306 -0.3644 -0.6834
 4491SOL    HW114914   6.407   1.879   1.697  0.1252 -2.2697  2.0158
 4491SOL    HW214915   6.407   2.003   1.783 -0.2991  1.2671 -2.6713
 4492SOL     OW14916   6.790   6.010   2.832  0.0256  0.3851  0.1140
 4492SOL    HW114917   6.758   5.937   2.886  1.3079  0.4723  1.0284
 4492SOL    HW214918   6.855   6.054   2.887 -0.0569  1.6742 -0.7746
 4493SOL     OW14919   7.164   0.596  10.611  0.3180 -0.3204 -0.1645
 4493SOL    HW114920   7.216   0.529  10.566 -1.6102 -0.1866 -2.8371
 4493SOL    HW214921   7.215   0.617  10.689  1.4893 -4.1478  0.3034
 4494SOL     OW14922   5.881   7.588   2.973 -0.5035 -0.0879 -0.5191
 4494SOL    HW114923   5.973   7.594   2.949 -0.6982  1.1409 -1.0424
 4494SOL    HW214924   5.850   7.679   2.973 -1.4849 -0.3914  0.5877
 4495SOL     OW14925   3.921   2.884   1.623 -0.3863  0.5052  0.5506
 4495SOL    HW114926   3.966   2.839   1.552  0.1832  0.9378  0.6398
 4495SOL    HW214927   3.889   2.813   1.679 -0.2068  0.1889  0.2568
 4496SOL     OW14928   4.332   0.395  11.240 -0.1989 -0.0730  0.7171
 4496SOL    HW114929   4.309   0.311  11.201 -0.4114 -0.0414  0.7776
 4496SOL    HW214930   4.249   0.433  11.268 -0.3878  1.0934 -1.1873
 4497SOL     OW14931   0.245   0.937   1.517  0.6429  0.4047  0.4723
 4497SOL    HW114932   0.220   0.902   1.431 -0.4907  0.7320  0.6588
 4497SOL    HW214933   0.204   1.023   1.521  1.9307  1.0341  0.7557
 4498SOL     OW14934   0.522   4.739   9.822  0.4625  0.2245  0.1297
 4498SOL    HW114935   0.504   4.828   9.792 -0.0129  0.5629  1.3544
 4498SOL    HW214936   0.478   4.733   9.907  0.6795 -1.1076  0.1701
 4499SOL     OW14937   5.455   7.918   0.187  0.0945  0.3546 -0.3640
 4499SOL    HW114938   5.378   7.868   0.212  0.7493 -1.0495 -1.0849
 4499SOL    HW214939   5.423   7.981   0.123 -0.4939 -0.0675 -0.4919
 4500SOL     OW14940   4.931   4.724  11.724  0.3181 -0.3344 -0.2976
 4500SOL    HW114941   4.836   4.731  11.736  0.2876  0.5330 -0.9660
 4500SOL    HW214942   4.950   4.631  11.734 -0.7488 -0.6654 -1.1974
 4501SOL     OW14943   1.402   2.018  10.091  0.5223  0.4715  0.6908
 4501SOL    HW114944   1.441   1.932  10.072 -0.1202  0.2663  0.2546
 4501SOL    HW214945   1.474   2.070  10.126  0.8044 -0.4079  1.4462
 4502SOL     OW14946   2.737   7.901   1.539 -0.0141 -0.0535 -0.0584
 4502SOL    HW114947   2.791   7.965   1.584 -0.1324  0.4731 -0.6471
 4502SOL    HW214948   2.740   7.823   1.594  0.7293  0.2196  0.2934
 4503SOL     OW14949   0.860   3.044   1.579 -0.0965  0.0812  0.0140
 4503SOL    HW114950   0.908   3.124   1.558  0.4184 -0.0286  0.7414
 4503SOL    HW214951   0.870   2.990   1.501  3.5434 -1.1622  1.1298
 4504SOL     OW14952   1.346   2.882   5.104 -0.1712  0.0576  0.1007
 4504SOL    HW114953   1.327   2.857   5.194  0.8841  1.1276  0.6510
 4504SOL    HW214954   1.427   2.836   5.082  0.9025  1.6304  0.5716
 4505SOL     OW14955   2.887   6.926   9.893 -0.5283  0.4481 -0.7730
 4505SOL    HW114956   2.924   6.956   9.977  0.9805  1.6067 -1.8026
 4505SOL    HW214957   2.890   7.003   9.837 -0.8454 -0.4994 -2.1318
 4506SOL     OW14958   5.532   1.434   9.733  0.5012 -0.1543  0.1826
 4506SOL    HW114959   5.593   1.361   9.737  0.7173 -0.0042 -0.2794
 4506SOL    HW214960   5.464   1.412   9.797  1.4810  0.1000  1.3460
 4507SOL     OW14961   0.210   5.881  11.791  0.5491  0.1421  0.1104
 4507SOL    HW114962   0.218   5.957  11.733 -0.2595  0.3578  0.2663
 4507SOL    HW214963   0.195   5.919  11.877  1.1817 -0.1896  0.3701
 4508SOL     OW14964   5.085   2.903   7.231  0.1315 -0.3902  0.0329
 4508SOL    HW114965   5.114   2.979   7.181  0.0235 -1.4452 -1.7104
 4508SOL    HW214966   4.996   2.926   7.260  0.3394  0.3777  0.0996
 4509SOL     OW14967   3.629   3.941   1.404 -0.6008  0.0620 -0.4604
 4509SOL    HW114968   3.550   3.894   1.378 -0.6490 -0.4279  0.5234
 4509SOL    HW214969   3.653   3.992   1.326 -1.3115 -0.5462 -1.0992
 4510SOL     OW14970   1.658   0.320  10.088  0.2262  0.8506 -0.3584
 4510SOL    HW114971   1.602   0.395  10.106 -0.4013  0.3806 -0.3001
 4510SOL    HW214972   1.597   0.250  10.065  0.8247  0.4770 -0.8349
 4511SOL     OW14973   4.978   7.533  12.011  0.2981  0.4245 -0.6132
 4511SOL    HW114974   4.969   7.519  11.917  0.6236 -1.0511 -0.4466
 4511SOL    HW214975   4.933   7.616  12.028 -1.7857 -0.4138 -1.7309
 4512SOL     OW14976   5.940   6.735   9.838 -0.1112 -0.3558 -0.3100
 4512SOL    HW114977   6.027   6.734   9.878 -0.3643  0.1063  0.2638
 4512SOL    HW214978   5.957   6.725   9.744  0.5184 -0.9393 -0.1427
 4513SOL     OW14979   2.276   2.863   8.644  0.5913 -0.3138 -0.5172
 4513SOL    HW114980   2.208   2.809   8.605  0.3159  0.2703 -0.8665
 4513SOL    HW214981   2.238   2.895   8.726 -0.1359  1.1909 -1.4042
 4514SOL     OW14982   4.731   2.119  11.333  0.1393  0.1235 -0.5140
 4514SOL    HW114983   4.783   2.044  11.363  1.0892  0.1141 -2.0429
 4514SOL    HW214984   4.785   2.158  11.263  0.6017  3.4229  1.4997
 4515SOL     OW14985   7.655   4.137   8.919  0.1247  0.3316 -0.1759
 4515SOL    HW114986   7.565   4.110   8.900  0.0775  0.3524  0.0192
 4515SOL    HW214987   7.646   4.208   8.982  0.3212 -0.5288  0.8519
 4516SOL     OW14988   3.297   4.736   8.641 -0.2175 -0.1038  0.3106
 4516SOL    HW114989   3.259   4.650   8.625 -0.4525  0.3069 -1.6086
 4516SOL    HW214990   3.345   4.756   8.561 -0.5469  1.7411  0.5228
 4517SOL     OW14991   3.565   0.756   5.272 -0.8850 -0.0065  0.1015
 4517SOL    HW114992   3.570   0.711   5.357  0.8297  0.3993  0.2451
 4517SOL    HW214993   3.574   0.849   5.293  0.1955  0.0516 -0.5701
 4518SOL     OW14994   5.713   4.107  10.511 -0.1280 -0.0671 -0.0342
 4518SOL    HW114995   5.741   4.074  10.596 -2.1593 -3.0331 -0.3853
 4518SOL    HW214996   5.618   4.114  10.517 -0.1962  1.0751 -1.6440
 4519SOL     OW14997   6.625   1.438   8.786 -0.2120 -0.2019  0.4749
 4519SOL    HW114998   6.677   1.379   8.731  1.1585  0.5196  0.9550
 4519SOL    HW214999   6.682   1.459   8.860 -0.6343  1.6958  0.3332
 4520SOL     OW15000   0.678   7.347  11.627  0.2505 -0.5594 -0.3242
 4520SOL    HW115001   0.625   7.290  11.683  1.7602 -1.2344  0.4738
 4520SOL    HW215002   0.759   7.360  11.676  0.0804  2.0819 -0.6105
 4521SOL     OW15003   1.845   7.781   1.165  0.2097  0.0158 -0.4936
 4521SOL    HW115004   1.770   7.737   1.124 -1.5109 -0.0049  2.4431
 4521SOL    HW215005   1.826   7.874   1.156  0.4702  0.0451 -0.7802
 4522SOL     OW15006   4.735   1.907   1.252  0.2757  0.2848  0.1271
 4522SOL    HW115007   4.673   1.973   1.219  0.4375  1.1265  1.4056
 4522SOL    HW215008   4.680   1.835   1.281  0.0702 -0.0147 -0.9539
 4523SOL     OW15009   2.516   0.842  11.679  0.0034 -0.0355 -0.4804
 4523SOL    HW115010   2.456   0.915  11.693  0.5476  0.0147  1.9502
 4523SOL    HW215011   2.602   0.883  11.670  0.1531 -0.3081 -0.3077
 4524SOL     OW15012   2.285   1.990   1.259 -0.7409  0.3400  0.1449
 4524SOL    HW115013   2.190   1.989   1.262 -0.7612 -0.3148 -0.3281
 4524SOL    HW215014   2.307   1.952   1.174 -0.0622  1.0114  0.0052
 4525SOL     OW15015   2.902   5.062   5.785 -0.4443 -0.4863 -0.1121
 4525SOL    HW115016   2.997   5.074   5.789 -0.5374 -0.0018  0.9354
 4525SOL    HW215017   2.872   5.124   5.719 -0.2651  1.0072  1.1410
 4526SOL     OW15018   1.530   7.274   1.454 -0.2727  0.6077 -0.1074
 4526SOL    HW115019   1.562   7.210   1.391  1.2737  0.2832  0.9521
 4526SOL    HW215020   1.559   7.359   1.420  0.2138  0.4688 -0.0427
 4527SOL     OW15021   7.012   6.639   0.569  0.2057  0.3250  0.5309
 4527SOL    HW115022   6.983   6.715   0.619  1.9974  1.3065  0.1559
 4527SOL    HW215023   7.036   6.674   0.483 -1.8653 -1.1699 -0.7382
 4528SOL     OW15024   2.685   6.418   2.940  0.3708  0.1157  0.2935
 4528SOL    HW115025   2.630   6.341   2.954 -1.3291  1.3379  0.6615
 4528SOL    HW215026   2.775   6.385   2.948 -0.2866 -1.9293 -0.2462
 4529SOL     OW15027   3.416   3.891  12.462  0.4509 -0.5095 -0.2350
 4529SOL    HW115028   3.352   3.820  12.467  0.1999 -0.3105 -0.5268
 4529SOL    HW215029   3.478   3.863  12.394 -0.0569 -0.1379 -0.8715
 4530SOL     OW15030   6.227   0.054   6.781 -0.2083  0.2188 -0.0077
 4530SOL    HW115031   6.209   0.065   6.874 -1.0169  1.5192 -0.2860
 4530SOL    HW215032   6.256   0.141   6.752  0.9991 -0.4050 -0.7792
 4531SOL     OW15033   7.714   7.731  10.314  0.3423  0.3671 -0.2108
 4531SOL    HW115034   7.660   7.785  10.372 -0.9024 -1.7129  0.6812
 4531SOL    HW215035   7.677   7.745  10.227 -0.7882  0.0448  0.1936
 4532SOL     OW15036   4.427   2.238   6.115 -0.0172  0.1388  0.2480
 4532SOL    HW115037   4.338   2.267   6.093 -0.5651  0.0106  2.1498
 4532SOL    HW215038   4.473   2.318   6.139  0.6219  0.2955 -1.3679
 4533SOL     OW15039   2.271   0.619   6.963 -0.1471  0.0900  0.1370
 4533SOL    HW115040   2.205   0.582   6.904 -0.6972 -0.1986  0.9145
 4533SOL    HW215041   2.297   0.701   6.922 -1.4751  0.5279  0.1295
 4534SOL     OW15042   2.831   6.689   9.819 -0.3968 -0.6713 -0.1863
 4534SOL    HW115043   2.775   6.764   9.839 -0.4051 -0.5530 -0.6532
 4534SOL    HW215044   2.919   6.726   9.809  0.1105 -1.0505  2.1631
 4535SOL     OW15045   2.988   7.564   9.736  0.0339  0.1634  0.2631
 4535SOL    HW115046   2.949   7.647   9.766 -0.2363 -0.2429  1.0683
 4535SOL    HW215047   2.938   7.541   9.658  0.8186  1.2959 -0.6080
 4536SOL     OW15048   2.908   0.269   1.435 -0.2808 -0.6128  0.1072
 4536SOL    HW115049   2.884   0.306   1.520 -1.7585 -1.3042  0.0080
 4536SOL    HW215050   2.990   0.222   1.451  1.5569  2.3798  0.3019
 4537SOL     OW15051   5.717   3.219   2.864 -0.5898  0.0925 -0.9002
 4537SOL    HW115052   5.637   3.204   2.914 -1.0991 -2.2311 -2.2544
 4537SOL    HW215053   5.778   3.153   2.896 -0.0427  0.3025 -1.4864
 4538SOL     OW15054   2.537   0.264  10.204 -0.4428 -0.0325 -0.1561
 4538SOL    HW115055   2.597   0.220  10.263 -1.5162  2.4569  3.1015
 4538SOL    HW215056   2.482   0.194  10.168 -0.2146 -1.6566  2.4336
 4539SOL     OW15057   6.695   1.061   6.005  0.0708 -0.7321  0.0066
 4539SOL    HW115058   6.616   1.074   5.952  0.4063 -0.3375 -0.4157
 4539SOL    HW215059   6.708   0.966   6.007 -0.5821 -0.8150  0.3365
 4540SOL     OW15060   2.439   5.745   8.768  0.1847  0.3000 -0.8734
 4540SOL    HW115061   2.478   5.659   8.751 -0.5041  0.1357 -1.7084
 4540SOL    HW215062   2.347   5.727   8.785 -0.1442  0.9346 -1.8835
 4541SOL     OW15063   7.690   4.258   3.329 -0.0065  0.2409  0.5624
 4541SOL    HW115064   7.655   4.193   3.268  0.0773  0.3597  0.3840
 4541SOL    HW215065   7.712   4.209   3.408  1.7566 -0.2967 -0.2034
 4542SOL     OW15066   1.823   2.916   2.340  0.6584  0.7354 -0.6371
 4542SOL    HW115067   1.778   2.837   2.370 -0.5405  1.6345  0.0039
 4542SOL    HW215068   1.878   2.886   2.268 -0.1131 -0.6042 -0.7045
 4543SOL     OW15069   2.461   4.726  12.074 -0.3910  0.4241  0.4607
 4543SOL    HW115070   2.399   4.659  12.101  0.2955 -0.7783 -0.8325
 4543SOL    HW215071   2.546   4.696  12.107 -0.3712  1.9044  1.9576
 4544SOL     OW15072   2.945   6.093   9.925  0.7974 -0.4008  0.2400
 4544SOL    HW115073   3.010   6.023   9.919 -1.0977 -2.2247 -0.3570
 4544SOL    HW215074   2.865   6.054   9.891 -0.9383  1.3304  2.0733
 4545SOL     OW15075   6.334   2.112  11.844  0.0394  0.0823 -0.5275
 4545SOL    HW115076   6.380   2.040  11.801 -0.5687  0.4191 -1.7892
 4545SOL    HW215077   6.372   2.116  11.932  0.2589 -1.6056 -0.5171
 4546SOL     OW15078   3.778   7.890   6.614  0.1646 -0.0072 -0.4043
 4546SOL    HW115079   3.797   7.841   6.534 -1.7997 -1.5028 -0.0481
 4546SOL    HW215080   3.793   7.981   6.591  1.6050 -0.5667 -1.8372
 4547SOL     OW15081   3.544   4.815   4.535  0.1148  0.2115 -0.1003
 4547SOL    HW115082   3.563   4.748   4.469  3.2802 -1.2181  1.9778
 4547SOL    HW215083   3.628   4.860   4.548 -0.1984  0.1060  3.1651
 4548SOL     OW15084   0.577   0.374   2.695 -0.7887 -0.4604 -0.4001
 4548SOL    HW115085   0.598   0.433   2.622 -0.8627  1.0923  0.7809
 4548SOL    HW215086   0.481   0.373   2.698 -0.7987 -1.1739 -0.8179
 4549SOL     OW15087   1.477   1.690   1.670  0.3078  0.4984  0.5376
 4549SOL    HW115088   1.465   1.758   1.605  0.2384  0.7760  0.8386
 4549SOL    HW215089   1.555   1.716   1.718  1.8315 -0.9700 -1.0020
 4550SOL     OW15090   3.815   7.660   0.549 -0.3401  0.2502  0.0450
 4550SOL    HW115091   3.774   7.596   0.607 -0.8754  0.4742 -0.0821
 4550SOL    HW215092   3.799   7.745   0.592 -1.0042  0.4489 -0.5708
 4551SOL     OW15093   3.072   6.541  10.569  0.5781 -0.0805 -0.1337
 4551SOL    HW115094   2.985   6.548  10.607  0.3779 -0.5129 -0.4997
 4551SOL    HW215095   3.132   6.562  10.641  0.1397  3.0888 -0.5303
 4552SOL     OW15096   4.808   2.390  11.455 -0.2780 -0.1134  0.1209
 4552SOL    HW115097   4.865   2.314  11.439  1.3130  1.0405 -0.0209
 4552SOL    HW215098   4.787   2.386  11.548 -1.2851 -1.4078 -0.1394
 4553SOL     OW15099   3.817   4.387  10.986  0.1971 -0.1949 -0.1139
 4553SOL    HW115100   3.864   4.307  10.963 -1.1749 -1.4078  1.1423
 4553SOL    HW215101   3.787   4.374  11.076 -0.9328  1.3039 -0.2158
 4554SOL     OW15102   6.565   2.362   5.887 -0.0059 -0.1850  0.1061
 4554SOL    HW115103   6.474   2.332   5.882 -0.2769  0.1527  2.0750
 4554SOL    HW215104   6.617   2.284   5.874 -0.4938 -0.2128 -2.2034
 4555SOL     OW15105   4.042   4.130   3.224 -0.1223 -0.0537  0.0008
 4555SOL    HW115106   4.057   4.111   3.317  0.4907  2.7062  0.5671
 4555SOL    HW215107   4.072   4.221   3.214  0.1762 -0.4070 -2.9996
 4556SOL     OW15108   3.979   2.450   8.945 -0.5489  0.2677  0.2154
 4556SOL    HW115109   4.035   2.527   8.955 -0.9586  0.7786 -1.1327
 4556SOL    HW215110   3.956   2.450   8.852 -1.2239 -1.0234  0.3682
 4557SOL     OW15111   2.405   2.264   5.511 -0.7071 -0.3644 -0.1281
 4557SOL    HW115112   2.454   2.239   5.589 -0.7579 -0.8964 -0.2628
 4557SOL    HW215113   2.469   2.257   5.440 -1.3805 -2.8755 -0.6005
 4558SOL     OW15114   3.136   7.556   9.011 -0.0149  0.1855 -0.2472
 4558SOL    HW115115   3.164   7.622   8.947 -0.1324  2.2550  1.6734
 4558SOL    HW215116   3.056   7.519   8.975  0.7977  0.1001 -2.0274
 4559SOL     OW15117   2.444   5.726   9.383 -0.4100 -0.2280  0.5244
 4559SOL    HW115118   2.476   5.780   9.311  1.0665 -1.0825  0.4969
 4559SOL    HW215119   2.418   5.789   9.450 -3.9697  0.7101 -1.5021
 4560SOL     OW15120   0.865   6.585   5.665  0.1122  0.6813 -0.1649
 4560SOL    HW115121   0.938   6.525   5.678 -0.7948 -0.9801 -2.1829
 4560SOL    HW215122   0.853   6.627   5.750  1.1281 -1.6162  1.2086
 4561SOL     OW15123   3.969   7.618   9.080 -0.6517  0.2698 -0.2483
 4561SOL    HW115124   4.003   7.692   9.131 -0.0869 -0.0237 -0.1994
 4561SOL    HW215125   4.022   7.543   9.107 -0.9506 -0.0744 -0.6028
 4562SOL     OW15126   1.791   0.998  11.710  0.1486 -0.4446  0.0274
 4562SOL    HW115127   1.826   0.938  11.775 -0.2604 -0.5547  0.1500
 4562SOL    HW215128   1.700   1.012  11.736  0.0647 -0.2568 -0.3495
 4563SOL     OW15129   3.879   0.433   0.339 -0.3352 -0.3149  0.2251
 4563SOL    HW115130   3.942   0.498   0.369  0.4925 -1.2307  0.5406
 4563SOL    HW215131   3.933   0.363   0.302 -1.1835 -0.9725  0.2045
 4564SOL     OW15132   7.604   2.182   5.647  0.4312  0.4091 -0.2201
 4564SOL    HW115133   7.688   2.167   5.691  0.3382 -0.1021 -0.2070
 4564SOL    HW215134   7.577   2.270   5.674 -0.9645 -0.8657  3.0274
 4565SOL     OW15135   3.000   2.730  11.719  0.2939  0.0125 -0.0500
 4565SOL    HW115136   3.092   2.707  11.730 -0.1226 -1.5295  0.6089
 4565SOL    HW215137   2.988   2.810  11.770  1.1952  0.0409  0.1226
 4566SOL     OW15138   7.703   2.403   3.131  0.2336  0.3747 -0.1908
 4566SOL    HW115139   7.777   2.434   3.183  0.3623  1.7448 -1.1312
 4566SOL    HW215140   7.742   2.361   3.055  0.0424 -1.3852  0.6312
 4567SOL     OW15141   5.755   1.156  10.417 -0.0571 -0.6455  0.1209
 4567SOL    HW115142   5.773   1.186  10.506 -0.6580 -0.2146  0.1073
 4567SOL    HW215143   5.810   1.212  10.362  0.5402 -1.1122  0.2316
 4568SOL     OW15144   1.091   5.454   8.499  0.3845  0.1548 -0.3564
 4568SOL    HW115145   1.089   5.547   8.521 -1.4087  0.3075 -1.0053
 4568SOL    HW215146   1.184   5.432   8.495  0.8297  1.8234  0.1694
 4569SOL     OW15147   6.930   6.116  11.172 -0.2285  0.1818 -0.2914
 4569SOL    HW115148   6.894   6.202  11.193  2.3351  1.2496  0.1732
 4569SOL    HW215149   7.024   6.125  11.189  0.6476 -1.7367 -3.2843
 4570SOL     OW15150   1.399   4.430   9.875 -0.3140 -0.4611  0.0189
 4570SOL    HW115151   1.488   4.426   9.910 -0.1664  1.1199 -0.0734
 4570SOL    HW215152   1.387   4.522   9.851 -2.1623 -0.5376  0.4943
 4571SOL     OW15153   5.961   6.633   3.138  0.0991 -0.1886  0.1886
 4571SOL    HW115154   5.906   6.631   3.059 -0.2889 -1.6691  0.4709
 4571SOL    HW215155   6.050   6.626   3.104  0.1984  2.4341 -0.2849
 4572SOL     OW15156   0.096   4.697   4.255 -0.1181 -0.2297  0.0025
 4572SOL    HW115157   0.166   4.725   4.196  0.3071 -0.5096  0.3639
 4572SOL    HW215158   0.104   4.602   4.258 -0.5085 -0.2596  0.0546
 4573SOL     OW15159   0.531   3.498   4.295 -0.6596  0.2945 -0.3448
 4573SOL    HW115160   0.618   3.472   4.266 -0.5887  0.1766 -0.0324
 4573SOL    HW215161   0.473   3.431   4.261 -0.3703 -0.8173  1.2390
 4574SOL     OW15162   4.863   0.152  10.938  0.1456 -0.1619 -0.3720
 4574SOL    HW115163   4.863   0.069  10.985  2.0463  0.6279  1.1186
 4574SOL    HW215164   4.779   0.193  10.960 -0.2826 -1.1333 -0.1616
 4575SOL     OW15165   3.808   6.522  11.364  0.7400 -0.0814 -0.5234
 4575SOL    HW115166   3.824   6.474  11.283 -0.0672 -0.1804 -0.6269
 4575SOL    HW215167   3.886   6.576  11.376  1.9761 -1.8812 -0.0661
 4576SOL     OW15168   1.426   5.254   6.544 -0.6011 -0.2921 -0.1781
 4576SOL    HW115169   1.401   5.320   6.609  1.7784  1.5761 -1.0326
 4576SOL    HW215170   1.359   5.260   6.477 -0.4770  1.2374 -0.1992
 4577SOL     OW15171   3.184   6.488  11.752 -0.0712 -0.3834  0.1852
 4577SOL    HW115172   3.127   6.542  11.807 -0.8779 -1.0839  0.0657
 4577SOL    HW215173   3.273   6.509  11.781 -0.4528 -0.3933  1.4429
 4578SOL     OW15174   2.341   0.783   6.269  0.1345  0.3355 -0.2151
 4578SOL    HW115175   2.259   0.816   6.233 -0.3328  1.2355  1.5423
 4578SOL    HW215176   2.369   0.850   6.330  1.6759 -0.4209 -0.0372
 4579SOL     OW15177   4.601   2.892   9.564 -0.7536  0.3535 -0.4153
 4579SOL    HW115178   4.662   2.826   9.597 -1.3334  0.1920  0.3704
 4579SOL    HW215179   4.605   2.883   9.469  1.2223  1.0600 -0.4420
 4580SOL     OW15180   1.762   5.647   6.848 -0.3689 -0.0814 -0.6215
 4580SOL    HW115181   1.721   5.648   6.762 -1.7914 -1.8953 -0.0098
 4580SOL    HW215182   1.747   5.559   6.882  1.6696  0.0265  0.7962
 4581SOL     OW15183   4.162   7.864  10.391  0.4586  0.2992  0.5838
 4581SOL    HW115184   4.081   7.822  10.362  1.3937 -1.6464  0.6228
 4581SOL    HW215185   4.223   7.851  10.319  1.6867 -1.2428  1.8032
 4582SOL     OW15186   2.331   3.768   1.964 -0.0893 -0.2133  0.2295
 4582SOL    HW115187   2.392   3.711   2.011  0.2813 -0.1031 -0.1159
 4582SOL    HW215188   2.335   3.739   1.873 -0.3901 -0.0641  0.1661
 4583SOL     OW15189   2.024   7.876   9.505 -0.0304 -0.2032  0.3971
 4583SOL    HW115190   2.073   7.958   9.495 -1.0042  0.4517  0.8488
 4583SOL    HW215191   2.044   7.846   9.593  1.1681 -1.0417 -0.1288
 4584SOL     OW15192   5.031   4.027   8.215  0.4830  0.7519  0.0629
 4584SOL    HW115193   5.058   4.085   8.286  1.5872  0.7976 -0.3843
 4584SOL    HW215194   5.111   3.983   8.187 -0.6018 -2.7057  1.8547
 4585SOL     OW15195   5.406   4.235  12.105 -0.1048  0.4827  0.0431
 4585SOL    HW115196   5.361   4.270  12.029  0.1032  1.5649  0.4010
 4585SOL    HW215197   5.497   4.222  12.076 -0.5803 -1.6563 -0.6658
 4586SOL     OW15198   2.341   1.590   8.449  0.0311  0.0886  0.1462
 4586SOL    HW115199   2.413   1.533   8.477 -1.4965 -1.3770  1.2883
 4586SOL    HW215200   2.353   1.598   8.354  1.0766 -1.0176  0.1520
 4587SOL     OW15201   5.624   0.568   0.841  0.1261 -0.4316 -0.3595
 4587SOL    HW115202   5.612   0.531   0.928  0.4394 -1.8573 -0.9056
 4587SOL    HW215203   5.567   0.515   0.784  0.3899  0.0868 -1.1258
 4588SOL     OW15204   3.910   0.993   9.160 -0.7274  0.4372  0.0056
 4588SOL    HW115205   3.916   0.917   9.101 -1.0720  1.4740 -1.4055
 4588SOL    HW215206   3.817   1.002   9.178 -0.7232  0.7571 -0.1345
 4589SOL     OW15207   0.888   4.298   6.686  0.4160 -0.3296  0.0016
 4589SOL    HW115208   0.800   4.262   6.673  1.1046 -1.5835 -1.5204
 4589SOL    HW215209   0.873   4.383   6.727 -1.4753 -0.7646  0.3128
 4590SOL     OW15210   6.656   3.044   1.962 -0.2344  0.3086  0.0991
 4590SOL    HW115211   6.645   3.131   1.924 -0.6121 -0.0107 -0.5501
 4590SOL    HW215212   6.569   3.021   1.994 -0.4225 -0.3178 -0.8226
 4591SOL     OW15213   2.126   3.425   1.991  0.2617 -0.6680 -0.1301
 4591SOL    HW115214   2.031   3.436   1.986  0.0948 -1.2855  1.2259
 4591SOL    HW215215   2.156   3.433   1.901 -0.7265  2.3996 -0.3097
 4592SOL     OW15216   3.542   2.515   1.020 -0.1911 -0.4266  0.0693
 4592SOL    HW115217   3.509   2.546   1.104 -1.8591 -0.7768 -0.4069
 4592SOL    HW215218   3.550   2.420   1.031 -2.2171 -0.7290 -0.6886
 4593SOL     OW15219   6.994   1.654   4.862  0.1712  0.0843  0.3813
 4593SOL    HW115220   6.979   1.663   4.956  0.4536  0.6353  0.3802
 4593SOL    HW215221   6.923   1.599   4.831  1.2270 -1.8467  1.2486
 4594SOL     OW15222   6.992   1.461  11.754  0.1280 -0.0781  0.1182
 4594SOL    HW115223   6.928   1.392  11.772 -1.7152  1.8254  1.2054
 4594SOL    HW215224   6.958   1.507  11.678 -0.7707  1.9517  1.6493
 4595SOL     OW15225   0.239   5.639  12.010  0.2925  0.0468  0.2557
 4595SOL    HW115226   0.268   5.727  12.029  1.5311 -0.1301 -0.6790
 4595SOL    HW215227   0.167   5.650  11.947  0.0292  0.3969  0.6171
 4596SOL     OW15228   5.899   1.888   8.838  0.1857 -0.0304 -0.2785
 4596SOL    HW115229   5.833   1.928   8.782  2.7397  1.6391 -2.3304
 4596SOL    HW215230   5.862   1.803   8.862 -2.9234  1.0703 -0.7118
 4597SOL     OW15231   5.146   6.838   1.909  0.1929 -0.2047  0.1453
 4597SOL    HW115232   5.092   6.869   1.982  0.5366  1.0983 -0.1240
 4597SOL    HW215233   5.236   6.845   1.942  0.3222 -0.0720 -0.2340
 4598SOL     OW15234   3.432   2.842  10.645 -0.7179 -0.0051 -0.4400
 4598SOL    HW115235   3.503   2.777  10.647 -0.2415  0.5214  0.6852
 4598SOL    HW215236   3.473   2.923  10.676 -1.7084  0.4182 -0.2045
 4599SOL     OW15237   2.408   4.597   5.646 -0.1401  0.0948  0.4517
 4599SOL    HW115238   2.427   4.599   5.552  0.0024  0.6063  0.4886
 4599SOL    HW215239   2.494   4.595   5.688 -0.2057 -0.2750  0.5676
 4600SOL     OW15240   6.556   2.474   6.148  0.2782 -0.1723  0.2481
 4600SOL    HW115241   6.605   2.404   6.191  2.3054  2.0840  1.8612
 4600SOL    HW215242   6.567   2.457   6.055  0.4906 -2.1127  0.5868
 4601SOL     OW15243   1.756   2.910   8.542  0.6563  0.0752 -0.1510
 4601SOL    HW115244   1.828   2.961   8.579  0.9417 -0.1554 -0.3734
 4601SOL    HW215245   1.729   2.851   8.612  1.3413 -0.5148 -0.3590
 4602SOL     OW15246   5.535   2.166   3.583 -0.4331  0.2035 -0.5344
 4602SOL    HW115247   5.572   2.255   3.582  0.1864  0.0153  1.5909
 4602SOL    HW215248   5.602   2.112   3.541  0.7492  0.2455  1.1873
 4603SOL     OW15249   3.446   6.755   3.069  0.0014 -0.7812  0.2360
 4603SOL    HW115250   3.412   6.826   3.016 -2.3270 -3.8239 -2.7839
 4603SOL    HW215251   3.541   6.769   3.072 -0.4239  2.9607  0.9137
 4604SOL     OW15252   4.692   7.859   5.585  0.1411 -0.0551  0.0800
 4604SOL    HW115253   4.635   7.851   5.662 -0.9586  0.5336 -0.6557
 4604SOL    HW215254   4.769   7.807   5.608 -0.9285 -1.3721  0.8734
 4605SOL     OW15255   2.374   7.379  10.891  0.0700 -0.0302 -0.3990
 4605SOL    HW115256   2.389   7.455  10.948  0.5856 -0.5643  0.2037
 4605SOL    HW215257   2.286   7.348  10.915 -0.6257  1.0253 -1.4510
 4606SOL     OW15258   1.754   7.174  10.602  0.0883 -0.1153  0.0094
 4606SOL    HW115259   1.813   7.208  10.534  1.4771 -2.2737  0.0346
 4606SOL    HW215260   1.681   7.136  10.554  0.0290  0.2113 -0.1605
 4607SOL     OW15261   6.896   1.214  10.946 -0.3157  0.1462 -0.3341
 4607SOL    HW115262   6.827   1.168  10.993  0.2622 -0.7200 -0.3281
 4607SOL    HW215263   6.907   1.165  10.865  1.4284 -0.7181  0.3903
 4608SOL     OW15264   0.570   6.985   3.575  0.1600  0.0231  0.3633
 4608SOL    HW115265   0.650   7.009   3.528  1.2705  0.1801  2.1998
 4608SOL    HW215266   0.600   6.921   3.640 -1.3052 -0.2177  0.8284
 4609SOL     OW15267   1.421   0.622   6.865 -0.4724 -0.0941 -0.3996
 4609SOL    HW115268   1.433   0.528   6.852 -0.0747 -0.2560  0.9292
 4609SOL    HW215269   1.398   0.630   6.958 -0.1845  1.1460 -0.4184
 4610SOL     OW15270   2.130   7.095   8.083 -0.1472  0.3650  0.3142
 4610SOL    HW115271   2.218   7.066   8.109 -0.7483 -0.0982  1.9629
 4610SOL    HW215272   2.116   7.176   8.131 -0.4467  0.6791 -0.3030
 4611SOL     OW15273   1.163   6.910  10.217  0.4181  0.2175 -0.0741
 4611SOL    HW115274   1.180   6.987  10.163  0.9545  0.6213  0.6491
 4611SOL    HW215275   1.228   6.846  10.190  0.3708  0.2378 -0.2389
 4612SOL     OW15276   4.967   2.189   8.404  0.2089 -0.4678 -0.3168
 4612SOL    HW115277   5.013   2.272   8.391 -3.4558  1.5980 -1.5422
 4612SOL    HW215278   4.922   2.199   8.488 -1.5903 -0.4336 -1.2427
 4613SOL     OW15279   0.211   1.012   9.536  0.3100  0.1275  0.1857
 4613SOL    HW115280   0.290   1.030   9.587  0.7455  1.4493 -0.9062
 4613SOL    HW215281   0.144   0.992   9.602  0.8650  1.7627  1.3042
 4614SOL     OW15282   0.338   3.131   3.144 -0.1184  0.0471  0.0316
 4614SOL    HW115283   0.392   3.203   3.177  0.1180 -1.1732  2.5274
 4614SOL    HW215284   0.387   3.097   3.069  0.2284  1.8372 -0.6064
 4615SOL     OW15285   4.782   0.185  12.456 -0.3893  0.0405 -0.8485
 4615SOL    HW115286   4.807   0.267  12.500  1.0527 -0.0647 -1.4559
 4615SOL    HW215287   4.686   0.182  12.466 -0.2035  0.3228  1.7393
 4616SOL     OW15288   1.673   3.964   9.566  0.0211  0.0716 -0.1268
 4616SOL    HW115289   1.723   4.037   9.530 -0.8925  0.5310 -0.5073
 4616SOL    HW215290   1.601   3.952   9.504  0.2360 -1.2635 -0.1483
 4617SOL     OW15291   4.845   3.269   6.866  0.3147 -0.5453  0.2893
 4617SOL    HW115292   4.939   3.255   6.870  0.6997  1.6442  0.0483
 4617SOL    HW215293   4.825   3.328   6.939 -0.8986 -1.0795  0.4209
 4618SOL     OW15294   0.762   7.297   5.676  0.2579  0.4587  0.1324
 4618SOL    HW115295   0.737   7.387   5.655 -0.8971  0.3486  0.9621
 4618SOL    HW215296   0.757   7.250   5.592 -0.3900  0.8843 -0.0685
 4619SOL     OW15297   3.374   7.980   9.496 -0.2073  0.1668 -0.1658
 4619SOL    HW115298   3.449   8.033   9.521  1.8513 -1.9042 -1.5878
 4619SOL    HW215299   3.385   7.898   9.544 -2.7503  0.4974  1.1872
 4620SOL     OW15300   3.239   6.749   5.760  0.5417  0.0264 -0.1804
 4620SOL    HW115301   3.300   6.715   5.695 -1.1390 -1.2008 -1.2120
 4620SOL    HW215302   3.159   6.767   5.710  0.4178  2.8357  0.8735
 4621SOL     OW15303   0.963   0.430   0.197 -0.1159 -0.1300  0.2257
 4621SOL    HW115304   1.047   0.434   0.243  0.3665  0.6927 -0.6760
 4621SOL    HW215305   0.901   0.471   0.257  0.3904  0.4302  0.3785
 4622SOL     OW15306   1.671   2.814  11.441 -0.0557  0.4055  0.8826
 4622SOL    HW115307   1.757   2.792  11.404 -0.7123 -4.7909  1.6097
 4622SOL    HW215308   1.676   2.783  11.532 -2.7123 -0.3158  0.8699
 4623SOL     OW15309   2.087   6.744   6.099 -0.5950 -0.1930  0.3986
 4623SOL    HW115310   2.104   6.656   6.064 -1.8544 -0.3184  0.0532
 4623SOL    HW215311   1.993   6.746   6.112 -0.9042  1.8693 -1.6375
 4624SOL     OW15312   4.602   5.547  11.733 -0.8799 -0.0977 -0.2647
 4624SOL    HW115313   4.640   5.635  11.737 -0.0598 -0.4079 -1.0190
 4624SOL    HW215314   4.658   5.499  11.672 -0.9449 -1.3344  0.6095
 4625SOL     OW15315   7.934   6.029   3.250  0.1565  0.2509 -0.3050
 4625SOL    HW115316   7.875   6.099   3.276  0.1273  0.0808  0.1054
 4625SOL    HW215317   7.987   6.012   3.328 -0.5056 -0.8497 -0.0613
 4626SOL     OW15318   7.786   7.552  11.942 -0.3229 -0.1084  0.1436
 4626SOL    HW115319   7.745   7.612  11.880 -0.7559  0.1276  0.6533
 4626SOL    HW215320   7.828   7.486  11.887 -1.3527 -0.3323 -0.3985
 4627SOL     OW15321   1.578   3.325   6.706  0.2335  0.0453  0.1478
 4627SOL    HW115322   1.499   3.272   6.709 -0.9836  1.7845  1.8459
 4627SOL    HW215323   1.548   3.414   6.727  2.4627  1.0144 -0.4293
 4628SOL     OW15324   7.320   0.431   8.942 -0.3873  0.1061  0.0445
 4628SOL    HW115325   7.387   0.396   9.001  0.0819 -0.8545 -1.0129
 4628SOL    HW215326   7.352   0.518   8.919  0.2592 -0.1529 -0.0642
 4629SOL     OW15327   3.155   5.458   4.426  0.5186  0.3661 -0.1546
 4629SOL    HW115328   3.144   5.363   4.420  1.5823  0.2097  0.1485
 4629SOL    HW215329   3.190   5.484   4.341  2.3207  0.1487  0.4775
 4630SOL     OW15330   6.304   2.721   5.185  0.1873  0.1073 -0.6055
 4630SOL    HW115331   6.209   2.727   5.196  0.3673 -1.0109  2.4432
 4630SOL    HW215332   6.318   2.632   5.153  0.2748 -0.2834  0.4923
 4631SOL     OW15333   7.045   1.464   4.205  0.3153 -0.0287  0.1875
 4631SOL    HW115334   7.072   1.554   4.217  2.7108 -0.5425 -0.8506
 4631SOL    HW215335   7.117   1.411   4.239  0.2173 -1.4992 -1.6646
 4632SOL     OW15336   3.445   7.539  11.299  0.4563 -0.1177 -0.2027
 4632SOL    HW115337   3.409   7.543  11.211  0.6812  2.9548 -0.2468
 4632SOL    HW215338   3.383   7.588  11.353  0.6885 -1.3477  1.2672
 4633SOL     OW15339   7.817   6.816   6.188  0.1068  0.2968 -0.2102
 4633SOL    HW115340   7.841   6.879   6.119  0.5813  0.7200  0.3343
 4633SOL    HW215341   7.722   6.808   6.181  0.2007 -0.1166 -1.2992
 4634SOL     OW15342   1.926   3.073   5.759  0.3080  0.2281  0.1218
 4634SOL    HW115343   1.991   3.108   5.819 -1.4816  1.4715  1.4437
 4634SOL    HW215344   1.895   2.992   5.801  0.2349  0.2150  0.0454
 4635SOL     OW15345   5.459   4.703   1.861 -0.4246  0.0206 -0.1225
 4635SOL    HW115346   5.376   4.713   1.908 -1.3056  0.8210 -1.7711
 4635SOL    HW215347   5.469   4.784   1.811  1.5951  0.1357  0.3628
 4636SOL     OW15348   3.058   7.372   0.489 -0.9542 -0.1784  0.0198
 4636SOL    HW115349   3.125   7.305   0.506 -0.5706  0.3874  0.8088
 4636SOL    HW215350   3.101   7.455   0.509 -1.0658  0.4348 -2.0423
 4637SOL     OW15351   1.817   5.895   7.973 -0.1900  0.0439  0.2837
 4637SOL    HW115352   1.886   5.957   7.996  0.3682 -0.3525 -0.2750
 4637SOL    HW215353   1.830   5.880   7.879 -1.5418  0.5768 -0.0184
 4638SOL     OW15354   2.239   6.315   8.456  0.3691  0.5275  0.4829
 4638SOL    HW115355   2.326   6.308   8.418  0.6909  1.6514  0.9820
 4638SOL    HW215356   2.240   6.397   8.506 -1.1422  0.8531  0.0504
 4639SOL     OW15357   2.685   1.397   4.308  0.7082  0.3468 -0.4156
 4639SOL    HW115358   2.619   1.375   4.374 -1.2176 -0.4194 -2.4444
 4639SOL    HW215359   2.754   1.332   4.320 -0.3203 -0.7165 -0.0994
 4640SOL     OW15360   0.928   0.421  12.387 -0.0641 -0.3442  0.3603
 4640SOL    HW115361   0.988   0.491  12.359  0.1446 -0.6300  0.0802
 4640SOL    HW215362   0.932   0.423  12.482 -1.2368  1.0388  0.4249
 4641SOL     OW15363   5.412   4.853  10.001  0.1908 -0.3158  0.0788
 4641SOL    HW115364   5.492   4.904  10.004 -0.5105  0.7739  2.4598
 4641SOL    HW215365   5.383   4.847  10.092 -0.6447 -3.6093 -0.2704
 4642SOL     OW15366   3.375   6.084   7.591 -0.5096 -0.6620 -0.2593
 4642SOL    HW115367   3.320   6.075   7.513 -0.8035  0.0667 -0.1520
 4642SOL    HW215368   3.463   6.060   7.562 -0.2974  1.0877 -1.2433
 4643SOL     OW15369   3.267   5.520   1.078 -0.1954 -0.2232  0.6062
 4643SOL    HW115370   3.352   5.523   1.123 -0.0151 -0.4344  0.2845
 4643SOL    HW215371   3.262   5.430   1.044 -0.3476 -0.0773  0.2414
 4644SOL     OW15372   1.489   1.897   0.887 -0.4676 -0.2596 -0.4620
 4644SOL    HW115373   1.500   1.988   0.915 -1.3251 -0.7129  1.5586
 4644SOL    HW215374   1.578   1.861   0.887 -0.3398  0.0162  0.8845
 4645SOL     OW15375   0.023   0.233   7.737 -0.4209  0.2981  0.0122
 4645SOL    HW115376  -0.006   0.302   7.678 -1.5567  0.5565  0.8494
 4645SOL    HW215377  -0.007   0.260   7.824  0.0792 -0.7012  0.5238
 4646SOL     OW15378   0.465   4.652   6.143  0.3522  0.2924 -0.0697
 4646SOL    HW115379   0.454   4.558   6.150  0.1502  0.3821  0.9594
 4646SOL    HW215380   0.514   4.665   6.061  1.5357 -0.7814  0.4438
 4647SOL     OW15381   1.710   0.006   9.252  0.0277 -0.1192  0.0009
 4647SOL    HW115382   1.727   0.096   9.280 -2.3612  0.6596 -0.8497
 4647SOL    HW215383   1.750  -0.001   9.165  0.9720 -0.1799  0.4323
 4648SOL     OW15384   4.520   7.290   5.955 -0.4860 -0.0095  0.3311
 4648SOL    HW115385   4.536   7.332   5.870 -1.2647  0.1247  0.2403
 4648SOL    HW215386   4.425   7.275   5.956 -0.7282  1.3851  1.8103
 4649SOL     OW15387   0.885   0.630   6.246 -0.2035 -0.0389  0.3831
 4649SOL    HW115388   0.853   0.637   6.336 -2.9321  1.4035 -0.6143
 4649SOL    HW215389   0.820   0.576   6.201  0.3452  0.4598 -1.0660
 4650SOL     OW15390   3.645   5.894   1.470  0.2596  0.2420 -0.1009
 4650SOL    HW115391   3.676   5.980   1.441  0.1276  0.8236  1.3930
 4650SOL    HW215392   3.572   5.874   1.411 -0.6260  1.8139  0.3895
 4651SOL     OW15393   3.125   4.754   9.129  0.4247 -0.2852 -0.4000
 4651SOL    HW115394   3.077   4.775   9.209  0.1479 -2.6439  0.1069
 4651SOL    HW215395   3.217   4.762   9.154  0.3549  1.5545 -0.6151
 4652SOL     OW15396   4.475   0.430   2.374  0.5538 -0.5107  0.5065
 4652SOL    HW115397   4.529   0.421   2.296  0.5225 -1.1619  0.5567
 4652SOL    HW215398   4.535   0.462   2.442  0.0834  2.4845 -0.3741
 4653SOL     OW15399   6.107   5.208  11.864  0.3785 -0.3405 -0.1620
 4653SOL    HW115400   6.105   5.303  11.851 -1.1286 -0.6383 -2.6414
 4653SOL    HW215401   6.091   5.171  11.777 -0.1684 -2.8578  0.9167
 4654SOL     OW15402   5.169   4.962   2.193 -0.3645  0.4051  0.1105
 4654SOL    HW115403   5.227   5.030   2.228 -0.2813  0.2084  0.3557
 4654SOL    HW215404   5.155   4.902   2.266  0.7903 -0.6726 -0.5251
 4655SOL     OW15405   1.989   3.515   7.004  0.5664  0.0151  0.3717
 4655SOL    HW115406   1.944   3.465   6.936 -1.3838 -0.1365  1.6949
 4655SOL    HW215407   2.024   3.591   6.959 -0.0509 -0.4447 -0.9202
 4656SOL     OW15408   7.675   2.493  10.391  0.3300 -0.3168 -0.0282
 4656SOL    HW115409   7.726   2.439  10.331  0.1474 -1.0028  0.4310
 4656SOL    HW215410   7.704   2.466  10.478 -2.2908 -2.2559  0.3580
 4657SOL     OW15411   2.905   7.066   4.806  0.3055 -0.4295 -0.2441
 4657SOL    HW115412   2.995   7.048   4.779  0.8496 -0.9402  1.7075
 4657SOL    HW215413   2.895   7.161   4.795  0.8215 -0.4739 -1.1789
 4658SOL     OW15414   4.208   3.592   1.789 -0.0281  0.5226 -0.3336
 4658SOL    HW115415   4.176   3.682   1.790 -1.7777 -0.0641  0.0123
 4658SOL    HW215416   4.219   3.571   1.697 -2.2586  0.2574 -0.5998
 4659SOL     OW15417   6.028   6.625   0.791  0.0990  0.1257  0.0158
 4659SOL    HW115418   6.043   6.657   0.702  0.7684 -1.2950 -0.4057
 4659SOL    HW215419   6.093   6.557   0.804 -0.0840  0.2054  1.5603
 4660SOL     OW15420   4.108   2.766   3.847  0.0458 -0.4296  0.0349
 4660SOL    HW115421   4.039   2.795   3.907 -0.9503 -1.4910 -0.5390
 4660SOL    HW215422   4.180   2.740   3.903 -1.0739 -1.9560  0.8532
 4661SOL     OW15423   6.021   3.768   7.913  0.4036  0.0807 -0.0643
 4661SOL    HW115424   5.955   3.801   7.852  0.6299  1.1313  0.2440
 4661SOL    HW215425   5.983   3.783   8.000  0.4020 -0.7192  0.0790
 4662SOL     OW15426   0.260   1.259   4.171 -0.2114  0.2154 -0.4263
 4662SOL    HW115427   0.295   1.178   4.210  1.1624  0.9769  0.0084
 4662SOL    HW215428   0.263   1.244   4.077  2.1897  0.5378 -0.4619
 4663SOL     OW15429   5.765   0.667   8.291  0.0743  0.2259 -0.0063
 4663SOL    HW115430   5.798   0.756   8.280  1.0850 -0.0507  0.6769
 4663SOL    HW215431   5.752   0.635   8.202 -1.0380  1.3092 -0.2608
 4664SOL     OW15432   2.210   6.879   1.248  0.1504  1.0888  0.1430
 4664SOL    HW115433   2.240   6.923   1.168  1.5786  1.0121  0.6048
 4664SOL    HW215434   2.246   6.932   1.319  0.7267 -0.0427  0.7202
 4665SOL     OW15435   0.409   0.948   3.012 -0.0174  0.0316  0.0128
 4665SOL    HW115436   0.374   1.035   2.992  0.3060 -0.2714 -2.1417
 4665SOL    HW215437   0.454   0.922   2.932 -2.0184 -3.0688 -0.2654
 4666SOL     OW15438   1.201   3.852   2.612 -0.2926 -0.9326 -0.5922
 4666SOL    HW115439   1.108   3.858   2.636 -0.9116 -2.1181 -2.5135
 4666SOL    HW215440   1.244   3.819   2.691 -1.5381 -0.6706  0.2287
 4667SOL     OW15441   4.669   5.352   2.747  0.0498 -0.6268 -0.5372
 4667SOL    HW115442   4.757   5.385   2.728  0.3606 -0.9044  0.3393
 4667SOL    HW215443   4.673   5.259   2.725 -0.9275 -0.0827 -3.3364
 4668SOL     OW15444   7.488   6.775   4.298  0.2969  0.1916  0.1791
 4668SOL    HW115445   7.417   6.717   4.270 -1.1046  1.5928  0.7520
 4668SOL    HW215446   7.486   6.771   4.393  1.4872 -0.3079  0.2048
 4669SOL     OW15447   3.875   1.484   3.173  0.5509 -0.3447 -0.0588
 4669SOL    HW115448   3.810   1.413   3.172  1.5369 -1.2746 -0.5437
 4669SOL    HW215449   3.902   1.493   3.081  1.1674 -0.0307  0.1489
 4670SOL     OW15450   5.366   7.733  12.030 -0.1156 -0.2204  0.3451
 4670SOL    HW115451   5.311   7.672  12.079  1.4545 -1.9912  0.0098
 4670SOL    HW215452   5.317   7.748  11.949 -0.7203 -0.7456  0.6038
 4671SOL     OW15453   0.094   6.232   6.210  0.4487  0.3174 -0.1517
 4671SOL    HW115454   0.004   6.209   6.186 -0.0463 -0.1222  1.9629
 4671SOL    HW215455   0.149   6.171   6.161 -0.3680  0.7427 -1.6476
 4672SOL     OW15456   5.542   3.028   3.856 -0.2891 -0.1191  0.4714
 4672SOL    HW115457   5.493   3.045   3.937 -1.0966  0.8823 -0.2134
 4672SOL    HW215458   5.629   3.002   3.887 -0.8347 -0.6004  1.6762
 4673SOL     OW15459   1.941   0.026  10.942 -0.1674  0.2232  0.2310
 4673SOL    HW115460   1.871  -0.006  10.885  0.8981 -0.3559 -0.7795
 4673SOL    HW215461   1.980   0.099  10.893  1.4044 -0.9122 -0.2546
 4674SOL     OW15462   0.910   3.172   3.809  0.3178  0.2195  0.1133
 4674SOL    HW115463   0.991   3.147   3.764 -0.0107 -0.4010 -0.1568
 4674SOL    HW215464   0.934   3.178   3.901  0.6579 -0.0218  0.0410
 4675SOL     OW15465   5.536   3.882   1.761  0.2322  0.4037  0.6175
 4675SOL    HW115466   5.510   3.851   1.674 -0.5384  0.7144  0.7329
 4675SOL    HW215467   5.588   3.810   1.796 -1.1616 -0.6076  0.7022
 4676SOL     OW15468   5.844   2.417   2.131 -0.2570  0.4862  0.2926
 4676SOL    HW115469   5.796   2.404   2.213  0.4618  0.6864  0.7502
 4676SOL    HW215470   5.782   2.465   2.076 -1.5525 -1.5079 -0.0932
 4677SOL     OW15471   1.498   1.122   0.744 -0.0299  0.1114  0.0120
 4677SOL    HW115472   1.456   1.143   0.660  0.6774 -0.2384 -0.4414
 4677SOL    HW215473   1.564   1.190   0.755  1.4065 -1.0925 -0.8384
 4678SOL     OW15474   1.236   3.639   9.884 -0.3050 -0.1954  1.1251
 4678SOL    HW115475   1.289   3.619   9.807 -0.0713 -2.3752  1.7719
 4678SOL    HW215476   1.300   3.663   9.951  0.0819 -3.4232  2.0863
 4679SOL     OW15477   2.739   2.652   1.699 -0.3666 -0.3164 -0.2090
 4679SOL    HW115478   2.683   2.710   1.750  1.2399 -0.5466  1.9615
 4679SOL    HW215479   2.679   2.601   1.646 -2.1052  0.3477  1.0424
 4680SOL     OW15480   5.433   3.416   5.537 -0.4430  0.2212  0.0038
 4680SOL    HW115481   5.416   3.510   5.538 -1.4991  0.0503  0.6298
 4680SOL    HW215482   5.508   3.404   5.595 -0.6366  0.6291  0.3428
 4681SOL     OW15483   2.541   1.133   0.410  1.0036  0.2131 -0.2533
 4681SOL    HW115484   2.584   1.093   0.486 -2.7831 -1.2009  1.4278
 4681SOL    HW215485   2.523   1.060   0.351 -0.2107  0.4663 -0.2362
 4682SOL     OW15486   1.646   5.438   4.730 -0.1147 -0.7964 -0.2000
 4682SOL    HW115487   1.556   5.440   4.764 -0.4062  1.4509 -0.9075
 4682SOL    HW215488   1.699   5.409   4.803 -1.1553  0.2126  0.9992
 4683SOL     OW15489   2.585   6.483   2.265 -0.5255  0.2672 -0.4821
 4683SOL    HW115490   2.658   6.538   2.237 -0.0496  0.7057  1.4742
 4683SOL    HW215491   2.581   6.413   2.200  0.5549  1.1595 -1.5537
 4684SOL     OW15492   5.756   1.132   3.264  0.7001  0.1266  0.1370
 4684SOL    HW115493   5.721   1.182   3.338 -2.9359 -0.4838 -1.0154
 4684SOL    HW215494   5.736   1.186   3.188  0.0170 -1.4068 -0.8058
 4685SOL     OW15495   2.439   3.942   3.695  0.0022 -0.1214  0.4536
 4685SOL    HW115496   2.432   3.903   3.608 -1.4774  0.5113  0.2450
 4685SOL    HW215497   2.518   3.996   3.691  0.5455 -0.9341 -0.1299
 4686SOL     OW15498   6.452   5.383   0.378 -0.3827  0.5742  0.1453
 4686SOL    HW115499   6.545   5.369   0.361 -1.0963 -2.1092 -2.4764
 4686SOL    HW215500   6.432   5.466   0.334  0.2054 -0.4725 -2.2677
 4687SOL     OW15501   0.796   6.123   9.794 -0.0869  0.2159  0.3039
 4687SOL    HW115502   0.884   6.149   9.818  0.4858 -0.7828 -0.6286
 4687SOL    HW215503   0.740   6.196   9.823  0.4255 -0.8560  4.8031
 4688SOL     OW15504   4.773   2.819   0.048 -0.0877  0.0771  0.0912
 4688SOL    HW115505   4.801   2.836   0.138 -0.3738 -0.2575  0.2468
 4688SOL    HW215506   4.726   2.898   0.022  2.0190  1.1837 -0.6133
 4689SOL     OW15507   1.117   4.566   7.215  0.0091  0.0182  0.3967
 4689SOL    HW115508   1.134   4.649   7.258 -0.8516  0.3627  0.1016
 4689SOL    HW215509   1.057   4.520   7.275 -0.8800  0.3377 -0.2169
 4690SOL     OW15510   4.695   5.821   5.830 -0.1249  0.8225  0.1244
 4690SOL    HW115511   4.726   5.888   5.889 -0.6356  0.3825  0.9083
 4690SOL    HW215512   4.600   5.834   5.825 -0.1726  0.4433 -0.0681
 4691SOL     OW15513   7.314   0.481   7.328 -0.1114  0.2254  0.4474
 4691SOL    HW115514   7.324   0.424   7.404  0.2775  0.1968  0.3790
 4691SOL    HW215515   7.272   0.426   7.262  1.6949 -0.5093 -0.1727
 4692SOL     OW15516   4.670   1.251   4.932 -0.2413  0.3849 -1.1020
 4692SOL    HW115517   4.727   1.241   4.856  1.7433 -0.0868  0.3631
 4692SOL    HW215518   4.646   1.161   4.956  0.6896  0.3727 -0.1120
 4693SOL     OW15519   2.216   3.314   0.252  0.2559 -0.0166 -0.3190
 4693SOL    HW115520   2.260   3.295   0.335 -1.7234 -1.1921  0.5304
 4693SOL    HW215521   2.181   3.403   0.262 -0.8671 -0.5368  0.5572
 4694SOL     OW15522   7.444   1.809   8.880 -0.2062 -0.3967 -0.7672
 4694SOL    HW115523   7.475   1.841   8.796  0.3507 -1.3186 -0.9264
 4694SOL    HW215524   7.352   1.786   8.865 -0.2568 -0.0536 -0.9801
 4695SOL     OW15525   5.513   6.979   3.662  0.0517  0.0697 -0.3219
 4695SOL    HW115526   5.507   6.953   3.571 -0.5007  0.4301 -0.3883
 4695SOL    HW215527   5.478   7.068   3.665 -1.5664 -0.5524  0.5235
 4696SOL     OW15528   6.409   5.239   3.473  0.1322 -0.5786 -0.0602
 4696SOL    HW115529   6.431   5.146   3.474  1.3147 -0.3231  0.9755
 4696SOL    HW215530   6.489   5.282   3.502 -0.4289  0.7623 -0.4399
 4697SOL     OW15531   7.604   3.228   9.102  0.5890 -0.0878 -0.5588
 4697SOL    HW115532   7.558   3.239   9.185  1.8540  0.5423  0.0795
 4697SOL    HW215533   7.569   3.297   9.046  1.1420  0.7580  0.1096
 4698SOL     OW15534   0.212   5.737   3.600  0.3841 -0.2577 -0.0366
 4698SOL    HW115535   0.121   5.730   3.627 -0.0786  2.2071 -0.7701
 4698SOL    HW215536   0.261   5.702   3.674 -1.0608  1.0691  1.6290
 4699SOL     OW15537   6.334   4.369   9.928 -0.3919 -0.0723  0.1628
 4699SOL    HW115538   6.357   4.285   9.889 -0.4880 -0.2295  0.4465
 4699SOL    HW215539   6.322   4.428   9.853  2.8474  0.5496 -0.0277
 4700SOL     OW15540   4.994   7.723   2.032  0.3293  0.2104  0.2408
 4700SOL    HW115541   4.924   7.693   2.089  0.8987 -1.3379  0.1768
 4700SOL    HW215542   5.055   7.649   2.028  0.7696  0.6166 -1.6238
 4701SOL     OW15543   5.531   2.575   5.701 -0.6937  0.3005 -0.0665
 4701SOL    HW115544   5.525   2.661   5.742  0.7093  1.9250 -2.9574
 4701SOL    HW215545   5.440   2.546   5.694 -1.1857  1.4138  1.1492
 4702SOL     OW15546   4.658   6.185   7.530 -0.4298  0.1711 -0.5648
 4702SOL    HW115547   4.587   6.175   7.466  0.3334  1.7695 -1.7280
 4702SOL    HW215548   4.660   6.102   7.576 -0.6921 -1.2796 -2.9666
 4703SOL     OW15549   0.327   1.715   1.743 -0.1383  0.9017 -0.1369
 4703SOL    HW115550   0.354   1.662   1.817  0.0681 -0.9517 -1.4692
 4703SOL    HW215551   0.242   1.751   1.768  0.6789  1.7144  1.6240
 4704SOL     OW15552   0.262   7.964   4.937 -0.3651 -0.0894 -0.0847
 4704SOL    HW115553   0.213   7.902   4.883  1.3948 -0.9501 -0.7962
 4704SOL    HW215554   0.205   8.040   4.946 -0.8006  0.0519 -3.0655
 4705SOL     OW15555   5.687   0.653   9.452  0.2420  0.3305  0.3376
 4705SOL    HW115556   5.714   0.603   9.375 -0.6712  1.6030 -0.8581
 4705SOL    HW215557   5.593   0.638   9.458  0.4933 -0.7954  2.0142
 4706SOL     OW15558   1.676   4.890   0.108  0.3654 -0.1730 -0.0495
 4706SOL    HW115559   1.725   4.954   0.057 -1.3740  1.2177 -0.0906
 4706SOL    HW215560   1.722   4.885   0.191  0.4845  1.2665 -0.0033
 4707SOL     OW15561   6.642   6.140   1.538 -0.0486  0.0408 -0.3634
 4707SOL    HW115562   6.643   6.046   1.525 -0.1396  0.1598 -1.3661
 4707SOL    HW215563   6.720   6.159   1.591 -0.9831 -0.7716  1.3746
 4708SOL     OW15564   6.448   1.065   5.875 -0.0867 -0.1506  0.5166
 4708SOL    HW115565   6.431   1.052   5.782 -0.5954 -2.0357  0.8188
 4708SOL    HW215566   6.400   1.144   5.898 -1.6766 -0.8032 -0.4237
 4709SOL     OW15567   5.882   3.067   5.569 -0.8235  0.1459  0.0070
 4709SOL    HW115568   5.857   3.154   5.536  0.7921  0.5467 -0.2259
 4709SOL    HW215569   5.968   3.050   5.530 -1.4653 -1.9415 -0.6106
 4710SOL     OW15570   0.562   2.326  11.692 -0.7775 -0.8286 -0.0217
 4710SOL    HW115571   0.523   2.401  11.737 -3.6760 -0.6876 -2.5004
 4710SOL    HW215572   0.618   2.365  11.624 -1.5444 -0.8914 -0.7012
 4711SOL     OW15573   0.517   5.995  12.143  0.1057 -0.3048 -0.4877
 4711SOL    HW115574   0.600   5.969  12.104  1.8473  0.0405  2.6641
 4711SOL    HW215575   0.528   6.087  12.164 -1.0246 -0.2887  0.1255
 4712SOL     OW15576   6.194   1.739  10.628 -0.1890  0.1049  0.2082
 4712SOL    HW115577   6.186   1.778  10.715  2.4795 -0.2240  0.6637
 4712SOL    HW215578   6.288   1.731  10.612 -0.5566  0.3184 -2.8123
 4713SOL     OW15579   4.414   6.950   2.951  0.0893  0.1573 -0.0985
 4713SOL    HW115580   4.461   6.921   2.874 -1.1647 -0.8961 -0.5089
 4713SOL    HW215581   4.372   6.871   2.985  0.4627  0.6348  1.5565
 4714SOL     OW15582   2.787   7.895   2.656  0.6973 -0.1497  0.1738
 4714SOL    HW115583   2.878   7.867   2.651  1.4045  2.0067  0.1850
 4714SOL    HW215584   2.772   7.944   2.575 -0.6089 -0.8491 -0.0396
 4715SOL     OW15585   5.340   2.560   1.260 -0.0035 -0.5408 -0.3015
 4715SOL    HW115586   5.297   2.475   1.272  0.0970 -0.4306  1.0870
 4715SOL    HW215587   5.420   2.540   1.212  0.2810 -1.3336  0.4701
 4716SOL     OW15588   3.474   7.795   9.661 -0.1792 -0.0147 -0.6477
 4716SOL    HW115589   3.397   7.747   9.694  0.7688 -0.2477  1.3652
 4716SOL    HW215590   3.516   7.734   9.601 -1.1533 -0.1551 -1.2195
 4717SOL     OW15591   1.734   2.585   5.836 -0.1801  0.2892  0.2914
 4717SOL    HW115592   1.783   2.510   5.871  1.2482  0.8884 -0.3158
 4717SOL    HW215593   1.754   2.583   5.742  0.4057  1.7773  0.3634
 4718SOL     OW15594   5.109   0.405   9.782  0.5320  0.0791 -0.3048
 4718SOL    HW115595   5.051   0.418   9.856 -1.8148 -0.5173 -1.9129
 4718SOL    HW215596   5.130   0.311   9.784  2.9707  0.5720  1.2407
 4719SOL     OW15597   1.925   0.002   8.372 -0.3758 -0.0703  0.1560
 4719SOL    HW115598   1.958  -0.075   8.419 -0.3003 -0.1444 -0.0189
 4719SOL    HW215599   1.890  -0.033   8.290 -0.2395  0.0951  0.0247
 4720SOL     OW15600   4.732   0.959   5.479  0.8715 -0.4032 -1.2088
 4720SOL    HW115601   4.781   0.906   5.541  1.4162  1.6780  0.2356
 4720SOL    HW215602   4.652   0.908   5.461  1.3052 -1.6301  0.1563
 4721SOL     OW15603   5.804   6.868  10.115 -0.2564 -0.4905  0.7626
 4721SOL    HW115604   5.737   6.922  10.074 -0.0222  1.4499  2.7521
 4721SOL    HW215605   5.846   6.822  10.043 -1.1399  1.2486 -0.9338
 4722SOL     OW15606   6.639   6.943   6.225  0.0779 -0.1527 -0.1303
 4722SOL    HW115607   6.729   6.961   6.250  0.2398 -0.3933 -0.5281
 4722SOL    HW215608   6.629   6.848   6.239 -0.4723  0.0492  1.0332
 4723SOL     OW15609   3.236   3.042   7.161 -0.0592  0.6333  0.0562
 4723SOL    HW115610   3.259   3.005   7.076  0.9293  0.4547  0.3873
 4723SOL    HW215611   3.141   3.027   7.169 -0.2624  1.1772 -1.2444
 4724SOL     OW15612   2.945   3.755   9.411  0.0686  0.6112 -0.4144
 4724SOL    HW115613   3.008   3.776   9.480 -0.7073 -0.8891  0.8151
 4724SOL    HW215614   2.864   3.799   9.438 -1.6438 -3.5276  2.3070
 4725SOL     OW15615   0.577   1.807   7.600 -0.0464  0.4884 -0.3214
 4725SOL    HW115616   0.639   1.744   7.636 -0.9506  0.1569  0.6987
 4725SOL    HW215617   0.603   1.891   7.639  0.9423  0.7221 -1.4139
 4726SOL     OW15618   6.540   6.893   3.366 -0.2284 -0.1745  0.0821
 4726SOL    HW115619   6.620   6.881   3.416 -1.2353 -0.1937  1.7406
 4726SOL    HW215620   6.532   6.813   3.314  0.2988 -0.6150  0.6686
 4727SOL     OW15621   5.545   7.037   1.892  0.0798 -0.3892 -0.3397
 4727SOL    HW115622   5.524   7.119   1.937  1.1648  0.3275 -1.0717
 4727SOL    HW215623   5.564   7.063   1.802 -0.3219 -1.5562 -0.7805
 4728SOL     OW15624   5.056   2.290  10.999 -0.2304  0.2810 -0.5764
 4728SOL    HW115625   5.068   2.381  11.025  0.0443  0.0920 -0.0238
 4728SOL    HW215626   5.025   2.246  11.078  0.4138 -0.2608 -0.6074
 4729SOL     OW15627   2.895   2.903   3.115  0.3516 -0.0453  0.0367
 4729SOL    HW115628   2.899   2.822   3.165 -0.3707 -0.4606 -0.5588
 4729SOL    HW215629   2.867   2.969   3.178 -1.0546 -0.6562  0.1043
 4730SOL     OW15630   3.310   5.364  10.571 -0.4646 -0.7548 -0.2994
 4730SOL    HW115631   3.285   5.289  10.625 -0.2162 -0.5410  0.1157
 4730SOL    HW215632   3.355   5.424  10.631  0.6880 -0.9488 -0.9273
 4731SOL     OW15633   6.173   2.229   4.838  0.1382 -0.1753 -0.5403
 4731SOL    HW115634   6.140   2.277   4.914  0.1022 -1.8568  0.5607
 4731SOL    HW215635   6.111   2.157   4.826  0.4146 -0.2158 -1.8805
 4732SOL     OW15636   5.696   4.652   2.684  0.1446 -0.3003  0.3252
 4732SOL    HW115637   5.775   4.639   2.632  0.1416  0.1667  0.1988
 4732SOL    HW215638   5.714   4.730   2.736  0.3785 -1.0941  1.4737
 4733SOL     OW15639   5.584   5.142  11.409 -0.4801 -0.3612  0.2079
 4733SOL    HW115640   5.636   5.062  11.410 -0.2143 -0.2114 -0.6813
 4733SOL    HW215641   5.606   5.186  11.491  1.6303  0.2075 -0.6000
 4734SOL     OW15642   3.315   5.219   2.729  0.2029 -0.0841  0.0255
 4734SOL    HW115643   3.283   5.134   2.760  0.0927 -0.0171  0.0928
 4734SOL    HW215644   3.259   5.283   2.772  0.7870  0.0580  0.5811
 4735SOL     OW15645   4.828   6.729   0.640 -0.4366 -0.0587 -0.3768
 4735SOL    HW115646   4.900   6.667   0.649 -2.2113 -2.0565  1.0981
 4735SOL    HW215647   4.763   6.684   0.585 -2.0105  0.1343  1.2027
 4736SOL     OW15648   3.847   2.257   8.146 -0.0354 -0.6564 -0.2004
 4736SOL    HW115649   3.920   2.195   8.147  1.3669  0.9538  1.2167
 4736SOL    HW215650   3.791   2.229   8.218  1.0113  0.1385  0.9636
 4737SOL     OW15651   4.244   4.186  10.422 -0.1761  0.5433  0.5570
 4737SOL    HW115652   4.178   4.117  10.414 -0.8526  1.1637  0.6852
 4737SOL    HW215653   4.195   4.268  10.413  0.6816  1.0115 -0.0932
 4738SOL     OW15654   1.277   6.916   6.025 -0.1881  0.3055 -0.1607
 4738SOL    HW115655   1.355   6.904   5.971 -0.4900 -0.6267 -0.4006
 4738SOL    HW215656   1.290   6.856   6.099 -0.8638 -0.1744 -0.4212
 4739SOL     OW15657   6.058   7.863   0.281  0.6600 -0.0815 -0.1548
 4739SOL    HW115658   6.086   7.894   0.367 -1.7690 -0.4717  0.8672
 4739SOL    HW215659   6.026   7.774   0.296  0.9187 -0.4560 -1.6370
 4740SOL     OW15660   5.620   2.392   1.880  0.7886  0.0793 -0.0073
 4740SOL    HW115661   5.714   2.385   1.860  0.4703 -0.5413 -1.3937
 4740SOL    HW215662   5.609   2.482   1.912  2.0988 -0.3075  1.6688
 4741SOL     OW15663   3.778   5.227   1.531 -0.4463  0.2146  0.2227
 4741SOL    HW115664   3.772   5.149   1.477  0.0240  1.5385 -1.8484
 4741SOL    HW215665   3.823   5.291   1.477 -1.8397  2.3079  1.3774
 4742SOL     OW15666   1.748   1.822   9.716  0.0872 -0.4548 -0.2783
 4742SOL    HW115667   1.760   1.917   9.718  1.3034 -0.5572  2.8066
 4742SOL    HW215668   1.784   1.795   9.632  2.4288  1.5646 -0.0318
 4743SOL     OW15669   6.292   1.570   3.605 -0.0109 -0.1581  0.7507
 4743SOL    HW115670   6.347   1.563   3.683  0.1010 -0.4160  0.6482
 4743SOL    HW215671   6.203   1.554   3.637 -0.0439  0.3512  0.9323
 4744SOL     OW15672   0.937   1.241  10.944  0.8942  0.1563  0.3503
 4744SOL    HW115673   0.992   1.163  10.942  1.3950  0.4912 -1.3544
 4744SOL    HW215674   0.996   1.312  10.968  0.6655  0.1686  0.8888
 4745SOL     OW15675   2.731   6.142   8.607  0.0037 -0.2781  0.5554
 4745SOL    HW115676   2.699   6.217   8.656  0.4485 -0.0860  0.5596
 4745SOL    HW215677   2.693   6.066   8.652 -0.1513 -0.0739  0.7732
 4746SOL     OW15678   0.107   3.307   8.788  0.7060 -0.3894 -0.8244
 4746SOL    HW115679   0.126   3.219   8.820  1.1501 -1.1725 -3.0635
 4746SOL    HW215680   0.086   3.295   8.696 -1.5082  1.6023 -0.6751
 4747SOL     OW15681   1.107   0.725   3.068  0.7530  0.4329 -0.4415
 4747SOL    HW115682   1.131   0.632   3.066 -0.8165  0.0100 -1.4198
 4747SOL    HW215683   1.021   0.726   3.110  1.2414  1.5870  0.5692
 4748SOL     OW15684   1.623   1.246   3.643 -0.3996  0.3056 -0.3390
 4748SOL    HW115685   1.533   1.222   3.624 -0.0811 -0.6170 -0.7001
 4748SOL    HW215686   1.666   1.251   3.557 -0.0415  0.5052 -0.1552
 4749SOL     OW15687   3.768   2.344   4.483  0.3040 -0.0484 -1.0651
 4749SOL    HW115688   3.674   2.329   4.477  0.1221 -0.4338  1.6182
 4749SOL    HW215689   3.806   2.257   4.495  0.4162  0.3709  2.7881
 4750SOL     OW15690   0.580   2.126  11.870  0.3975  0.7755  0.9739
 4750SOL    HW115691   0.503   2.145  11.925  0.2429  0.8774  0.7256
 4750SOL    HW215692   0.579   2.195  11.804  1.2487  1.3482  1.5300
 4751SOL     OW15693   5.120   0.628   4.853 -0.0886  0.5765  0.3474
 4751SOL    HW115694   5.042   0.630   4.797 -0.3463  1.0449  0.7097
 4751SOL    HW215695   5.124   0.538   4.885 -0.9785  0.7574  0.9965
 4752SOL     OW15696   4.861   7.866  11.094  0.0337 -0.2890 -0.3131
 4752SOL    HW115697   4.858   7.771  11.096 -0.0530 -0.2943 -0.6507
 4752SOL    HW215698   4.948   7.888  11.126 -0.2269 -0.4517  0.5496
 4753SOL     OW15699   7.849   1.092   6.541  0.0403  0.2094 -0.1249
 4753SOL    HW115700   7.881   1.014   6.495  1.6518 -0.3874  1.8497
 4753SOL    HW215701   7.775   1.061   6.593 -0.3967  0.3884 -0.6375
 4754SOL     OW15702   3.782   3.532   3.195  0.3179  0.4335  0.2262
 4754SOL    HW115703   3.847   3.602   3.197 -0.1058  0.8512  2.6840
 4754SOL    HW215704   3.713   3.566   3.136  1.3646  0.8457 -0.7986
 4755SOL     OW15705   0.667   5.749   0.701  0.1703  0.0926 -0.3413
 4755SOL    HW115706   0.682   5.671   0.755  0.6538  0.2365 -0.2620
 4755SOL    HW215707   0.572   5.758   0.697  0.1358  0.6037  1.2260
 4756SOL     OW15708   6.412   3.399   5.718 -0.3181  0.3971 -0.2157
 4756SOL    HW115709   6.343   3.461   5.695 -0.6556  0.7149  1.5606
 4756SOL    HW215710   6.385   3.317   5.676 -0.6669  1.0424 -1.2864
 4757SOL     OW15711   2.515   3.970  10.461 -0.8661 -0.4061 -0.1344
 4757SOL    HW115712   2.559   3.925  10.388 -1.2846  0.1425 -0.7427
 4757SOL    HW215713   2.473   3.900  10.511  2.1494 -1.1788  1.5485
 4758SOL     OW15714   7.215   7.144   5.420 -0.3712  0.1391 -0.1717
 4758SOL    HW115715   7.267   7.220   5.394 -0.1192 -0.1034 -0.3712
 4758SOL    HW215716   7.165   7.174   5.496 -0.6608  0.6678 -0.5617
 4759SOL     OW15717   0.453   3.569   3.623 -0.1404  0.2078  0.1561
 4759SOL    HW115718   0.513   3.495   3.618 -1.5765 -1.0739  1.0490
 4759SOL    HW215719   0.396   3.559   3.547  0.9949  1.6919 -0.9651
 4760SOL     OW15720   2.185   2.455   3.605 -0.4202  0.4669 -0.2317
 4760SOL    HW115721   2.143   2.477   3.522 -0.2031 -0.2675 -0.5421
 4760SOL    HW215722   2.218   2.538   3.638 -1.9374  1.0399 -0.0703
 4761SOL     OW15723   1.642   0.077   4.691 -0.0802 -0.0340  0.0826
 4761SOL    HW115724   1.613  -0.012   4.713 -0.4602 -0.2968 -1.3837
 4761SOL    HW215725   1.723   0.065   4.642  0.0788  0.4667  0.2146
 4762SOL     OW15726   6.513   1.016  12.372  0.3268 -0.0357  0.1206
 4762SOL    HW115727   6.571   0.941  12.359  3.6310  2.5970 -2.1018
 4762SOL    HW215728   6.550   1.061  12.448  0.5401  1.0629 -0.6146
 4763SOL     OW15729   4.670   0.193   4.602 -0.0626  0.2204 -0.2026
 4763SOL    HW115730   4.736   0.259   4.583 -0.1204  0.0553 -1.0191
 4763SOL    HW215731   4.631   0.221   4.684  1.7801 -0.2760  0.9045
 4764SOL     OW15732   6.990   4.009   9.786 -0.8237  0.1970  0.5700
 4764SOL    HW115733   7.078   3.993   9.751 -0.2547  0.4843  1.8310
 4764SOL    HW215734   6.995   3.981   9.877 -1.4937  1.9590  1.1889
 4765SOL     OW15735   1.185   2.927   6.721  0.4588 -0.3094 -0.0093
 4765SOL    HW115736   1.134   2.981   6.660 -0.2054 -0.6260  0.2535
 4765SOL    HW215737   1.276   2.950   6.702  0.2101  0.5940 -0.1925
 4766SOL     OW15738   2.912   3.570   2.950  0.0332  0.0414 -0.3296
 4766SOL    HW115739   2.949   3.485   2.928  1.0783  0.5224 -0.5188
 4766SOL    HW215740   2.975   3.633   2.916 -0.1305  0.8770  0.8436
 4767SOL     OW15741   4.610   3.710   1.165 -0.3711 -0.0390 -0.3510
 4767SOL    HW115742   4.605   3.623   1.206 -0.9177  0.3320  0.4079
 4767SOL    HW215743   4.545   3.707   1.095 -0.0612 -0.3923 -0.6252
 4768SOL     OW15744   2.262   2.948   1.097 -0.1364  0.2139 -0.7817
 4768SOL    HW115745   2.311   2.875   1.135  0.3019  1.1630  0.5490
 4768SOL    HW215746   2.172   2.917   1.094 -0.1187 -0.0600  0.6797
 4769SOL     OW15747   7.873   5.753   6.107  0.1819  0.4125  0.0903
 4769SOL    HW115748   7.966   5.733   6.097 -0.1470 -0.8140 -0.6874
 4769SOL    HW215749   7.855   5.820   6.041  0.0104 -1.1068 -1.4747
 4770SOL     OW15750   6.585   6.368   5.105  0.3943 -0.6219 -0.4054
 4770SOL    HW115751   6.617   6.427   5.173  0.4056  0.5394 -1.3958
 4770SOL    HW215752   6.551   6.292   5.154 -0.0058  0.3630  0.9178
 4771SOL     OW15753   2.435   1.053   0.790 -0.2578 -0.4143  0.4494
 4771SOL    HW115754   2.447   1.096   0.875 -0.2223  0.6905 -0.0948
 4771SOL    HW215755   2.345   1.074   0.765  0.5336  1.6401 -1.0126
 4772SOL     OW15756   2.224   7.041  11.954 -0.2174  0.2626  0.3212
 4772SOL    HW115757   2.149   7.022  12.011 -0.7112  0.9276 -0.0849
 4772SOL    HW215758   2.298   6.998  11.996 -0.9943 -1.2001  0.2296
 4773SOL     OW15759   3.530   0.614   5.040  0.0304  0.4732  0.1902
 4773SOL    HW115760   3.465   0.548   5.064 -1.4014  2.1127  1.1414
 4773SOL    HW215761   3.542   0.665   5.120  0.5525  1.7696 -0.6764
 4774SOL     OW15762   3.922   1.055   3.422 -0.4345 -0.0613 -0.2464
 4774SOL    HW115763   3.865   1.124   3.456  0.7528  0.5487  0.5726
 4774SOL    HW215764   4.008   1.096   3.414  0.8006 -1.8924  2.1350
 4775SOL     OW15765   0.111   7.380   9.078  0.6184 -0.2964  0.4128
 4775SOL    HW115766   0.110   7.424   8.993  0.1013 -1.9547 -0.4722
 4775SOL    HW215767   0.182   7.317   9.072  1.1719  0.1874  1.5668
 4776SOL     OW15768   6.819   5.204  11.418 -0.3361 -0.0610 -0.0334
 4776SOL    HW115769   6.857   5.292  11.422  2.1291 -0.9791 -1.2046
 4776SOL    HW215770   6.726   5.219  11.406 -0.0363  2.3943  0.1784
 4777SOL     OW15771   4.568   3.570   9.916  0.2579  0.5759  0.4750
 4777SOL    HW115772   4.631   3.633   9.952  0.8371  0.6616 -0.6583
 4777SOL    HW215773   4.606   3.485   9.938  2.7675  0.5047 -3.2376
 4778SOL     OW15774   7.612   3.737   3.035 -0.0556 -0.0727  0.3130
 4778SOL    HW115775   7.708   3.748   3.039  0.0679 -0.9029 -0.2167
 4778SOL    HW215776   7.591   3.689   3.115  0.0254 -0.2585  0.2234
 4779SOL     OW15777   7.309   2.345   2.923  0.1240 -0.4510  0.7947
 4779SOL    HW115778   7.342   2.393   3.000  0.3079 -1.5735  1.4355
 4779SOL    HW215779   7.379   2.285   2.901  0.2861  0.2192 -0.6047
 4780SOL     OW15780   4.693   5.470   4.375  0.2045 -0.0295  0.2321
 4780SOL    HW115781   4.673   5.377   4.363  1.5599 -0.1949 -0.9237
 4780SOL    HW215782   4.788   5.476   4.363  0.2758  1.3784  1.2216
 4781SOL     OW15783   7.303   4.240   0.274  0.5906 -0.4220 -0.6490
 4781SOL    HW115784   7.231   4.291   0.239  1.1503  1.2404  0.5373
 4781SOL    HW215785   7.381   4.292   0.257  1.0517 -0.2246  1.6702
 4782SOL     OW15786   3.924   0.092   9.071 -0.0967 -0.0518 -0.6816
 4782SOL    HW115787   3.903   0.159   9.136 -1.1020 -0.5208 -0.4948
 4782SOL    HW215788   3.844   0.039   9.065 -0.4735  0.6851 -3.1874
 4783SOL     OW15789   4.909   1.497   7.598 -0.2427 -0.1612 -0.2370
 4783SOL    HW115790   4.955   1.413   7.604  1.2881  0.7019  0.8285
 4783SOL    HW215791   4.833   1.487   7.654  0.7327 -0.3832  1.0968
 4784SOL     OW15792   6.461   2.056   3.954  0.0731  0.3465 -0.0230
 4784SOL    HW115793   6.527   2.123   3.971 -0.5100  0.6091  1.3459
 4784SOL    HW215794   6.509   1.987   3.907  1.5078  0.2216  1.5092
 4785SOL     OW15795   6.511   0.394   8.729  0.2088  1.0037 -0.3741
 4785SOL    HW115796   6.528   0.312   8.682  1.4520  0.7519  0.4616
 4785SOL    HW215797   6.598   0.426   8.753 -0.3763  0.9409  2.0251
 4786SOL     OW15798   1.335   3.941   9.647 -0.1490 -0.5664 -0.0379
 4786SOL    HW115799   1.244   3.945   9.677  0.1589 -0.5496  0.9104
 4786SOL    HW215800   1.372   4.027   9.669  0.8572 -1.4897  2.1187
 4787SOL     OW15801   6.708   0.659   9.451 -0.2580 -0.3782 -0.5834
 4787SOL    HW115802   6.697   0.745   9.492 -0.8228 -0.9305  0.4748
 4787SOL    HW215803   6.803   0.651   9.439 -0.2356  0.5878 -1.1645
 4788SOL     OW15804   0.504   3.622   8.912 -0.0430 -0.3894  0.1346
 4788SOL    HW115805   0.426   3.663   8.950 -0.2711 -2.7368  2.5392
 4788SOL    HW215806   0.575   3.646   8.971  0.5681 -0.3539 -0.6014
 4789SOL     OW15807   4.658   3.567  10.374  0.2684 -0.4490  0.0490
 4789SOL    HW115808   4.564   3.560  10.388  0.2213  0.1167  0.0320
 4789SOL    HW215809   4.667   3.609  10.289  0.4550  3.6840  1.8691
 4790SOL     OW15810   4.268   4.211   4.657 -0.1755 -0.6485  0.2138
 4790SOL    HW115811   4.349   4.252   4.688  0.2122 -0.9858 -0.3267
 4790SOL    HW215812   4.227   4.174   4.736 -0.7096  1.0534  0.7710
 4791SOL     OW15813   1.733   4.596   5.370  0.2767  0.1074 -0.0144
 4791SOL    HW115814   1.715   4.690   5.372  0.1475  0.0753  0.4110
 4791SOL    HW215815   1.714   4.566   5.459  2.1414  0.0075  0.3890
 4792SOL     OW15816   2.857   7.978  10.585  0.1391  0.4894 -0.5882
 4792SOL    HW115817   2.901   7.972  10.669  0.9230  0.9702 -0.9451
 4792SOL    HW215818   2.859   7.889  10.550  0.1358  0.3596 -0.2573
 4793SOL     OW15819   3.719   7.509   2.593 -0.1042  0.3816  0.5027
 4793SOL    HW115820   3.722   7.429   2.541  1.2493  0.1392  0.9158
 4793SOL    HW215821   3.626   7.529   2.601 -0.3970 -0.3233 -0.8500
 4794SOL     OW15822   2.944   2.231   7.310 -0.6161  0.3887  0.4265
 4794SOL    HW115823   3.014   2.293   7.331  0.2808 -0.6250  0.5191
 4794SOL    HW215824   2.951   2.218   7.216 -0.7399  0.3697  0.4205
 4795SOL     OW15825   2.243   6.926   0.363 -0.2064 -0.3909  0.1710
 4795SOL    HW115826   2.247   6.855   0.428 -0.2606 -0.4105  0.1534
 4795SOL    HW215827   2.320   6.913   0.309 -0.5746 -0.8578 -0.2610
 4796SOL     OW15828   0.064   4.654   9.156 -0.8578  0.2735  0.2638
 4796SOL    HW115829   0.077   4.737   9.111 -1.4094  0.9983  1.4160
 4796SOL    HW215830   0.013   4.601   9.094  0.6617  0.2493 -1.0532
 4797SOL     OW15831   6.514   7.157   1.888  0.0640 -0.6197 -0.4423
 4797SOL    HW115832   6.442   7.220   1.888  0.0938 -0.4713  2.0041
 4797SOL    HW215833   6.472   7.074   1.864  0.0954  0.2574 -4.0495
 4798SOL     OW15834   0.513   7.305   7.376 -0.4369  0.0792 -0.1849
 4798SOL    HW115835   0.539   7.239   7.311 -1.1161  0.5334 -0.9274
 4798SOL    HW215836   0.586   7.307   7.437  0.3391 -0.1759 -1.0747
 4799SOL     OW15837   3.195   0.638   0.955  0.7389 -0.3011 -0.1679
 4799SOL    HW115838   3.286   0.624   0.930  0.6909  0.4805 -0.8132
 4799SOL    HW215839   3.178   0.730   0.933 -0.1152 -0.3603  0.2229
 4800SOL     OW15840   3.273   1.043  12.143  0.1418  0.0242 -0.6311
 4800SOL    HW115841   3.327   0.968  12.167 -2.0338 -1.2395  0.6918
 4800SOL    HW215842   3.191   1.030  12.191  0.1962  4.0777  0.9012
 4801SOL     OW15843   3.408   0.093   7.021 -0.2734 -0.1066  0.0283
 4801SOL    HW115844   3.480   0.102   6.959  0.7157 -0.8087  1.0309
 4801SOL    HW215845   3.445   0.123   7.104 -2.0500  2.4516  0.0343
 4802SOL     OW15846   7.058   5.601   0.278  0.1978 -0.3725 -0.5029
 4802SOL    HW115847   7.108   5.597   0.197  0.4204  1.3480 -0.5025
 4802SOL    HW215848   7.002   5.679   0.268  0.0583 -0.2561  0.8819
 4803SOL     OW15849   7.183   3.873   3.913  0.8609 -0.3996  0.2982
 4803SOL    HW115850   7.149   3.947   3.863  2.2191  0.5313  0.7213
 4803SOL    HW215851   7.105   3.825   3.940 -0.1017  1.3088  0.6808
 4804SOL     OW15852   6.571   1.072   9.378  0.4368  0.1257  0.0983
 4804SOL    HW115853   6.578   1.020   9.298 -0.1891  1.3842 -0.7970
 4804SOL    HW215854   6.662   1.094   9.399  0.6696 -0.8455  0.1937
 4805SOL     OW15855   6.144   0.114  11.442  0.0670 -0.3288 -0.2420
 4805SOL    HW115856   6.094   0.114  11.360 -0.6900 -1.1745  0.1943
 4805SOL    HW215857   6.185   0.027  11.445  0.1909 -0.2559  0.2058
 4806SOL     OW15858   7.300   2.529   1.898 -0.6286 -0.0909  0.0254
 4806SOL    HW115859   7.262   2.583   1.967  1.6579 -0.9163  2.0497
 4806SOL    HW215860   7.349   2.592   1.844  0.1597  0.2119  1.0504
 4807SOL     OW15861   0.326   2.034  10.193 -0.0772  0.1703  0.6469
 4807SOL    HW115862   0.264   2.082  10.138 -1.8360 -0.2636  2.1401
 4807SOL    HW215863   0.411   2.073  10.174 -0.7373  0.6356 -1.6566
 4808SOL     OW15864   6.516   4.026  10.962 -0.0197 -0.3177 -0.1244
 4808SOL    HW115865   6.447   4.081  10.925 -1.9654 -0.8808  2.3594
 4808SOL    HW215866   6.577   4.088  11.002 -0.2619  0.1408 -0.4561
 4809SOL     OW15867   0.329   7.534   5.973  0.0316  0.3757 -0.0834
 4809SOL    HW115868   0.253   7.546   6.030 -0.8297 -0.7397 -0.9347
 4809SOL    HW215869   0.293   7.535   5.885  0.9843 -0.2933 -0.5004
 4810SOL     OW15870   0.220   0.508   5.098 -0.3974 -0.1853 -0.2582
 4810SOL    HW115871   0.148   0.564   5.128  0.2717  0.5830 -0.0527
 4810SOL    HW215872   0.296   0.565   5.097 -0.1051 -0.5551 -2.1111
 4811SOL     OW15873   0.114   3.114   1.369 -0.0736  0.3327  0.3799
 4811SOL    HW115874   0.048   3.130   1.436 -0.1999  0.3459  0.2537
 4811SOL    HW215875   0.117   3.195   1.318  0.0432  0.3339  0.3886
 4812SOL     OW15876   7.050   2.806   7.830 -0.1040  0.5865 -0.5725
 4812SOL    HW115877   6.997   2.854   7.766 -0.8102  0.0381 -0.4004
 4812SOL    HW215878   6.990   2.784   7.900  0.2504 -0.3978 -0.5627
 4813SOL     OW15879   3.066   2.088   5.476 -0.8423 -0.0104 -0.5606
 4813SOL    HW115880   3.056   2.077   5.382  0.0204  1.6853 -0.8799
 4813SOL    HW215881   3.158   2.069   5.493 -0.5192  1.5977 -0.3879
 4814SOL     OW15882   0.116   6.676   2.832 -0.0233  0.0665 -0.2614
 4814SOL    HW115883   0.201   6.660   2.789 -0.3579 -0.7447 -0.6400
 4814SOL    HW215884   0.099   6.596   2.881 -1.1342 -0.2764 -1.1647
 4815SOL     OW15885   6.460   2.355   1.193 -0.0214  0.1548 -0.0453
 4815SOL    HW115886   6.369   2.374   1.215  0.5325  2.7468  0.2450
 4815SOL    HW215887   6.500   2.440   1.178  2.0323 -0.9843 -1.6094
 4816SOL     OW15888   5.551   6.605  12.249  0.0262  0.2849  0.1820
 4816SOL    HW115889   5.537   6.542  12.320 -1.5480  0.8734  0.4320
 4816SOL    HW215890   5.475   6.664  12.253  0.8295  1.4529 -0.8290
 4817SOL     OW15891   5.623   6.400   4.771 -0.4902 -0.0774 -0.0936
 4817SOL    HW115892   5.558   6.341   4.731 -1.5863  1.5491 -0.7979
 4817SOL    HW215893   5.578   6.435   4.849 -0.3657  0.8295 -0.4200
 4818SOL     OW15894   5.533   6.185   0.219  0.0704  0.1332 -0.6464
 4818SOL    HW115895   5.557   6.123   0.150 -1.5144 -0.2572 -0.8859
 4818SOL    HW215896   5.617   6.213   0.256  0.8488 -2.4777 -0.2118
 4819SOL     OW15897   6.369   3.843   0.594  0.5697 -0.6196 -0.0510
 4819SOL    HW115898   6.333   3.928   0.571 -0.9886 -1.5209 -1.1466
 4819SOL    HW215899   6.376   3.796   0.511  0.5223 -1.8797  0.6303
 4820SOL     OW15900   2.127   5.848  12.385 -0.5104  0.1772 -0.2484
 4820SOL    HW115901   2.044   5.849  12.337 -1.1176 -1.9564  0.6254
 4820SOL    HW215902   2.125   5.766  12.434  1.8125  0.4267  0.3796
 4821SOL     OW15903   7.065   3.619   6.884 -0.1230 -0.7330 -0.2440
 4821SOL    HW115904   7.130   3.552   6.903  1.8972  0.9712 -0.6524
 4821SOL    HW215905   7.023   3.638   6.968  0.4000 -1.3854  0.1702
 4822SOL     OW15906   1.845   3.521   6.172  0.5141  0.2172 -0.3345
 4822SOL    HW115907   1.851   3.613   6.197 -0.9995 -0.0232  1.0269
 4822SOL    HW215908   1.833   3.474   6.254 -0.5314 -1.0113 -1.1545
 4823SOL     OW15909   6.634   2.477   0.818 -0.6633 -0.5545 -0.0434
 4823SOL    HW115910   6.632   2.568   0.848 -0.2180 -0.9665  1.3107
 4823SOL    HW215911   6.602   2.481   0.728 -0.4248  0.9693 -0.0924
 4824SOL     OW15912   6.673   6.574  10.029 -0.1880 -0.0231  0.1487
 4824SOL    HW115913   6.648   6.629  10.103  0.7695 -2.4317  2.3918
 4824SOL    HW215914   6.590   6.549   9.989 -0.8143  0.1514  1.2917
 4825SOL     OW15915   2.773   6.762   1.619 -0.0252 -0.1103  0.2257
 4825SOL    HW115916   2.702   6.823   1.638 -0.4507 -0.4072 -0.3639
 4825SOL    HW215917   2.780   6.708   1.698  0.7702  1.0640  1.0004
 4826SOL     OW15918   1.814   3.542   4.561  0.0810  0.2763 -0.1862
 4826SOL    HW115919   1.835   3.449   4.569  0.3866  0.3531 -0.0690
 4826SOL    HW215920   1.861   3.583   4.634 -0.7142  0.4213  0.2578
 4827SOL     OW15921   1.291   4.650   5.609 -0.4472 -0.2354 -0.7510
 4827SOL    HW115922   1.369   4.595   5.597 -1.0977 -1.4250  0.2919
 4827SOL    HW215923   1.327   4.736   5.633  0.5619 -0.7634 -0.2692
 4828SOL     OW15924   3.224   2.956   5.878  0.0523  0.2317  0.1265
 4828SOL    HW115925   3.148   2.953   5.936  0.7304 -0.0280  1.0374
 4828SOL    HW215926   3.297   2.926   5.933  0.5858 -0.8396 -1.0938
 4829SOL     OW15927   2.764   6.981   1.237 -0.0407  0.1613 -0.2200
 4829SOL    HW115928   2.690   6.998   1.296 -0.5060  1.3782 -1.1311
 4829SOL    HW215929   2.737   6.905   1.186  0.0849 -0.4823  0.6402
 4830SOL     OW15930   0.160   4.099   1.644 -0.4394 -0.8060  0.0248
 4830SOL    HW115931   0.187   4.095   1.736  0.5665  0.9776 -0.1614
 4830SOL    HW215932   0.066   4.115   1.648 -0.2728  0.0993  0.7777
 4831SOL     OW15933   0.561   5.229  10.559  0.5325 -0.0613  0.2234
 4831SOL    HW115934   0.547   5.136  10.543 -0.1650  0.0523  0.1515
 4831SOL    HW215935   0.649   5.234  10.597  0.9094 -0.6589 -0.5504
 4832SOL     OW15936   2.294   4.555   9.770  0.3672  0.5016 -0.0981
 4832SOL    HW115937   2.323   4.476   9.724 -1.4699 -0.8399  0.9040
 4832SOL    HW215938   2.344   4.626   9.730  1.5608 -1.0720 -1.5389
 4833SOL     OW15939   7.839   3.990   9.086 -0.0102  0.1333 -0.8945
 4833SOL    HW115940   7.758   4.015   9.043 -0.0485 -0.2849 -1.0688
 4833SOL    HW215941   7.890   3.944   9.019 -0.1802 -0.7559 -0.4405
 4834SOL     OW15942   3.311   1.749   3.811  0.3641 -0.1729 -0.0456
 4834SOL    HW115943   3.270   1.689   3.874 -0.6740  0.5105 -0.0318
 4834SOL    HW215944   3.267   1.731   3.728  0.5812  0.0552 -0.2122
 4835SOL     OW15945   2.823   0.815   0.242 -0.2180  0.0367  0.3719
 4835SOL    HW115946   2.731   0.836   0.258 -0.4069  0.2395 -0.8764
 4835SOL    HW215947   2.830   0.722   0.262 -0.4716  0.2237  1.3698
 4836SOL     OW15948   5.689   4.952   3.580  0.0360 -0.0342 -0.2205
 4836SOL    HW115949   5.779   4.964   3.608  0.4244  0.9658 -1.7632
 4836SOL    HW215950   5.637   4.959   3.660  1.2896 -0.2841  0.6297
 4837SOL     OW15951   5.465   3.496   1.511 -0.2150 -0.1907 -0.0146
 4837SOL    HW115952   5.490   3.446   1.588 -1.7232  0.5424  0.9986
 4837SOL    HW215953   5.526   3.469   1.443  2.3507  0.4726  1.8962
 4838SOL     OW15954   4.204   7.143   6.275 -0.0193  0.2060  0.1375
 4838SOL    HW115955   4.130   7.143   6.335 -1.4296  2.1848 -1.4677
 4838SOL    HW215956   4.267   7.204   6.313 -0.2126  0.2631  0.3642
 4839SOL     OW15957   5.018   4.900   3.399 -0.0945  0.0917 -0.1488
 4839SOL    HW115958   5.051   4.833   3.459  0.1366  0.4797  0.1602
 4839SOL    HW215959   4.926   4.912   3.425  0.6328  2.0291  1.7955
 4840SOL     OW15960   4.705   0.011   2.190 -0.5479  0.2275 -0.7120
 4840SOL    HW115961   4.646  -0.059   2.218 -0.2842 -0.0249 -0.7853
 4840SOL    HW215962   4.708   0.070   2.265  0.5269 -0.6887 -0.0086
 4841SOL     OW15963   0.918   6.108   3.090  0.0657 -0.1137  0.1658
 4841SOL    HW115964   0.872   6.059   3.022 -1.1121  0.6238  0.4121
 4841SOL    HW215965   0.884   6.071   3.172  1.2863 -0.8223  0.3772
 4842SOL     OW15966   5.137   7.644   6.395 -0.7968  0.0194  0.1726
 4842SOL    HW115967   5.083   7.604   6.464  0.0511  0.2853  1.0181
 4842SOL    HW215968   5.152   7.734   6.427  2.2312 -0.7627  1.2542
 4843SOL     OW15969   0.388   0.345  12.101 -0.1117  0.5268 -0.3297
 4843SOL    HW115970   0.313   0.327  12.044  0.3369 -0.3428 -0.6662
 4843SOL    HW215971   0.464   0.339  12.043  0.3133  0.1322  0.2555
 4844SOL     OW15972   1.734   7.543   8.834  1.4403 -0.0617 -0.1155
 4844SOL    HW115973   1.690   7.595   8.901  0.6679 -2.5429  1.4578
 4844SOL    HW215974   1.804   7.498   8.881  1.3723 -1.2753 -1.1270
 4845SOL     OW15975   2.707   1.522   5.465 -0.4964 -0.3350 -0.0967
 4845SOL    HW115976   2.629   1.473   5.490 -0.9863  0.5415  0.1348
 4845SOL    HW215977   2.674   1.590   5.406  0.2254 -0.5090 -0.7259
 4846SOL     OW15978   0.713   5.567   0.041 -0.0254  0.2344  0.1589
 4846SOL    HW115979   0.654   5.589   0.112  1.3425  2.4816  0.7177
 4846SOL    HW215980   0.794   5.539   0.085  0.5084  0.6968 -0.5093
 4847SOL     OW15981   7.844   7.098  10.656 -0.0313  0.3865 -0.3727
 4847SOL    HW115982   7.927   7.056  10.681  0.3368  1.6866  0.7290
 4847SOL    HW215983   7.871   7.182  10.618 -0.8115  0.3974 -0.9109
 4848SOL     OW15984   3.561   7.042   8.696  0.2148  0.0738  0.0657
 4848SOL    HW115985   3.580   7.107   8.629  0.0080 -1.1733 -1.2569
 4848SOL    HW215986   3.474   7.009   8.674  0.8741 -1.6361 -0.1766
 4849SOL     OW15987   5.987   3.816   0.029 -0.2291  0.1409 -0.6347
 4849SOL    HW115988   6.071   3.862   0.028  0.4012 -0.9687 -0.8519
 4849SOL    HW215989   5.996   3.749  -0.038 -0.9656 -0.5439 -0.0699
 4850SOL     OW15990   6.870   3.169  10.679 -0.2481  0.1306  0.5174
 4850SOL    HW115991   6.898   3.093  10.627  0.9191  0.4776  0.6208
 4850SOL    HW215992   6.797   3.136  10.731  0.9576 -1.2762  1.4038
 4851SOL     OW15993   4.843   2.919   4.621 -0.9271 -0.7102 -0.0758
 4851SOL    HW115994   4.902   2.845   4.609 -0.4240 -0.2945 -0.1590
 4851SOL    HW215995   4.824   2.920   4.715 -1.5938 -1.4426 -0.1885
 4852SOL     OW15996   2.749   3.736   7.788  0.0962 -0.6310  0.5159
 4852SOL    HW115997   2.761   3.670   7.856 -0.2699 -1.8155 -0.5348
 4852SOL    HW215998   2.666   3.713   7.746  0.5903 -0.2895 -0.7094
 4853SOL     OW15999   7.405   7.939   4.555  0.1933  0.3242 -0.4003
 4853SOL    HW116000   7.349   7.864   4.538 -2.6762  2.0454  0.6514
 4853SOL    HW216001   7.402   7.990   4.474  0.4798  0.3110 -0.4221
 4854SOL     OW16002   4.013   5.023   0.165  0.1936 -0.2046 -0.1263
 4854SOL    HW116003   3.938   5.020   0.226  1.2006  0.0943  1.1670
 4854SOL    HW216004   4.060   4.941   0.182  0.7912  0.1413 -0.0950
 4855SOL     OW16005   1.958   0.774   9.737 -0.2092  0.0195  0.4808
 4855SOL    HW116006   1.962   0.822   9.654  2.7415 -1.3001 -0.2575
 4855SOL    HW216007   1.883   0.813   9.783  0.0535  3.0770 -1.3723
 4856SOL     OW16008   3.288   3.271   6.432  0.2686  0.2855 -0.1490
 4856SOL    HW116009   3.329   3.250   6.516  0.7883  2.0154  0.0726
 4856SOL    HW216010   3.195   3.254   6.447  0.5613 -1.2751  0.1326
 4857SOL     OW16011   5.023   4.891  11.538 -0.0436  0.1280 -0.5904
 4857SOL    HW116012   5.067   4.836  11.473  2.4675 -0.5734  1.5466
 4857SOL    HW216013   4.981   4.829  11.597  1.6941  0.4705  1.0874
 4858SOL     OW16014   1.113   3.423  11.515  0.4375 -0.6713  0.1378
 4858SOL    HW116015   1.187   3.484  11.506  1.0245 -1.4498 -0.5735
 4858SOL    HW216016   1.050   3.470  11.569  0.6857  0.7468 -0.7178
 4859SOL     OW16017   2.331   3.350   0.887  0.7142  0.5351 -0.1754
 4859SOL    HW116018   2.387   3.425   0.865  0.6632  0.2133 -1.4982
 4859SOL    HW216019   2.257   3.356   0.826  1.1603 -1.0661 -0.9470
 4860SOL     OW16020   2.108   6.201   1.919 -0.0510 -0.1515 -0.4465
 4860SOL    HW116021   2.101   6.237   2.007 -2.6941 -1.5337 -0.0000
 4860SOL    HW216022   2.139   6.111   1.932  1.9832  0.3826 -1.1915
 4861SOL     OW16023   5.352   0.354   8.664 -0.3362  0.3950 -0.2161
 4861SOL    HW116024   5.276   0.311   8.703 -0.9545  0.9277 -0.7929
 4861SOL    HW216025   5.383   0.415   8.731 -0.4673  0.2314 -0.0057
 4862SOL     OW16026   4.381   3.789   4.047 -0.3448  0.5301  0.3162
 4862SOL    HW116027   4.442   3.814   3.979 -0.6981 -0.2064 -0.2898
 4862SOL    HW216028   4.342   3.871   4.076  0.7358  0.9791  0.5392
 4863SOL     OW16029   7.790   2.495   9.625 -0.4295  0.1525 -0.6141
 4863SOL    HW116030   7.883   2.475   9.612  0.2893  3.3204 -1.2101
 4863SOL    HW216031   7.755   2.502   9.536 -1.6809 -2.3752 -0.4123
 4864SOL     OW16032   2.525   4.329   9.057  0.3952 -0.6352  0.1939
 4864SOL    HW116033   2.600   4.311   9.000  1.2577 -0.1576  1.1450
 4864SOL    HW216034   2.564   4.365   9.137 -0.8595 -0.3045  0.6778
 4865SOL     OW16035   3.202   1.617   9.987 -0.0705  0.3644  0.3962
 4865SOL    HW116036   3.111   1.646   9.985 -0.4452 -0.7271 -1.3768
 4865SOL    HW216037   3.202   1.536   9.935  1.5625 -0.7641  2.0096
 4866SOL     OW16038   3.425   6.714   7.251 -0.2964 -0.1251  1.0598
 4866SOL    HW116039   3.499   6.747   7.300  1.2563  0.2838 -1.3869
 4866SOL    HW216040   3.368   6.790   7.238  0.1786  0.1814  0.7311
 4867SOL     OW16041   5.462   6.840   3.949 -0.2827 -0.2810  0.5688
 4867SOL    HW116042   5.427   6.922   3.915 -0.2562 -0.0241  1.1621
 4867SOL    HW216043   5.537   6.866   4.002  1.0540 -0.8385 -0.9435
 4868SOL     OW16044   2.627   6.003   6.116 -0.1420 -0.0592  0.0584
 4868SOL    HW116045   2.553   5.944   6.132 -1.3104  1.5187  0.7543
 4868SOL    HW216046   2.616   6.030   6.024 -0.0387 -0.3376 -0.0364
 4869SOL     OW16047   7.003   7.652   3.193 -0.3142  0.8820 -0.0008
 4869SOL    HW116048   6.939   7.701   3.141  0.9294  0.0913 -2.4132
 4869SOL    HW216049   7.068   7.718   3.219 -0.3137  1.0819 -0.4996
 4870SOL     OW16050   5.860   6.467   8.223 -0.1315  0.3489 -0.0957
 4870SOL    HW116051   5.795   6.402   8.250  1.4917 -1.2292  0.1815
 4870SOL    HW216052   5.925   6.418   8.174  1.2441  1.7345  0.2542
 4871SOL     OW16053   5.692   5.614  10.336  0.2618 -0.7083  0.3062
 4871SOL    HW116054   5.766   5.651  10.384 -0.9581  0.3380  1.4644
 4871SOL    HW216055   5.630   5.587  10.403 -0.2752 -1.9023 -0.6284
 4872SOL     OW16056   7.545   4.352   2.598 -0.3042 -0.5789  0.8147
 4872SOL    HW116057   7.586   4.354   2.512  1.8855  1.8191  1.7788
 4872SOL    HW216058   7.615   4.326   2.657 -0.0704  3.2659  2.4911
 4873SOL     OW16059   5.549   0.761  11.209 -0.0126  0.6646 -0.3613
 4873SOL    HW116060   5.456   0.768  11.189 -0.3028  1.4828  1.0703
 4873SOL    HW216061   5.593   0.791  11.130 -0.9927  0.8587 -0.8474
 4874SOL     OW16062   5.458   6.913   9.315  0.1495  0.0986 -0.1111
 4874SOL    HW116063   5.426   6.899   9.404 -1.3457  1.2198 -0.4326
 4874SOL    HW216064   5.379   6.909   9.260  0.7710  1.2643 -1.1501
 4875SOL     OW16065   3.443   4.063   3.072 -0.0984  0.0121  0.6075
 4875SOL    HW116066   3.356   4.046   3.108  0.4216 -1.6824  1.1388
 4875SOL    HW216067   3.448   4.159   3.068 -0.6703  0.2994  3.8890
 4876SOL     OW16068   3.289   6.941   8.589  0.4012  0.0750  0.3639
 4876SOL    HW116069   3.358   6.905   8.533  1.0705  1.7384  0.0406
 4876SOL    HW216070   3.239   6.998   8.531 -2.6026 -2.5871  0.0774
 4877SOL     OW16071   6.182   3.517   5.613  0.2322  0.0010 -0.2864
 4877SOL    HW116072   6.109   3.578   5.619 -0.4352 -0.6476 -1.4174
 4877SOL    HW216073   6.258   3.572   5.595 -0.3339  0.5219 -1.1168
 4878SOL     OW16074   6.134   0.728   8.492  0.4926 -0.5431  0.0150
 4878SOL    HW116075   6.076   0.677   8.549 -0.1986  0.4835  0.2688
 4878SOL    HW216076   6.221   0.690   8.505  0.0881 -1.3075  0.5757
 4879SOL     OW16077   2.794   5.448   3.070  0.5484  0.1296 -0.0283
 4879SOL    HW116078   2.755   5.436   3.156  0.8664 -1.8613 -0.1107
 4879SOL    HW216079   2.732   5.407   3.010  0.9822  0.2598 -0.5766
 4880SOL     OW16080   1.882   5.999   0.211 -0.0924  0.5177 -0.1971
 4880SOL    HW116081   1.977   5.999   0.213 -0.0880  0.2090 -0.3612
 4880SOL    HW216082   1.856   6.035   0.296  0.1683  0.8439 -0.2550
 4881SOL     OW16083   7.401   2.663   1.320  0.6028 -0.1720  0.0518
 4881SOL    HW116084   7.435   2.689   1.234  1.1853 -1.9290 -0.2793
 4881SOL    HW216085   7.461   2.596   1.351 -0.8635 -1.1898  0.8222
 4882SOL     OW16086   2.624   7.806   4.373 -0.5651 -0.0425  0.4085
 4882SOL    HW116087   2.596   7.884   4.327  0.3032 -0.5982 -1.1206
 4882SOL    HW216088   2.665   7.751   4.306  0.2447 -1.1299  1.7329
 4883SOL     OW16089   1.977   2.215   3.893  0.0462 -0.1487 -1.0790
 4883SOL    HW116090   2.043   2.155   3.929 -2.4348 -2.3323  0.2187
 4883SOL    HW216091   1.946   2.171   3.813  1.0387  1.5466 -2.4699
 4884SOL     OW16092   4.655   6.805   1.987  0.2479 -0.6617  0.3393
 4884SOL    HW116093   4.715   6.790   1.913 -0.4721 -0.5113 -0.2844
 4884SOL    HW216094   4.632   6.717   2.017 -0.0053 -0.7342 -0.0639
 4885SOL     OW16095   4.028   3.982   0.767  0.5790  0.6030  0.0019
 4885SOL    HW116096   4.064   3.919   0.704 -0.4340  0.6610 -0.6621
 4885SOL    HW216097   4.043   3.941   0.852 -0.4491 -0.7659 -0.4410
 4886SOL     OW16098   2.194   5.917   4.862 -0.4634  0.0892 -0.0761
 4886SOL    HW116099   2.278   5.901   4.905  0.5361  0.5605 -1.7836
 4886SOL    HW216100   2.167   5.830   4.830 -0.5051 -0.0165  0.2393
 4887SOL     OW16101   2.525   6.876   9.489 -0.3058  0.3619 -0.0067
 4887SOL    HW116102   2.543   6.953   9.543  0.2988  1.5135 -1.7848
 4887SOL    HW216103   2.599   6.871   9.429  0.5335 -2.6364  1.1083
 4888SOL     OW16104   7.628   4.257   5.777 -0.0565 -0.6291  0.3129
 4888SOL    HW116105   7.673   4.205   5.843 -0.5526 -0.3650  0.8682
 4888SOL    HW216106   7.690   4.264   5.705  0.4693 -0.9655  0.7297
 4889SOL     OW16107   5.787   6.037   1.700 -0.5992  0.2217  0.2225
 4889SOL    HW116108   5.881   6.023   1.713 -0.9186 -1.8476  0.6976
 4889SOL    HW216109   5.760   5.966   1.643 -1.9940  0.4138  0.6038
 4890SOL     OW16110   1.576   0.153   2.436  0.3099 -0.0955  0.0073
 4890SOL    HW116111   1.601   0.165   2.344  0.9729  1.6819  0.3771
 4890SOL    HW216112   1.511   0.221   2.453 -0.5729 -1.0566  0.6040
 4891SOL     OW16113   0.710   6.829   1.523  0.2945 -0.3119  0.1560
 4891SOL    HW116114   0.616   6.843   1.513 -0.1988 -0.9177  3.0495
 4891SOL    HW216115   0.720   6.734   1.514  0.2495 -0.5150  1.9067
 4892SOL     OW16116   5.645   4.486  10.629 -0.0190  0.3019 -0.4156
 4892SOL    HW116117   5.614   4.549  10.694 -0.4494  0.0663 -0.3877
 4892SOL    HW216118   5.586   4.497  10.554 -1.2649 -1.3022  0.2606
 4893SOL     OW16119   2.091   4.700  12.444  0.7972 -0.4302  0.1625
 4893SOL    HW116120   2.135   4.635  12.499 -2.0641 -0.6434  2.4032
 4893SOL    HW216121   2.023   4.650  12.398 -0.8513  0.7213  1.2375
 4894SOL     OW16122   0.867   6.828   0.020 -0.3401  0.3928 -0.0205
 4894SOL    HW116123   0.820   6.863   0.096  1.2482  2.1565  0.2355
 4894SOL    HW216124   0.894   6.906  -0.029  3.0353 -0.3761  0.3591
 4895SOL     OW16125   2.396   5.753   9.054 -0.1404  0.7255 -0.0036
 4895SOL    HW116126   2.418   5.796   8.972 -1.0056  0.7092 -0.2485
 4895SOL    HW216127   2.414   5.819   9.121  0.2781  0.8395 -0.2185
 4896SOL     OW16128   7.814   3.832   7.905  0.0217  1.1614  0.8505
 4896SOL    HW116129   7.866   3.897   7.858 -0.3537  0.8524 -0.0179
 4896SOL    HW216130   7.879   3.777   7.949  0.4287  0.9854  0.0516
 4897SOL     OW16131   5.810   3.682   0.806  0.1706  0.2571  0.0144
 4897SOL    HW116132   5.823   3.588   0.818  2.5476  0.7197  1.8486
 4897SOL    HW216133   5.873   3.707   0.738 -0.4685  0.5380 -0.4865
 4898SOL     OW16134   6.433   7.682   7.778  0.1667 -0.0438  0.0994
 4898SOL    HW116135   6.395   7.743   7.841  0.6866  1.1921 -0.7377
 4898SOL    HW216136   6.507   7.643   7.825 -0.2402 -0.1157  0.6865
 4899SOL     OW16137   2.903   6.904   8.076 -0.3942 -0.1483 -0.7723
 4899SOL    HW116138   2.920   6.812   8.061 -1.2245 -0.1531 -1.8104
 4899SOL    HW216139   2.824   6.923   8.026 -0.5331  1.0104 -0.1699
 4900SOL     OW16140   1.213   2.365   1.044  0.3624 -0.4572 -0.2005
 4900SOL    HW116141   1.304   2.394   1.049 -0.5543  2.5990  1.4582
 4900SOL    HW216142   1.183   2.366   1.135 -1.0200 -2.6614 -0.5671
 4901SOL     OW16143   5.601   0.829   7.991  0.3914 -0.3434  0.5989
 4901SOL    HW116144   5.506   0.841   7.980  0.1524 -1.5024  1.1489
 4901SOL    HW216145   5.608   0.747   8.042  1.5957  0.9855  2.7166
 4902SOL     OW16146   1.659   1.180   9.064  0.3223 -0.0620  0.1828
 4902SOL    HW116147   1.659   1.212   8.974  2.4770 -0.9614 -0.2147
 4902SOL    HW216148   1.613   1.096   9.059  2.7392 -1.4454 -0.7257
 4903SOL     OW16149   0.353   7.093  10.071  0.1561  0.0136 -0.3314
 4903SOL    HW116150   0.416   7.149  10.116  0.7762 -0.8951 -0.0334
 4903SOL    HW216151   0.393   7.074   9.986 -0.3878  0.6110 -0.7278
 4904SOL     OW16152   0.163   4.760   7.462 -0.4080  0.2105 -0.0114
 4904SOL    HW116153   0.151   4.855   7.460 -0.9610  0.1404 -0.3997
 4904SOL    HW216154   0.255   4.748   7.485 -0.7036  0.8089  1.5987
 4905SOL     OW16155   6.755   0.210  11.311 -0.4487  0.0103  0.0654
 4905SOL    HW116156   6.803   0.275  11.261 -0.1977  2.0382  2.7264
 4905SOL    HW216157   6.668   0.249  11.324 -0.6751 -0.6926  0.7481
 4906SOL     OW16158   4.528   4.666   3.491 -0.1215 -0.0474  0.0683
 4906SOL    HW116159   4.614   4.646   3.527 -0.0277  1.9117  1.0651
 4906SOL    HW216160   4.467   4.618   3.547  0.2844 -1.9038 -0.9870
 4907SOL     OW16161   4.732   7.124   0.861 -0.5725 -0.0880  0.1391
 4907SOL    HW116162   4.733   7.172   0.944 -0.2627 -0.7288  0.5092
 4907SOL    HW216163   4.642   7.093   0.854 -1.1087  1.5308 -0.6909
 4908SOL     OW16164   7.084   6.336  10.961  0.1169  0.2527  0.3153
 4908SOL    HW116165   7.010   6.375  11.009  0.3086  0.0069  0.8198
 4908SOL    HW216166   7.078   6.374  10.873  0.2658  1.3835  0.7792
 4909SOL     OW16167   2.139   7.731  10.181  0.3075  0.3869  0.6428
 4909SOL    HW116168   2.144   7.665  10.111 -0.2932  0.5027  0.4872
 4909SOL    HW216169   2.128   7.814  10.135  1.3187  0.6464  0.8292
 4910SOL     OW16170   7.738   5.244   4.823 -0.0839 -0.1834  0.4378
 4910SOL    HW116171   7.768   5.153   4.825 -1.4485 -0.6495  0.7567
 4910SOL    HW216172   7.697   5.253   4.737 -0.4891 -0.0628  0.6408
 4911SOL     OW16173   3.200   5.314   6.749 -0.6022  0.0909 -0.1373
 4911SOL    HW116174   3.292   5.317   6.722 -0.8840 -0.0310 -1.1509
 4911SOL    HW216175   3.191   5.231   6.796 -0.1611  0.1916  0.1361
 4912SOL     OW16176   4.684   2.808   6.712 -0.1198 -0.1288  0.1704
 4912SOL    HW116177   4.686   2.713   6.697  0.0037 -0.4578  2.0673
 4912SOL    HW216178   4.758   2.824   6.770 -0.8868  0.9334  0.8838
 4913SOL     OW16179   6.391   7.976   5.846  0.0908 -0.1858  0.3928
 4913SOL    HW116180   6.373   7.882   5.850 -2.2222  0.1774 -0.1078
 4913SOL    HW216181   6.359   8.002   5.759  1.2095  0.9912  0.3030
 4914SOL     OW16182   4.594   6.186   6.679 -0.6037 -0.3631 -0.0720
 4914SOL    HW116183   4.501   6.166   6.670 -0.7263  0.5166 -0.7745
 4914SOL    HW216184   4.599   6.281   6.673  0.2107 -0.3053  1.1961
 4915SOL     OW16185   2.441   4.179   5.060  0.6218  0.4626 -0.0065
 4915SOL    HW116186   2.530   4.144   5.058  0.4483 -0.0332  0.5057
 4915SOL    HW216187   2.441   4.249   4.995  0.9675 -0.5202 -1.0902
 4916SOL     OW16188   2.472   5.966   0.010  0.1305  0.8474  0.2314
 4916SOL    HW116189   2.464   6.016  -0.072 -0.2584 -0.9662 -0.8770
 4916SOL    HW216190   2.565   5.945   0.016 -0.1882 -1.3095 -1.2283
 4917SOL     OW16191   2.305   3.768   8.827  0.3524 -0.0904  0.0126
 4917SOL    HW116192   2.362   3.782   8.902 -0.0181  1.5284  0.0316
 4917SOL    HW216193   2.281   3.675   8.832  1.6670 -0.4026  0.9184
 4918SOL     OW16194   1.361   5.097   7.276  0.3070  0.3944 -0.3336
 4918SOL    HW116195   1.364   5.058   7.189 -1.7871 -1.4674  0.3367
 4918SOL    HW216196   1.291   5.162   7.271  1.6287  1.8573 -0.5680
 4919SOL     OW16197   0.289   2.691   5.765 -0.2564  0.2168  0.1051
 4919SOL    HW116198   0.230   2.735   5.704 -0.4877 -1.7059 -1.1138
 4919SOL    HW216199   0.253   2.604   5.776  1.3859 -0.4326  0.7287
 4920SOL     OW16200   7.636   6.566  10.457 -0.2545 -0.1441 -0.4358
 4920SOL    HW116201   7.694   6.615  10.515 -1.0022 -0.0008  0.1890
 4920SOL    HW216202   7.680   6.481  10.447  0.1553  0.0252 -0.1209
 4921SOL     OW16203   0.055   4.992   0.744 -0.4212 -0.7757 -0.0235
 4921SOL    HW116204  -0.023   5.049   0.746 -0.8106 -1.3037 -0.0479
 4921SOL    HW216205   0.038   4.931   0.673 -0.5979 -1.7546  0.8365
 4922SOL     OW16206   0.101   5.147  12.008 -0.1290 -0.6009 -0.0873
 4922SOL    HW116207   0.069   5.223  11.959  0.1603  0.3290  1.1243
 4922SOL    HW216208   0.076   5.164  12.098  1.5030 -1.1022  0.4866
 4923SOL     OW16209   1.276   6.336  11.750 -0.0855  0.2130  0.1416
 4923SOL    HW116210   1.183   6.317  11.766  0.4674 -1.1401  2.1374
 4923SOL    HW216211   1.308   6.262  11.699  0.0083  0.4929 -0.2162
 4924SOL     OW16212   5.066   1.738   6.650 -0.0283 -0.5011  0.5270
 4924SOL    HW116213   5.047   1.645   6.636  0.5325 -0.5630  0.1229
 4924SOL    HW216214   5.103   1.767   6.566  0.5398 -0.1087  0.9112
 4925SOL     OW16215   4.884   7.935  11.391 -0.0036 -0.3435  0.7060
 4925SOL    HW116216   4.794   7.912  11.369  0.3652 -0.7751 -0.4151
 4925SOL    HW216217   4.885   8.030  11.394 -0.5299 -0.3402  0.8777
 4926SOL     OW16218   2.653   0.864   7.350  0.3795 -0.5789  0.4643
 4926SOL    HW116219   2.745   0.886   7.336  0.7098 -2.4696 -0.7185
 4926SOL    HW216220   2.641   0.869   7.445  1.6962 -0.3247  0.6346
 4927SOL     OW16221   2.483   0.536   0.314 -0.8331 -0.0283 -0.2751
 4927SOL    HW116222   2.464   0.494   0.398 -0.9363  1.4727  0.4946
 4927SOL    HW216223   2.403   0.526   0.263 -0.1744 -2.5562 -0.9579
 4928SOL     OW16224   0.300   3.595  10.874  0.0273 -0.0783  0.2392
 4928SOL    HW116225   0.379   3.555  10.911  0.0228  0.3882  0.7668
 4928SOL    HW216226   0.310   3.689  10.889 -0.7825 -0.0400  0.6231
 4929SOL     OW16227   0.690   5.676   1.267  0.3096  0.1082  0.1627
 4929SOL    HW116228   0.627   5.605   1.279 -1.5606  1.2231 -2.1677
 4929SOL    HW216229   0.637   5.750   1.239  2.4437  1.7861  0.3467
 4930SOL     OW16230   5.907   1.039   2.247 -0.3875  0.1977  0.0613
 4930SOL    HW116231   5.929   1.014   2.337  3.3331  0.1966 -0.6837
 4930SOL    HW216232   5.865   0.962   2.210 -2.2168  0.2800  1.7744
 4931SOL     OW16233   2.771   2.897   6.145  0.1047  0.7096 -0.2831
 4931SOL    HW116234   2.731   2.826   6.196 -2.0335  2.5155  0.7120
 4931SOL    HW216235   2.700   2.959   6.130  2.1276  3.2722  0.0001
 4932SOL     OW16236   2.923   7.419   2.970  0.2899 -0.6412  0.1636
 4932SOL    HW116237   2.881   7.392   2.888  1.0425 -0.3491 -0.3336
 4932SOL    HW216238   2.860   7.397   3.038 -0.7442 -0.0264 -0.5776
 4933SOL     OW16239   0.655   5.759   0.296  0.4155  0.1594 -0.1584
 4933SOL    HW116240   0.701   5.765   0.380 -1.8918  0.5006  1.1875
 4933SOL    HW216241   0.602   5.680   0.303 -1.7511  1.5359 -0.1736
 4934SOL     OW16242   3.563   0.347   9.835  0.4675  0.4788 -0.0234
 4934SOL    HW116243   3.578   0.313   9.923  2.7850  0.5759 -0.3210
 4934SOL    HW216244   3.472   0.323   9.815  0.4976 -1.2671  1.6335
 4935SOL     OW16245   7.348   3.661  10.591  0.1717 -0.5757 -0.1221
 4935SOL    HW116246   7.330   3.571  10.566 -1.3107 -0.0590 -1.0113
 4935SOL    HW216247   7.360   3.658  10.686 -0.4511 -1.6139 -0.0674
 4936SOL     OW16248   4.959   0.941   2.823  0.0511 -0.3613  0.2322
 4936SOL    HW116249   4.936   0.850   2.841 -2.4736  0.0917 -0.2702
 4936SOL    HW216250   4.901   0.993   2.879  2.0183  0.9924  1.1520
 4937SOL     OW16251   5.231   3.774   2.406  0.1383  0.1334  0.0661
 4937SOL    HW116252   5.146   3.816   2.421  0.0622  0.4254 -1.0987
 4937SOL    HW216253   5.217   3.719   2.329  0.5192 -1.2456  0.9402
 4938SOL     OW16254   3.861   7.039   3.093  0.3880  0.6681  0.1146
 4938SOL    HW116255   3.941   6.990   3.111  0.4269  1.2914  1.7193
 4938SOL    HW216256   3.891   7.118   3.049  0.5170  0.3026 -0.4733
 4939SOL     OW16257   5.462   7.410   2.650  0.0346 -0.4174 -0.2705
 4939SOL    HW116258   5.495   7.482   2.596  0.1006  0.2446  0.6267
 4939SOL    HW216259   5.375   7.393   2.615  0.1563 -0.1339 -0.7228
 4940SOL     OW16260   4.541   7.571  11.010 -0.1088 -0.0216  0.3150
 4940SOL    HW116261   4.500   7.653  11.035  0.3846  0.2662  0.1838
 4940SOL    HW216262   4.473   7.524  10.960 -1.0099 -0.4876  1.9228
 4941SOL     OW16263   3.482   6.395   8.103  0.3938  0.2861 -0.3904
 4941SOL    HW116264   3.454   6.312   8.065 -0.4217  0.3223  0.1059
 4941SOL    HW216265   3.564   6.374   8.148 -0.7078 -0.7048  1.2816
 4942SOL     OW16266   6.639   7.732   5.565  0.0574 -0.4711 -0.6296
 4942SOL    HW116267   6.553   7.753   5.602  0.0400 -1.4598 -0.0591
 4942SOL    HW216268   6.621   7.711   5.473 -0.3581 -0.8977 -0.4578
 4943SOL     OW16269   6.067   1.753   6.079  0.3632 -0.6056  0.2706
 4943SOL    HW116270   6.155   1.781   6.107 -0.2588  0.9389  0.8109
 4943SOL    HW216271   6.008   1.815   6.123 -0.9493 -1.1204 -0.7174
 4944SOL     OW16272   3.580   1.093   3.537  0.2020 -0.7022 -0.6882
 4944SOL    HW116273   3.610   1.175   3.577 -0.9230 -0.5162 -0.1881
 4944SOL    HW216274   3.618   1.094   3.449 -0.0273  0.4994 -0.7863
 4945SOL     OW16275   2.138   7.324   7.668 -0.6481  0.0789 -0.0066
 4945SOL    HW116276   2.155   7.379   7.591 -1.0236  0.6264  0.2953
 4945SOL    HW216277   2.043   7.326   7.677 -0.6031  0.0074  0.4650
 4946SOL     OW16278   4.171   3.539   9.087 -0.0261  0.3645  0.6635
 4946SOL    HW116279   4.122   3.616   9.059 -1.9882 -1.6616 -1.8836
 4946SOL    HW216280   4.198   3.497   9.006  1.0131 -1.6294  1.9752
 4947SOL     OW16281   2.221   0.782   3.743  0.1294  0.1538 -0.3499
 4947SOL    HW116282   2.191   0.701   3.702 -0.1337  0.1547 -0.1630
 4947SOL    HW216283   2.168   0.851   3.701  0.9166  0.3236 -1.0951
 4948SOL     OW16284   4.072   4.579   2.378  0.4667 -0.0902 -0.1544
 4948SOL    HW116285   4.152   4.574   2.430 -0.2539 -0.7892  0.9484
 4948SOL    HW216286   4.007   4.616   2.437 -0.3282 -0.7060 -0.6165
 4949SOL     OW16287   1.635   7.733   6.833  0.4954 -0.0648  0.1783
 4949SOL    HW116288   1.689   7.811   6.822  0.9397 -0.4384 -0.4257
 4949SOL    HW216289   1.584   7.749   6.912  0.8905  0.6524  0.2958
 4950SOL     OW16290   0.483   2.186   6.458  0.7211 -0.4224  0.3005
 4950SOL    HW116291   0.504   2.278   6.478  0.5819 -0.8170  2.4701
 4950SOL    HW216292   0.388   2.185   6.450  0.4224 -0.7664  2.9492
 4951SOL     OW16293   2.726   1.791   9.189 -0.2040  0.2244  0.0369
 4951SOL    HW116294   2.742   1.737   9.111 -0.8574 -0.1487  0.1568
 4951SOL    HW216295   2.800   1.771   9.247  0.8997  1.3459 -0.9215
 4952SOL     OW16296   6.758   1.333   0.755 -0.3236  0.3971 -0.0863
 4952SOL    HW116297   6.829   1.284   0.795 -1.5509 -1.0446  0.4478
 4952SOL    HW216298   6.736   1.284   0.676 -1.5742  0.0431  0.4530
 4953SOL     OW16299   1.769   2.244   4.864 -0.0401 -0.1075  0.0904
 4953SOL    HW116300   1.810   2.254   4.778  1.2994  4.0482  0.9689
 4953SOL    HW216301   1.679   2.218   4.845  0.8500 -1.7381 -2.3542
 4954SOL     OW16302   2.272   0.229   6.855 -0.0559 -0.1214 -0.0921
 4954SOL    HW116303   2.199   0.216   6.794 -0.5013  2.4521 -0.2010
 4954SOL    HW216304   2.230   0.239   6.941  0.1773  0.9391 -0.0895
 4955SOL     OW16305   3.176   4.351   6.965  0.1688  0.0097 -0.0494
 4955SOL    HW116306   3.122   4.346   6.887 -0.5562 -0.4035  0.4621
 4955SOL    HW216307   3.263   4.375   6.933 -0.4800  1.4918 -0.8117
 4956SOL     OW16308   6.409   7.361   1.456 -0.4151  0.4696  0.5496
 4956SOL    HW116309   6.415   7.435   1.518 -0.1071  0.7567  0.1823
 4956SOL    HW216310   6.391   7.285   1.512  0.7449  0.5756  1.0998
 4957SOL     OW16311   5.491   4.529   3.607 -0.0712  0.6555  0.0697
 4957SOL    HW116312   5.403   4.536   3.642  0.3555  1.9681  0.9658
 4957SOL    HW216313   5.546   4.578   3.669  1.0498  1.1160 -1.2269
 4958SOL     OW16314   4.890   1.367   8.782 -0.6230 -0.6800  0.4981
 4958SOL    HW116315   4.945   1.382   8.705  0.1465  0.7740  1.2847
 4958SOL    HW216316   4.817   1.314   8.750 -0.3537 -0.0522 -1.2409
 4959SOL     OW16317   6.173   0.806   7.481  0.0450 -0.0598  0.1121
 4959SOL    HW116318   6.087   0.846   7.467 -1.4470 -2.5078  1.6603
 4959SOL    HW216319   6.184   0.746   7.407 -0.2869 -0.8325  0.6759
 4960SOL     OW16320   6.891   3.018   7.722 -0.1248  0.4548  0.1244
 4960SOL    HW116321   6.857   3.057   7.802  1.4532  0.2422  0.9366
 4960SOL    HW216322   6.892   3.089   7.658  1.4972  1.4489  1.2078
 4961SOL     OW16323   1.995   1.402  12.172  0.2831 -0.0376 -0.1986
 4961SOL    HW116324   1.977   1.320  12.127  0.4832 -0.8843  1.1825
 4961SOL    HW216325   2.091   1.403  12.182  0.2873  0.3948 -0.2532
 4962SOL     OW16326   3.156   1.733  10.657  0.0359 -0.4027 -0.4217
 4962SOL    HW116327   3.138   1.786  10.734 -0.6529 -0.8903 -0.2339
 4962SOL    HW216328   3.218   1.785  10.606  2.7366 -1.2459  1.7394
 4963SOL     OW16329   4.694   2.904   6.449  0.0978  0.7270 -0.6031
 4963SOL    HW116330   4.652   2.990   6.445 -1.4948  0.2608  2.6376
 4963SOL    HW216331   4.674   2.872   6.537  0.6870 -2.9450 -1.6392
 4964SOL     OW16332   0.153   2.105   3.584  0.4917  0.2492  0.0510
 4964SOL    HW116333   0.109   2.115   3.668  0.5155  0.8615 -0.0062
 4964SOL    HW216334   0.244   2.090   3.606  0.3854 -0.2669  0.1495
 4965SOL     OW16335   1.254   0.066   9.558  0.3238 -0.0241  0.2139
 4965SOL    HW116336   1.172   0.115   9.561 -0.1949 -0.8797  0.4288
 4965SOL    HW216337   1.301   0.091   9.637  0.1713  0.2897  0.2064
 4966SOL     OW16338   2.971   4.053  11.935  0.5202 -0.5224  0.0233
 4966SOL    HW116339   3.033   4.089  11.872 -1.5420  2.4295 -0.5711
 4966SOL    HW216340   2.918   3.991  11.884 -0.5199  1.1414 -1.0398
 4967SOL     OW16341   1.185   6.426  10.030 -0.1516 -0.2217 -0.1856
 4967SOL    HW116342   1.278   6.439  10.047  0.1635 -1.5145 -0.7813
 4967SOL    HW216343   1.148   6.514  10.030  0.9704  0.2742  0.5860
 4968SOL     OW16344   0.768   2.226   4.944  0.5345  0.7206 -0.0105
 4968SOL    HW116345   0.824   2.169   4.892  0.4673  1.1480 -0.5697
 4968SOL    HW216346   0.695   2.247   4.885 -0.3810 -0.0771  0.8070
 4969SOL     OW16347   1.686   6.166   9.465  0.0835  0.2579 -0.1460
 4969SOL    HW116348   1.673   6.096   9.529  1.5591 -0.3209 -0.4523
 4969SOL    HW216349   1.777   6.157   9.437 -0.0186  1.6168 -1.0143
 4970SOL     OW16350   4.728   2.246   6.545 -0.2843  0.0448  0.1531
 4970SOL    HW116351   4.697   2.158   6.522  0.2753  0.0067 -0.4622
 4970SOL    HW216352   4.649   2.291   6.574 -0.8444 -0.2193 -0.8951
 4971SOL     OW16353   7.282   7.014   0.872 -0.2300  0.1253  0.0776
 4971SOL    HW116354   7.224   6.944   0.844 -0.6679  0.6315 -0.3216
 4971SOL    HW216355   7.331   6.978   0.946  0.6126 -1.0777 -1.0302
 4972SOL     OW16356   7.632   2.092   3.990 -0.3487 -0.1339  0.4381
 4972SOL    HW116357   7.582   2.036   3.932 -0.4626 -1.3936  1.7039
 4972SOL    HW216358   7.567   2.137   4.043 -0.1991 -0.3421  0.8009
 4973SOL     OW16359   7.414   2.131  12.236  0.2181  0.8677 -0.1823
 4973SOL    HW116360   7.487   2.135  12.175  2.0171  1.3497  1.8825
 4973SOL    HW216361   7.347   2.186  12.197  0.6283 -0.1549 -2.4855
 4974SOL     OW16362   5.379   6.700   6.573  0.1352  0.5375  0.4847
 4974SOL    HW116363   5.421   6.688   6.658  1.5102  2.0168  0.0523
 4974SOL    HW216364   5.452   6.714   6.512 -0.7804 -1.0681 -1.0734
 4975SOL     OW16365   5.572   0.554   4.668  0.1210 -0.4029  0.1841
 4975SOL    HW116366   5.595   0.533   4.758 -2.9693 -0.2324  1.1055
 4975SOL    HW216367   5.477   0.544   4.664  0.0627  0.3482 -2.8732
 4976SOL     OW16368   6.481   1.824   7.180  0.0308  0.6986 -0.7237
 4976SOL    HW116369   6.497   1.782   7.096  0.6291  1.3185 -0.9328
 4976SOL    HW216370   6.405   1.880   7.165 -0.9312 -0.4915 -0.3718
 4977SOL     OW16371   0.780   0.557   5.488  0.6611 -0.0143  0.2383
 4977SOL    HW116372   0.838   0.534   5.560 -0.3651 -0.8869  0.8158
 4977SOL    HW216373   0.693   0.563   5.528  0.4547  2.3350 -0.3904
 4978SOL     OW16374   4.063   2.259  10.670 -0.0007 -0.5622  0.0984
 4978SOL    HW116375   4.151   2.267  10.706  1.7567 -2.9200 -3.1012
 4978SOL    HW216376   4.043   2.165  10.675 -2.2078 -0.1295  0.4372
 4979SOL     OW16377   3.163   7.910   3.375  0.3659 -0.5640  0.0220
 4979SOL    HW116378   3.074   7.923   3.342  0.3861  0.6157  0.4047
 4979SOL    HW216379   3.164   7.953   3.461  0.8224 -2.0561  0.8186
 4980SOL     OW16380   6.429   2.916   1.439 -0.5354 -0.0945  0.1473
 4980SOL    HW116381   6.501   2.970   1.470 -0.4567 -0.2065  0.1593
 4980SOL    HW216382   6.351   2.953   1.482 -0.6024  0.5354 -0.4935
 4981SOL     OW16383   1.863   4.966   4.311 -0.1126 -0.9427 -0.3668
 4981SOL    HW116384   1.907   4.912   4.377 -1.1167 -0.7652  0.4841
 4981SOL    HW216385   1.930   5.029   4.284  0.0962 -0.4375  1.1694
 4982SOL     OW16386   5.997   6.939   2.849  0.2632 -0.4928 -0.4578
 4982SOL    HW116387   5.972   7.010   2.908  4.8822  0.3724  0.9145
 4982SOL    HW216388   5.962   6.965   2.764 -1.7749  1.1797  0.7760
 4983SOL     OW16389   4.778   3.816   4.815  0.0547  0.0908  0.2173
 4983SOL    HW116390   4.716   3.755   4.855  2.2488 -1.4278  1.5314
 4983SOL    HW216391   4.863   3.773   4.824  1.3204  2.0161 -1.6086
 4984SOL     OW16392   7.948   5.478   9.266  0.0283 -0.1572 -0.3847
 4984SOL    HW116393   8.032   5.432   9.265  0.3078  0.2901 -2.4315
 4984SOL    HW216394   7.941   5.518   9.178 -2.1214  0.1783 -0.1238
 4985SOL     OW16395   7.854   2.052   8.247  0.3189 -0.1844  0.2968
 4985SOL    HW116396   7.948   2.066   8.249  0.3878  0.0975 -2.0466
 4985SOL    HW216397   7.838   2.007   8.164 -1.8703  2.3671 -0.8365
 4986SOL     OW16398   4.445   4.065   2.317  0.4655 -0.6790 -0.1957
 4986SOL    HW116399   4.472   3.988   2.368 -0.3340 -2.0737 -1.7970
 4986SOL    HW216400   4.509   4.070   2.247  1.0389  0.7028  0.3961
 4987SOL     OW16401   2.774   2.327   5.320  0.3465  0.4060  0.5695
 4987SOL    HW116402   2.755   2.235   5.336 -0.6728  0.7126  1.2210
 4987SOL    HW216403   2.781   2.366   5.407 -4.5698  1.9557  0.6271
 4988SOL     OW16404   3.779   7.979   5.942  0.0015 -0.2661 -0.0048
 4988SOL    HW116405   3.754   8.017   6.026  0.6606  1.4693 -0.5489
 4988SOL    HW216406   3.696   7.948   5.904 -1.0080  2.7002 -0.4966
 4989SOL     OW16407   3.085   1.943   3.636 -0.5717  0.5023  0.0351
 4989SOL    HW116408   3.152   1.937   3.568  0.3554 -1.1867  1.0265
 4989SOL    HW216409   3.072   2.037   3.648 -0.3064  0.8352 -2.0052
 4990SOL     OW16410   0.869   2.272   3.632 -0.0505 -0.4667  0.5954
 4990SOL    HW116411   0.826   2.326   3.699  2.3132  0.5299  1.4104
 4990SOL    HW216412   0.882   2.331   3.558  0.3842 -0.5921  0.5686
 4991SOL     OW16413   6.937   5.179   9.239  0.5644  0.0757  0.6013
 4991SOL    HW116414   7.008   5.169   9.175 -0.3355  0.7248 -0.5494
 4991SOL    HW216415   6.934   5.095   9.285  0.8832 -0.6206 -0.6008
 4992SOL     OW16416   6.359   0.749   0.031 -0.4615 -0.3618 -0.3936
 4992SOL    HW116417   6.292   0.802  -0.013  0.6298 -0.0071 -1.7075
 4992SOL    HW216418   6.337   0.659   0.008 -0.5229 -0.2501 -0.7848
 4993SOL     OW16419   1.599   1.242  10.129 -0.2337  0.3195 -0.3693
 4993SOL    HW116420   1.648   1.269  10.207 -0.9034  0.1809  0.1138
 4993SOL    HW216421   1.619   1.308  10.063 -0.4192  0.9826  0.2265
 4994SOL     OW16422   5.458   3.081  11.928  0.1092 -0.2947 -0.5451
 4994SOL    HW116423   5.465   3.049  11.838 -0.6434 -0.2599 -0.6179
 4994SOL    HW216424   5.368   3.062  11.953  0.3033 -0.2722  0.1932
 4995SOL     OW16425   1.663   3.304   3.310 -0.1047  0.4363  0.0805
 4995SOL    HW116426   1.758   3.302   3.305 -0.0320  1.9399  0.3512
 4995SOL    HW216427   1.642   3.244   3.382  0.5386 -0.8377 -0.7701
 4996SOL     OW16428   7.257   5.486   2.285  0.4892 -0.1610 -0.8083
 4996SOL    HW116429   7.325   5.479   2.352  0.1208 -0.3383 -0.4497
 4996SOL    HW216430   7.266   5.575   2.251 -0.3289  0.4909  0.5774
 4997SOL     OW16431   2.079   0.107   3.769  0.3994 -0.3090 -0.1050
 4997SOL    HW116432   2.128   0.077   3.692 -1.2928  0.2728 -1.4726
 4997SOL    HW216433   2.103   0.199   3.778  0.5595 -0.3646  0.0543
 4998SOL     OW16434   3.104   7.828   8.841  0.0910  0.0015  0.4587
 4998SOL    HW116435   3.072   7.895   8.781 -1.2323 -0.7019  0.3423
 4998SOL    HW216436   3.199   7.827   8.828 -0.1332  0.0610 -1.4250
 4999SOL     OW16437   2.429   1.030   5.930  0.2238  0.5698 -0.3146
 4999SOL    HW116438   2.396   0.940   5.923 -1.7519  1.3218 -1.1236
 4999SOL    HW216439   2.500   1.023   5.994 -0.7384 -1.3442  0.6565
 5000SOL     OW16440   2.753   0.256   4.110  0.2346 -0.0978 -0.3603
 5000SOL    HW116441   2.766   0.164   4.131  1.7985  0.2076  0.1981
 5000SOL    HW216442   2.840   0.296   4.123  0.3049  0.9419 -3.2925
 5001SOL     OW16443   5.935   2.875  11.707  0.2368 -0.5354 -0.4046
 5001SOL    HW116444   5.961   2.950  11.654  0.0074  0.7899  1.2912
 5001SOL    HW216445   6.017   2.829  11.725  0.8686  1.0112  1.0051
 5002SOL     OW16446   6.359   7.327   7.844  0.2627  0.6583  0.3740
 5002SOL    HW116447   6.292   7.378   7.798 -0.0858 -0.9416 -1.0080
 5002SOL    HW216448   6.434   7.326   7.785  1.0078  1.2305  1.2832
 5003SOL     OW16449   3.098   0.912   7.950  0.2364 -0.2375  0.3962
 5003SOL    HW116450   3.025   0.941   7.894 -0.3279  1.3951  1.8602
 5003SOL    HW216451   3.063   0.919   8.039  1.1037 -2.7512  1.0076
 5004SOL     OW16452   4.819   5.738  12.087  0.5743 -0.5752 -0.0050
 5004SOL    HW116453   4.908   5.755  12.055  0.1847  0.1216 -0.7886
 5004SOL    HW216454   4.797   5.816  12.138 -0.0005 -0.1961 -0.7985
 5005SOL     OW16455   2.445   3.525  11.825 -0.0141 -0.3020 -0.2128
 5005SOL    HW116456   2.424   3.594  11.888  2.0464 -0.4802  0.7529
 5005SOL    HW216457   2.524   3.557  11.781 -0.4443 -0.9692 -1.5165
 5006SOL     OW16458   7.945   6.161  11.740 -0.1294 -0.5860 -0.6202
 5006SOL    HW116459   7.917   6.252  11.728  0.8048 -0.0191  1.2135
 5006SOL    HW216460   8.038   6.162  11.718  0.1388 -0.8479  0.4519
 5007SOL     OW16461   1.449   3.544  11.943  0.6261 -0.1407  0.2069
 5007SOL    HW116462   1.387   3.479  11.910  1.6369 -1.4007  0.6946
 5007SOL    HW216463   1.517   3.549  11.876 -0.3513  1.8478 -0.7252
 5008SOL     OW16464   3.823   3.513  10.762 -0.0731 -0.2565 -0.0560
 5008SOL    HW116465   3.813   3.567  10.684 -1.5262 -0.1982  0.1428
 5008SOL    HW216466   3.798   3.425  10.734  2.4553 -0.9299 -0.4244
 5009SOL     OW16467   7.879   6.035   0.122 -0.1365 -0.3024  0.1205
 5009SOL    HW116468   7.911   5.945   0.124 -1.1736 -0.6954  2.3321
 5009SOL    HW216469   7.930   6.080   0.190  1.9576  1.4398 -2.4371
 5010SOL     OW16470   5.757   7.587  11.788 -0.2771  0.0901 -0.5270
 5010SOL    HW116471   5.744   7.597  11.883 -0.0484 -2.3002 -0.1743
 5010SOL    HW216472   5.682   7.536  11.759  1.3533 -2.2627 -0.9158
 5011SOL     OW16473   5.733   5.622  10.719  0.2064  0.0163  0.3707
 5011SOL    HW116474   5.648   5.608  10.761  0.5884  2.1273  2.0357
 5011SOL    HW216475   5.794   5.635  10.792  1.6339  0.2350 -0.8113
 5012SOL     OW16476   4.825   4.712   8.373 -0.2048 -0.7129  0.5102
 5012SOL    HW116477   4.808   4.796   8.415 -0.6545 -1.5733  2.1146
 5012SOL    HW216478   4.892   4.731   8.307 -0.7884  1.0187  0.3828
 5013SOL     OW16479   1.605   1.804   2.446 -0.5975  0.4618 -0.5610
 5013SOL    HW116480   1.607   1.829   2.538  0.1677  1.1874 -0.7643
 5013SOL    HW216481   1.696   1.813   2.417 -0.5952 -0.9375 -1.0860
 5014SOL     OW16482   5.441   0.291  11.237  0.1942 -0.1704 -0.3995
 5014SOL    HW116483   5.403   0.204  11.245 -0.2303 -0.0810 -1.3392
 5014SOL    HW216484   5.367   0.348  11.215  0.4007  0.5045  0.5895
 5015SOL     OW16485   6.276   5.019   3.209  0.2662 -0.2369  0.1026
 5015SOL    HW116486   6.228   4.980   3.137 -1.7837  2.0913  0.0562
 5015SOL    HW216487   6.226   4.994   3.287 -0.8520  1.7468  0.1043
 5016SOL     OW16488   3.946   6.245   6.057  0.1120  0.2945  0.0293
 5016SOL    HW116489   3.998   6.266   6.135  1.3677  0.5563 -0.8609
 5016SOL    HW216490   3.972   6.156   6.034  0.4870  0.5860 -0.6749
 5017SOL     OW16491   2.493   0.323   2.503  0.4668  0.7144  0.1599
 5017SOL    HW116492   2.563   0.378   2.467  0.2068  1.3070  0.5476
 5017SOL    HW216493   2.412   0.362   2.470  0.2925  0.3349  0.1317
 5018SOL     OW16494   3.126   3.391   5.664  0.4337  0.2232  0.6811
 5018SOL    HW116495   3.055   3.413   5.725  0.6872  1.1935  0.6377
 5018SOL    HW216496   3.139   3.297   5.675 -0.6831  0.0790  0.8818
 5019SOL     OW16497   4.117   1.618   7.634 -0.0615 -1.0998 -0.1405
 5019SOL    HW116498   4.174   1.541   7.628 -1.0016 -1.8217 -0.0512
 5019SOL    HW216499   4.177   1.691   7.647  0.9800 -1.5886 -1.8708
 5020SOL     OW16500   7.631   1.226   7.528 -0.1032 -0.2101 -0.4199
 5020SOL    HW116501   7.657   1.262   7.613 -0.5734  0.2466 -0.4630
 5020SOL    HW216502   7.602   1.137   7.548 -0.1520 -0.1267 -0.1122
 5021SOL     OW16503   6.562   2.742   6.541  0.5745 -0.1360 -0.2755
 5021SOL    HW116504   6.475   2.738   6.502  0.3603  1.4858 -0.0209
 5021SOL    HW216505   6.593   2.831   6.522  2.1759 -0.6687 -0.3452
 5022SOL     OW16506   3.253   4.065   7.047  0.4476 -0.2260 -0.1920
 5022SOL    HW116507   3.329   4.075   6.990  0.8342  1.1811  0.5091
 5022SOL    HW216508   3.179   4.091   6.993  0.5990 -0.5353 -0.5488
 5023SOL     OW16509   0.911   1.240  10.660  0.4303 -0.0252 -0.8843
 5023SOL    HW116510   0.832   1.188  10.644  0.8877 -0.8502 -0.5414
 5023SOL    HW216511   0.909   1.257  10.754  1.6473 -1.7481 -0.5010
 5024SOL     OW16512   2.055   6.964   5.852  0.4747 -0.3065 -0.6516
 5024SOL    HW116513   2.045   6.999   5.763 -0.0287 -0.5704 -0.7026
 5024SOL    HW216514   2.080   6.873   5.839 -2.0271 -1.0902 -0.5796
 5025SOL     OW16515   0.012   6.243   1.623  0.4397  0.6439  0.1852
 5025SOL    HW116516  -0.010   6.219   1.713  0.7857  0.5389  0.2423
 5025SOL    HW216517   0.092   6.194   1.604 -0.9021 -1.1851 -0.9850
 5026SOL     OW16518   7.335   5.289   0.460  0.2731  0.2008 -0.4063
 5026SOL    HW116519   7.398   5.234   0.507 -0.2394 -0.0558 -0.0083
 5026SOL    HW216520   7.252   5.275   0.506  0.0724  1.0754 -0.4958
 5027SOL     OW16521   1.236   4.194   3.427  0.0051 -0.3093  0.2578
 5027SOL    HW116522   1.247   4.146   3.510 -2.6256 -0.1075  0.8118
 5027SOL    HW216523   1.230   4.126   3.360  0.5676 -0.5490  0.4483
 5028SOL     OW16524   5.624   6.331   5.354  0.2727  0.6249  0.1454
 5028SOL    HW116525   5.557   6.393   5.381  1.2038  1.6844  0.1241
 5028SOL    HW216526   5.611   6.255   5.411  0.0812  1.4673  1.2577
 5029SOL     OW16527   5.177   2.657  11.429 -0.0916  0.6508  0.0123
 5029SOL    HW116528   5.141   2.599  11.362 -0.2016 -0.3511  0.9073
 5029SOL    HW216529   5.106   2.669  11.492 -0.2054  2.1140 -0.3504
 5030SOL     OW16530   0.195   7.496   4.163  0.0396 -0.1844  0.1558
 5030SOL    HW116531   0.134   7.438   4.209  0.4771 -0.1292  0.8252
 5030SOL    HW216532   0.260   7.518   4.229  0.1699  0.6484 -0.2422
 5031SOL     OW16533   5.190   0.797   1.907 -0.3126 -0.0597 -0.2777
 5031SOL    HW116534   5.208   0.830   1.819 -0.0460  0.8610  0.1108
 5031SOL    HW216535   5.198   0.874   1.964 -0.9682 -0.5418  0.4930
 5032SOL     OW16536   4.443   3.100   9.767 -0.1618 -0.1332  0.0884
 5032SOL    HW116537   4.383   3.134   9.833 -0.2244 -1.2995  0.6577
 5032SOL    HW216538   4.457   3.009   9.792  1.8493  0.0943 -0.0256
 5033SOL     OW16539   0.085   0.246   4.974 -0.0625 -0.4363 -0.4764
 5033SOL    HW116540   0.122   0.325   5.013  1.8012  0.0163 -2.9174
 5033SOL    HW216541   0.065   0.189   5.049  1.7335  0.9828  1.1922
 5034SOL     OW16542   5.827   5.374   2.075  0.1303 -0.1718 -0.5117
 5034SOL    HW116543   5.906   5.403   2.120  0.4295  0.9378 -1.6941
 5034SOL    HW216544   5.791   5.454   2.036 -1.7777 -0.5909  0.2933
 5035SOL     OW16545   0.840   5.889   4.899  0.1469  0.0855  0.3799
 5035SOL    HW116546   0.872   5.922   4.815 -0.9528  1.6880  0.5395
 5035SOL    HW216547   0.897   5.930   4.964  2.0198 -2.3909  0.4157
 5036SOL     OW16548   4.754   1.417  11.518  0.0985  0.1517  0.0088
 5036SOL    HW116549   4.740   1.431  11.612 -0.9534  0.4644 -0.1751
 5036SOL    HW216550   4.719   1.329  11.502  0.5013 -0.0001 -0.0532
 5037SOL     OW16551   0.665   3.752  12.236  0.5582 -0.1186  0.4730
 5037SOL    HW116552   0.687   3.689  12.167  0.4228 -0.9693  1.1823
 5037SOL    HW216553   0.710   3.832  12.211  1.2560 -0.6857 -0.1270
 5038SOL     OW16554   4.463   0.788   7.719  0.3580 -0.4729 -0.5332
 5038SOL    HW116555   4.448   0.776   7.813 -0.4276 -0.2515 -0.6201
 5038SOL    HW216556   4.528   0.722   7.696 -0.6380 -1.6358 -0.1422
 5039SOL     OW16557   4.362   7.237   7.715 -0.6405  0.0367  0.2312
 5039SOL    HW116558   4.447   7.201   7.689 -0.3036  2.1172 -1.8445
 5039SOL    HW216559   4.352   7.209   7.806  1.3365 -1.9079 -0.0476
 5040SOL     OW16560   0.392   3.114   2.411  0.1916  0.0466  0.5698
 5040SOL    HW116561   0.486   3.129   2.416  0.6481 -2.0754 -0.4049
 5040SOL    HW216562   0.366   3.094   2.501  0.4900  1.4846  0.9889
 5041SOL     OW16563   1.417   2.608  11.510  0.3833  0.1812  0.3406
 5041SOL    HW116564   1.365   2.685  11.486  0.7488 -0.1336 -1.6681
 5041SOL    HW216565   1.467   2.636  11.586 -0.9680  1.2592  0.8810
 5042SOL     OW16566   1.944   3.107   8.615  0.2593  0.1082 -0.4646
 5042SOL    HW116567   1.892   3.112   8.695 -1.0968 -1.2790 -1.1929
 5042SOL    HW216568   2.032   3.083   8.645 -0.2419 -0.4729  0.6149
 5043SOL     OW16569   0.206   2.820   4.883 -0.3325 -0.3456  0.1895
 5043SOL    HW116570   0.191   2.832   4.789  0.1912  2.2566  0.3605
 5043SOL    HW216571   0.118   2.805   4.919 -1.2902  3.3702 -0.2149
 5044SOL     OW16572   2.268   4.473  10.614  0.5108 -0.3091  0.1602
 5044SOL    HW116573   2.271   4.559  10.573 -2.4333 -0.1871 -0.0358
 5044SOL    HW216574   2.323   4.481  10.691  0.8790  1.5246 -0.2476
 5045SOL     OW16575   6.782   7.771   7.366 -0.0268  0.0120 -0.3179
 5045SOL    HW116576   6.688   7.784   7.370 -0.4336 -1.2520 -3.2362
 5045SOL    HW216577   6.795   7.711   7.292  2.9665 -0.9717  0.8482
 5046SOL     OW16578   0.973   4.046   0.909  0.7450  0.0968  0.3765
 5046SOL    HW116579   0.917   3.970   0.896  0.9654  0.0006 -0.0269
 5046SOL    HW216580   1.026   4.025   0.986 -0.4015  0.5670  1.3281
 5047SOL     OW16581   1.180   7.906   8.063  0.2186 -0.0169 -0.0229
 5047SOL    HW116582   1.216   7.958   8.134  0.1670 -0.5486  0.4034
 5047SOL    HW216583   1.113   7.961   8.024  1.0577  0.7398 -0.4221
 5048SOL     OW16584   6.038   2.447  10.012  0.2978  0.3517 -0.8231
 5048SOL    HW116585   6.116   2.487   9.975 -0.3470  1.0993 -1.4105
 5048SOL    HW216586   6.070   2.370  10.058  2.0678  2.9274  2.8354
 5049SOL     OW16587   7.375   2.702   7.254  0.4363 -0.1411  0.6131
 5049SOL    HW116588   7.281   2.716   7.265  0.4354  0.4361 -0.0201
 5049SOL    HW216589   7.408   2.787   7.223  1.1645 -0.3380  0.8336
 5050SOL     OW16590   1.331   4.707   6.482  0.4558  0.1706 -0.5094
 5050SOL    HW116591   1.258   4.651   6.459  1.6305 -1.2294 -1.0201
 5050SOL    HW216592   1.306   4.794   6.452 -0.0719 -0.6933 -2.7746
 5051SOL     OW16593   6.994   1.520   7.817 -0.0265 -0.7941  0.2752
 5051SOL    HW116594   7.049   1.529   7.895  2.1253 -1.6949 -1.0622
 5051SOL    HW216595   6.964   1.429   7.819  0.3197 -0.9182 -0.1216
 5052SOL     OW16596   6.670   3.246   7.639 -0.2566 -0.2422  0.4561
 5052SOL    HW116597   6.627   3.165   7.669 -0.9887 -0.1362 -0.2701
 5052SOL    HW216598   6.629   3.315   7.692 -0.0068 -0.2866  0.7092
 5053SOL     OW16599   4.432   5.604   7.905  0.3211 -0.2239 -0.1387
 5053SOL    HW116600   4.342   5.623   7.879  0.1093 -1.0632 -0.0544
 5053SOL    HW216601   4.483   5.616   7.826  0.3248  1.3817  0.0697
 5054SOL     OW16602   3.694   6.660   7.667  0.4648 -0.7825 -0.0859
 5054SOL    HW116603   3.690   6.744   7.712 -1.1581 -1.0602  0.3669
 5054SOL    HW216604   3.615   6.658   7.613  2.1671 -0.6204 -2.7396
 5055SOL     OW16605   0.476   6.782   6.527  0.3151 -0.8876 -0.2304
 5055SOL    HW116606   0.564   6.768   6.494  0.2963 -1.1505 -0.1654
 5055SOL    HW216607   0.424   6.806   6.450  0.9698  1.8185  0.0386
 5056SOL     OW16608   1.575   0.812   2.252  0.0872  0.4341 -0.3960
 5056SOL    HW116609   1.572   0.786   2.160 -0.5836  2.5091 -1.0240
 5056SOL    HW216610   1.653   0.867   2.258 -0.0042  0.4962  0.2263
 5057SOL     OW16611   0.352   5.136   5.028  0.5911  0.7207  0.1702
 5057SOL    HW116612   0.386   5.215   4.988 -1.0533  0.5347 -1.7653
 5057SOL    HW216613   0.260   5.156   5.047 -0.1683 -1.0161 -1.3813
 5058SOL     OW16614   7.840   3.357   6.398  0.0573 -0.1491  0.1236
 5058SOL    HW116615   7.844   3.287   6.333 -2.0490 -0.7850  0.5981
 5058SOL    HW216616   7.804   3.315   6.476  0.2575  1.1209  0.9231
 5059SOL     OW16617   5.236   1.628   9.566 -0.0431  0.1298  0.2541
 5059SOL    HW116618   5.263   1.545   9.528 -1.3571 -0.7066  1.0793
 5059SOL    HW216619   5.207   1.681   9.492  0.5803 -0.2145 -0.2460
 5060SOL     OW16620   5.270   6.424   4.402 -0.3956  0.2343  0.5366
 5060SOL    HW116621   5.183   6.416   4.440 -1.5851  1.2877 -1.7794
 5060SOL    HW216622   5.309   6.500   4.445 -2.2504  2.2775 -1.1265
 5061SOL     OW16623   3.574   7.818  11.170 -0.1617  0.2294  0.0077
 5061SOL    HW116624   3.547   7.755  11.236  0.4187 -1.8982 -1.6872
 5061SOL    HW216625   3.600   7.895  11.220 -0.2622 -1.0787  2.2056
 5062SOL     OW16626   0.529   6.941   1.291 -0.3485 -0.5649 -0.4033
 5062SOL    HW116627   0.485   6.877   1.233  0.0896 -0.3927 -0.9329
 5062SOL    HW216628   0.621   6.937   1.266  0.0367 -1.2603  1.0303
 5063SOL     OW16629   3.856   3.855   5.783  0.1202  0.4015  0.1112
 5063SOL    HW116630   3.833   3.898   5.865  0.6673 -1.2007  1.1519
 5063SOL    HW216631   3.772   3.829   5.745 -0.1520  1.4064 -0.0102
 5064SOL     OW16632   0.835   4.378  11.587  0.0526  0.3512 -0.1012
 5064SOL    HW116633   0.815   4.429  11.665  0.3280  2.3169 -1.2514
 5064SOL    HW216634   0.928   4.358  11.595  0.5954  2.3782 -0.8836
 5065SOL     OW16635   2.290   6.327   0.888  0.1652 -0.0324  0.0919
 5065SOL    HW116636   2.230   6.400   0.871  0.5315  0.4133  0.6439
 5065SOL    HW216637   2.234   6.253   0.907 -0.2307 -0.0711 -1.1135
 5066SOL     OW16638   5.906   2.411   0.253 -0.2626  0.4414  0.4995
 5066SOL    HW116639   5.957   2.365   0.319  0.6731  0.2846 -0.3104
 5066SOL    HW216640   5.840   2.347   0.226 -0.9856  0.6797  1.6211
 5067SOL     OW16641   0.259   5.048   5.677  0.3225  0.0026 -0.5565
 5067SOL    HW116642   0.336   5.101   5.658 -0.5559  2.8691  2.8977
 5067SOL    HW216643   0.269   5.022   5.768 -2.3982 -0.1945 -0.2229
 5068SOL     OW16644   4.703   2.303   2.729 -0.5578 -0.6013  0.2006
 5068SOL    HW116645   4.715   2.378   2.671  0.9967 -0.8409  0.1542
 5068SOL    HW216646   4.743   2.230   2.682  1.7622 -0.5876  1.9516
 5069SOL     OW16647   6.956   5.016   1.358 -0.3492 -0.0660 -0.0731
 5069SOL    HW116648   7.035   5.061   1.326 -1.6547  1.0894 -1.8576
 5069SOL    HW216649   6.987   4.962   1.430  2.0279  0.5705 -0.5315
 5070SOL     OW16650   7.861   6.861   8.138 -0.5202  1.0144  0.0582
 5070SOL    HW116651   7.936   6.870   8.078 -1.4332  1.2519 -1.0861
 5070SOL    HW216652   7.880   6.782   8.189 -0.2612  0.1162 -1.3697
 5071SOL     OW16653   7.724   3.408  10.891  0.2412 -0.4552  0.1890
 5071SOL    HW116654   7.743   3.482  10.835  1.0641 -0.5678  0.3071
 5071SOL    HW216655   7.792   3.343  10.870 -0.0655 -0.9084  0.5619
 5072SOL     OW16656   3.375   5.963  11.106  0.1373 -0.1536  0.5023
 5072SOL    HW116657   3.390   6.057  11.097 -0.0141 -0.2355 -0.8278
 5072SOL    HW216658   3.287   5.956  11.144  0.7878  0.2435  2.1235
 5073SOL     OW16659   6.365   6.119   2.722 -0.1944 -0.4421  0.1624
 5073SOL    HW116660   6.343   6.026   2.730 -2.2342 -0.1622 -1.3773
 5073SOL    HW216661   6.457   6.119   2.694  0.5464 -1.8614  2.3436
 5074SOL     OW16662   4.416   2.000   3.963 -0.4406  0.0411 -0.0137
 5074SOL    HW116663   4.389   2.040   4.045 -2.1782  1.5093 -1.2353
 5074SOL    HW216664   4.512   2.003   3.966 -0.4852  1.6293  1.2216
 5075SOL     OW16665   6.318   0.630   7.273 -0.0951  0.3867 -0.0984
 5075SOL    HW116666   6.305   0.563   7.339  1.3260 -0.7184 -0.8757
 5075SOL    HW216667   6.407   0.661   7.288  0.6185 -0.5593 -2.0301
 5076SOL     OW16668   6.178   0.477   8.220  0.2107 -0.0914 -0.1824
 5076SOL    HW116669   6.179   0.548   8.156 -0.0030  0.9636  0.9592
 5076SOL    HW216670   6.105   0.498   8.279  0.9402 -0.5688  0.9227
 5077SOL     OW16671   1.226   7.499   7.370  0.1420  0.0985  0.0368
 5077SOL    HW116672   1.246   7.450   7.449 -0.2723 -0.9966 -0.5105
 5077SOL    HW216673   1.137   7.530   7.383  0.1775  0.1614  0.1269
 5078SOL     OW16674   5.342   5.408   1.852 -0.6974 -0.2132 -0.0935
 5078SOL    HW116675   5.297   5.413   1.936  1.8057  1.8131  1.3069
 5078SOL    HW216676   5.332   5.496   1.814  0.3922 -0.2874 -0.6107
 5079SOL     OW16677   4.602   7.344   5.219 -0.1846 -0.2884  0.0736
 5079SOL    HW116678   4.693   7.369   5.204 -0.3643  1.4206  1.4159
 5079SOL    HW216679   4.552   7.420   5.188 -0.8801  0.4951  2.8509
 5080SOL     OW16680   0.457   1.782  11.010  0.2692  0.0613 -0.1725
 5080SOL    HW116681   0.535   1.781  11.065 -0.2434  0.1514  0.5740
 5080SOL    HW216682   0.397   1.843  11.053  0.3036  1.0646 -1.4858
 5081SOL     OW16683   0.210   2.729   6.641  0.1415 -0.0306  0.2658
 5081SOL    HW116684   0.193   2.687   6.556 -1.6263  2.5805 -0.8065
 5081SOL    HW216685   0.262   2.665   6.689  1.3606 -1.5932 -2.8252
 5082SOL     OW16686   3.322   5.498   9.412  0.5475  0.3282  0.0224
 5082SOL    HW116687   3.291   5.407   9.407  0.6937  0.3386 -2.1997
 5082SOL    HW216688   3.243   5.548   9.435  0.8566 -0.4692  3.2911
 5083SOL     OW16689   5.293   2.026   0.314  0.3123 -0.1932  0.6143
 5083SOL    HW116690   5.247   2.107   0.292 -0.3401 -0.2905  1.5416
 5083SOL    HW216691   5.226   1.971   0.355  0.7568 -1.1975  0.0207
 5084SOL     OW16692   3.780   4.126   0.795  0.2508 -0.3533 -0.6035
 5084SOL    HW116693   3.741   4.125   0.707  0.8378 -0.8987 -0.8625
 5084SOL    HW216694   3.867   4.089   0.783  0.1153 -1.0058  0.3131
 5085SOL     OW16695   0.927   5.573   4.719  0.0962 -0.1414  0.2740
 5085SOL    HW116696   1.000   5.549   4.662 -0.1522 -0.2285 -0.0102
 5085SOL    HW216697   0.896   5.657   4.683 -1.0661 -0.9524 -0.7099
 5086SOL     OW16698   4.232   0.916   7.625 -0.0296  0.2100  0.4006
 5086SOL    HW116699   4.301   0.854   7.648 -0.2456  0.1102  0.7890
 5086SOL    HW216700   4.153   0.879   7.664 -0.2337  0.5170  0.2802
 5087SOL     OW16701   7.469   0.840   0.712 -0.7191  0.0527 -0.1514
 5087SOL    HW116702   7.419   0.918   0.692 -1.0919 -0.2613 -0.4628
 5087SOL    HW216703   7.550   0.872   0.751 -0.6996  0.6069 -0.6424
 5088SOL     OW16704   4.736   5.028   8.409 -0.4689 -0.3147  0.2038
 5088SOL    HW116705   4.817   5.051   8.362 -0.2469 -0.1063  0.6867
 5088SOL    HW216706   4.667   5.076   8.362 -0.4270 -1.0866 -0.6791
 5089SOL     OW16707   0.631   7.741   9.385  0.8254  0.2832  0.8537
 5089SOL    HW116708   0.680   7.820   9.363 -0.1136  0.2579 -1.5449
 5089SOL    HW216709   0.686   7.669   9.354  0.1659  0.1786 -0.1225
 5090SOL     OW16710   4.502   3.441   1.388  0.4577 -0.0810 -0.0512
 5090SOL    HW116711   4.563   3.387   1.439 -0.5538  0.6713  2.0820
 5090SOL    HW216712   4.502   3.401   1.301  0.4293 -2.9760  1.1674
 5091SOL     OW16713   4.894   3.619  10.941 -0.0086 -0.0118  0.8102
 5091SOL    HW116714   4.823   3.581  10.889 -0.6511  0.3028  1.4433
 5091SOL    HW216715   4.865   3.708  10.960 -1.0168 -0.8780  3.8684
 5092SOL     OW16716   1.324   0.635   2.777  0.3929  0.0778  0.2702
 5092SOL    HW116717   1.234   0.605   2.785 -1.2081  4.5878  2.3596
 5092SOL    HW216718   1.322   0.701   2.708  1.9256  0.7093  0.7719
 5093SOL     OW16719   3.190   1.608   5.509 -0.2817 -0.4648 -0.2094
 5093SOL    HW116720   3.133   1.536   5.483 -1.7590  0.3990  0.5358
 5093SOL    HW216721   3.165   1.627   5.600  0.1625  0.9003 -0.3560
 5094SOL     OW16722   5.588   0.897   4.055  0.4165  0.3594 -0.4437
 5094SOL    HW116723   5.517   0.904   4.118 -1.3617  0.9856 -2.3838
 5094SOL    HW216724   5.632   0.982   4.058  0.4146  0.3455  0.0212
 5095SOL     OW16725   6.643   2.400   3.279  0.2067  0.2248  0.3512
 5095SOL    HW116726   6.558   2.414   3.321  0.4441  1.6267  0.4440
 5095SOL    HW216727   6.647   2.306   3.261 -1.1499  0.0659  0.7849
 5096SOL     OW16728   2.308   6.987   5.197 -0.3693 -0.2751  0.4010
 5096SOL    HW116729   2.334   6.895   5.193  0.7471  0.0429 -0.2789
 5096SOL    HW216730   2.260   6.995   5.279  1.6413 -0.9738  1.7385
 5097SOL     OW16731   1.298   2.052  11.456  0.2174 -0.0200  0.1797
 5097SOL    HW116732   1.388   2.023  11.446  0.9264  1.7628  0.9844
 5097SOL    HW216733   1.303   2.147  11.461 -1.7921  0.1771 -0.5082
 5098SOL     OW16734   5.143   7.982   3.125 -0.1002 -0.2800  0.0771
 5098SOL    HW116735   5.219   8.030   3.090  1.2559 -1.6410  1.0319
 5098SOL    HW216736   5.068   8.021   3.080  1.2196  0.5717 -1.5243
 5099SOL     OW16737   1.517   0.786   4.002  0.0914 -0.4496  0.6378
 5099SOL    HW116738   1.484   0.718   4.060  1.2868  0.0247  1.9233
 5099SOL    HW216739   1.469   0.864   4.027  0.2419 -0.3553  0.6314
 5100SOL     OW16740   3.391   6.800   0.542  0.0886 -0.1883  0.1290
 5100SOL    HW116741   3.353   6.829   0.625 -0.9407 -0.2805 -0.2873
 5100SOL    HW216742   3.322   6.746   0.503  0.8387 -0.7280 -0.4601
 5101SOL     OW16743   1.261   0.616   6.626 -0.2064 -0.1354  0.4737
 5101SOL    HW116744   1.256   0.710   6.643  1.9457  0.5518 -2.0347
 5101SOL    HW216745   1.314   0.582   6.698 -0.9847  0.5435  1.3941
 5102SOL     OW16746   7.301   3.961   5.349  0.2174 -0.1971  0.5610
 5102SOL    HW116747   7.395   3.953   5.331  0.5141  0.0115  1.9357
 5102SOL    HW216748   7.296   4.022   5.422 -0.9908 -0.3077  0.5851
 5103SOL     OW16749   2.705   4.111   0.487 -0.5019  0.3942  0.0968
 5103SOL    HW116750   2.689   4.172   0.560  0.1420 -0.0691  0.6356
 5103SOL    HW216751   2.711   4.168   0.410  2.0868  1.2797  0.8515
 5104SOL     OW16752   7.503   3.206  10.882 -0.0681 -0.7024 -0.0412
 5104SOL    HW116753   7.548   3.286  10.909 -1.8506  0.2859  0.1488
 5104SOL    HW216754   7.499   3.212  10.787 -1.1838  0.0102  0.0414
 5105SOL     OW16755   0.563   6.931   1.899 -0.1277 -0.1450  0.4212
 5105SOL    HW116756   0.625   6.998   1.870  0.6726 -0.5661  1.1007
 5105SOL    HW216757   0.489   6.940   1.840  0.0323  1.2228  0.3814
 5106SOL     OW16758   2.083   0.350   5.916 -0.2306 -0.0402 -0.4593
 5106SOL    HW116759   2.068   0.367   5.823  0.4242 -0.1072 -0.5780
 5106SOL    HW216760   1.999   0.317   5.947 -0.2694 -0.6580 -1.1737
 5107SOL     OW16761   7.066   1.961   9.962 -0.0043  0.0426 -0.2885
 5107SOL    HW116762   7.106   1.908  10.032 -0.3622  1.8190  1.3223
 5107SOL    HW216763   7.138   1.977   9.901  0.4029 -1.2280 -0.1846
 5108SOL     OW16764   4.223   0.620   7.378 -0.3339 -0.2159 -0.4491
 5108SOL    HW116765   4.223   0.580   7.465  2.4080 -1.0951 -0.7528
 5108SOL    HW216766   4.134   0.653   7.366 -1.7264 -2.9938  1.3285
 5109SOL     OW16767   4.252   4.022   2.774  0.4459  0.4413  0.6736
 5109SOL    HW116768   4.335   3.976   2.766 -0.2404 -0.8850  0.9379
 5109SOL    HW216769   4.240   4.034   2.868  0.8862  1.7300  0.5979
 5110SOL     OW16770   6.838   5.954  11.381 -0.1304 -0.5201  0.2672
 5110SOL    HW116771   6.834   5.993  11.293 -1.2442  0.6998  0.8182
 5110SOL    HW216772   6.931   5.943  11.398  0.0939 -1.3964 -1.3162
 5111SOL     OW16773   4.859   4.445   0.805  0.1004 -0.2706  0.1985
 5111SOL    HW116774   4.806   4.483   0.735  0.6214 -0.7788 -0.4922
 5111SOL    HW216775   4.927   4.510   0.821  0.0556 -0.2099  0.1410
 5112SOL     OW16776   7.936   2.377  10.261 -0.5822  0.2908  0.9935
 5112SOL    HW116777   7.947   2.285  10.235 -1.1194  0.5419 -0.1882
 5112SOL    HW216778   8.024   2.405  10.287 -0.0802 -0.1051 -0.2042
 5113SOL     OW16779   7.127   6.675   5.255  0.3154  0.0431 -0.0287
 5113SOL    HW116780   7.114   6.765   5.227 -0.5173 -0.5720 -1.8579
 5113SOL    HW216781   7.216   6.654   5.229 -0.1074 -0.1950 -1.3976
 5114SOL     OW16782   7.769   2.065   5.082  0.3156 -0.3430 -0.2273
 5114SOL    HW116783   7.716   1.990   5.109 -0.0255 -0.0428 -0.0522
 5114SOL    HW216784   7.804   2.040   4.997  0.7646 -0.9799  0.1360
 5115SOL     OW16785   7.874   1.527   7.839  0.0632  0.0547 -0.2318
 5115SOL    HW116786   7.876   1.571   7.754 -1.9135  0.7686  0.0550
 5115SOL    HW216787   7.933   1.452   7.828  1.8851  1.5694 -1.3799
 5116SOL     OW16788   5.101   7.761   0.793 -0.1167  0.2881 -0.0498
 5116SOL    HW116789   5.167   7.820   0.756  1.0836  0.2540  1.8826
 5116SOL    HW216790   5.143   7.675   0.795 -0.7623 -0.0322 -0.1602
 5117SOL     OW16791   1.913   3.384  11.405  0.0001 -0.2384  0.3017
 5117SOL    HW116792   1.879   3.297  11.386  2.6556 -0.8400 -2.6968
 5117SOL    HW216793   1.945   3.378  11.495 -0.6195 -2.1073  0.4404
 5118SOL     OW16794   3.483   7.261   0.649 -0.1481  0.3057 -0.0308
 5118SOL    HW116795   3.402   7.225   0.611 -0.0200  1.6337 -1.6664
 5118SOL    HW216796   3.525   7.186   0.691 -1.7059 -0.6364 -0.0745
 5119SOL     OW16797   2.739   2.657   3.960 -0.2882 -0.1648 -0.2804
 5119SOL    HW116798   2.809   2.713   3.929  0.6512 -0.3779  1.3428
 5119SOL    HW216799   2.682   2.715   4.011 -0.0523 -0.4105  0.2733
 5120SOL     OW16800   4.021   3.711   8.863 -0.0136  0.0164  0.0705
 5120SOL    HW116801   3.996   3.640   8.804  0.3815 -0.0879  0.0291
 5120SOL    HW216802   3.998   3.791   8.814 -0.9930 -0.0787  0.3508
 5121SOL     OW16803   7.027   0.417   2.470  0.7390  0.1748  0.4199
 5121SOL    HW116804   7.061   0.408   2.559  2.1810 -1.8622 -0.2613
 5121SOL    HW216805   6.935   0.442   2.482  1.1630  0.9485  2.4254
 5122SOL     OW16806   6.680   2.176   3.884  0.1340 -0.0248  0.3161
 5122SOL    HW116807   6.760   2.156   3.932  1.1557  0.7840 -0.9754
 5122SOL    HW216808   6.696   2.262   3.846 -1.8695  0.7324  1.0566
 5123SOL     OW16809   1.535   1.194   2.691 -0.1754  0.1285  0.1358
 5123SOL    HW116810   1.472   1.228   2.627  0.0220  0.0861 -0.0840
 5123SOL    HW216811   1.618   1.194   2.644  0.0848  0.6864  0.5970
 5124SOL     OW16812   2.274   6.931   9.174  0.4125  0.2735 -0.0298
 5124SOL    HW116813   2.189   6.959   9.141 -0.1727 -0.9968  0.3427
 5124SOL    HW216814   2.313   6.882   9.101 -0.6806 -2.1244  0.8899
 5125SOL     OW16815   2.218   2.490   2.103  0.1641 -0.1850  0.1853
 5125SOL    HW116816   2.311   2.509   2.093  1.2242 -3.5078  2.2915
 5125SOL    HW216817   2.192   2.539   2.182  0.1798  0.4299 -0.1810
 5126SOL     OW16818   4.527   4.566  10.950 -0.3079  0.7149 -0.4679
 5126SOL    HW116819   4.540   4.569  11.045  0.1011  0.0173 -0.4957
 5126SOL    HW216820   4.432   4.570  10.938 -0.4852 -1.0405  0.0615
 5127SOL     OW16821   4.578   5.613   1.728  0.6210  0.0127 -0.0703
 5127SOL    HW116822   4.526   5.688   1.701  0.8793  0.4719  0.6760
 5127SOL    HW216823   4.635   5.647   1.797  1.0868 -0.7535 -0.0652
 5128SOL     OW16824   1.520   0.639   8.678  0.0840 -0.2539  0.3232
 5128SOL    HW116825   1.591   0.592   8.721  1.6156  2.2759  0.8223
 5128SOL    HW216826   1.484   0.696   8.747 -1.4763 -0.4435 -0.3000
 5129SOL     OW16827   1.733   6.432  10.135  0.7381  0.3687 -0.2242
 5129SOL    HW116828   1.826   6.450  10.122  0.7776  0.1006 -0.3134
 5129SOL    HW216829   1.688   6.490  10.074  0.7846  1.4992  0.7784
 5130SOL     OW16830   6.754   1.281   6.772 -0.2561  0.1596  0.1359
 5130SOL    HW116831   6.814   1.216   6.806  0.0054 -0.1772 -0.9399
 5130SOL    HW216832   6.793   1.365   6.796  1.8553  0.0126 -2.4391
 5131SOL     OW16833   6.167   3.607   0.553 -0.4759 -0.0432  0.1569
 5131SOL    HW116834   6.231   3.624   0.484 -0.4868  0.5965  0.2972
 5131SOL    HW216835   6.178   3.680   0.614  0.3433 -1.2103  1.4501
 5132SOL     OW16836   5.542   1.705   9.766  0.3521  0.0322 -0.0836
 5132SOL    HW116837   5.527   1.611   9.754 -3.2043  0.4646 -0.2025
 5132SOL    HW216838   5.622   1.710   9.817  0.6204 -3.0802  0.0005
 5133SOL     OW16839   6.505   3.355  10.694 -0.1807  0.0716  0.8150
 5133SOL    HW116840   6.446   3.423  10.662 -0.2464 -0.1970  0.3567
 5133SOL    HW216841   6.554   3.327  10.617 -1.8792 -2.1325  0.4337
 5134SOL     OW16842   7.305   6.441  10.051  0.4022 -0.1658 -0.1564
 5134SOL    HW116843   7.266   6.475  10.131  0.2750 -1.1734  0.2240
 5134SOL    HW216844   7.284   6.348  10.051 -0.3475 -0.0379 -1.8069
 5135SOL     OW16845   4.109   6.848   4.236 -0.4498  0.0775  0.2116
 5135SOL    HW116846   4.137   6.882   4.321  0.5049  0.9307 -0.4214
 5135SOL    HW216847   4.190   6.831   4.188 -0.9736  0.2635 -0.7850
 5136SOL     OW16848   2.384   2.809   4.141  0.3430 -0.2675  0.2998
 5136SOL    HW116849   2.344   2.723   4.158  0.2404 -0.2952 -0.0598
 5136SOL    HW216850   2.311   2.870   4.143  0.3869 -0.2171  0.3542
 5137SOL     OW16851   2.532   0.853   5.669 -0.0374 -0.7422  0.7394
 5137SOL    HW116852   2.468   0.809   5.724 -1.2177  0.8730  0.7097
 5137SOL    HW216853   2.605   0.872   5.728 -0.6521 -0.3819  1.4046
 5138SOL     OW16854   2.110   5.290   6.066 -0.0975 -0.0138 -0.1287
 5138SOL    HW116855   2.148   5.242   6.140  0.0287 -0.1627 -0.2892
 5138SOL    HW216856   2.045   5.348   6.106 -0.5587 -0.6318  0.0216
 5139SOL     OW16857   6.086   6.324   9.233 -0.3013  0.5207 -0.2069
 5139SOL    HW116858   6.028   6.263   9.189  0.0275 -0.0390  0.1233
 5139SOL    HW216859   6.037   6.406   9.236 -1.3128 -0.0878  0.5697
 5140SOL     OW16860   1.257   4.003   0.854 -0.2094 -0.0000 -0.7810
 5140SOL    HW116861   1.167   4.003   0.820 -0.4287 -1.9871 -0.3851
 5140SOL    HW216862   1.312   3.983   0.779 -0.2102  0.2382 -0.8435
 5141SOL     OW16863   7.573   2.594   7.610  0.4978  0.2827 -0.5812
 5141SOL    HW116864   7.591   2.674   7.660 -1.6297  1.1812 -1.1459
 5141SOL    HW216865   7.581   2.523   7.674  0.6490  1.1122  0.3483
 5142SOL     OW16866   2.710   6.712  11.378 -0.4507  0.0526 -0.1165
 5142SOL    HW116867   2.658   6.766  11.318  0.6550 -0.2495 -1.3729
 5142SOL    HW216868   2.667   6.723  11.463 -1.5837  1.1086 -0.7996
 5143SOL     OW16869   1.391   3.071  11.586  0.0379 -0.0488 -0.7005
 5143SOL    HW116870   1.320   3.130  11.560  0.6736  0.5335 -1.1590
 5143SOL    HW216871   1.353   3.017  11.656 -0.5112  1.0104 -0.1546
 5144SOL     OW16872   7.907   0.093   3.966  0.5191  0.3052  0.1972
 5144SOL    HW116873   7.981   0.050   4.008  0.6769 -0.1306 -0.5102
 5144SOL    HW216874   7.910   0.063   3.875 -0.5042  0.3064  0.1515
 5145SOL     OW16875   0.731   0.246   9.788  0.2799  0.2602  0.0134
 5145SOL    HW116876   0.733   0.152   9.773  2.0157  0.5268 -1.9369
 5145SOL    HW216877   0.638   0.269   9.786 -0.1346 -1.3288 -0.0473
 5146SOL     OW16878   0.506   4.617   8.129 -0.0396  0.0490  0.0067
 5146SOL    HW116879   0.591   4.660   8.123 -0.3897  0.5833 -2.1161
 5146SOL    HW216880   0.496   4.572   8.045 -1.1830 -1.3316  0.8357
 5147SOL     OW16881   5.813   6.689   4.153  0.0982 -0.7125  0.1969
 5147SOL    HW116882   5.885   6.725   4.101 -0.0046  0.3685  0.7769
 5147SOL    HW216883   5.784   6.762   4.207 -0.2219 -1.6346  1.3097
 5148SOL     OW16884   5.067   1.035   9.370 -0.0285 -0.0117  0.0160
 5148SOL    HW116885   5.003   1.077   9.427 -1.5119 -0.2693 -1.3977
 5148SOL    HW216886   5.031   0.949   9.350  1.1410 -0.4825 -0.1873
 5149SOL     OW16887   7.704   0.452  12.286  0.3537 -0.5315  0.3524
 5149SOL    HW116888   7.626   0.414  12.245 -0.1297  0.5831  0.1938
 5149SOL    HW216889   7.702   0.545  12.260  0.4303  0.0588  2.3028
 5150SOL     OW16890   5.625   1.207   7.677  0.0603 -0.2955 -0.4058
 5150SOL    HW116891   5.581   1.291   7.669  1.1519  0.4314  0.8123
 5150SOL    HW216892   5.627   1.190   7.771  1.2132 -0.9232 -0.5205
 5151SOL     OW16893   3.198   2.056   9.485 -0.1890 -0.1161 -0.5786
 5151SOL    HW116894   3.287   2.068   9.452 -0.1344  1.1233 -0.0246
 5151SOL    HW216895   3.208   1.998   9.560  0.1180 -0.1790 -0.6673
 5152SOL     OW16896   4.011   1.310   0.978 -0.1086  0.3630 -0.5808
 5152SOL    HW116897   4.032   1.330   1.070  2.3071  0.6202 -1.1205
 5152SOL    HW216898   4.002   1.215   0.977 -0.0900  0.3500 -0.0773
 5153SOL     OW16899   6.128   7.608  10.700  0.6671  0.1893 -0.0231
 5153SOL    HW116900   6.189   7.553  10.750  0.1880 -0.6913 -0.3787
 5153SOL    HW216901   6.120   7.563  10.615 -0.6162  0.1911  0.0855
 5154SOL     OW16902   4.436   0.622  10.401  0.2460 -0.0725 -0.6911
 5154SOL    HW116903   4.469   0.546  10.450 -0.9338 -1.8923 -2.5725
 5154SOL    HW216904   4.390   0.674  10.466 -0.1338 -1.7157  0.4292
 5155SOL     OW16905   6.415   2.597  10.333 -0.2549  0.0824 -0.1659
 5155SOL    HW116906   6.413   2.693  10.329 -1.5015  0.1138  0.6979
 5155SOL    HW216907   6.377   2.570  10.249 -0.9052  0.3626  0.0306
 5156SOL     OW16908   5.798   5.774   7.847 -0.1714  0.0446 -0.7864
 5156SOL    HW116909   5.768   5.686   7.829 -0.8200  0.0949  0.0006
 5156SOL    HW216910   5.824   5.773   7.939 -1.0475  0.9022 -0.5117
 5157SOL     OW16911   1.021   7.332   3.142  0.7298 -0.2644  0.3866
 5157SOL    HW116912   1.104   7.336   3.096  0.9186  0.5933  0.7814
 5157SOL    HW216913   1.004   7.423   3.168  0.3171 -0.6364  1.4465
 5158SOL     OW16914   0.911   0.172   2.198  0.1169  0.6666  0.2837
 5158SOL    HW116915   1.006   0.172   2.211 -0.0447  0.4025  1.6001
 5158SOL    HW216916   0.899   0.193   2.105  1.5032 -0.6800 -0.2440
 5159SOL     OW16917   0.893   0.868   4.558 -0.1947 -0.1814  1.1113
 5159SOL    HW116918   0.880   0.781   4.596  0.5303 -0.2945  1.1239
 5159SOL    HW216919   0.869   0.928   4.628 -0.7735 -0.3686  1.0765
 5160SOL     OW16920   1.558   3.718   7.875 -0.0414 -0.4066  0.0593
 5160SOL    HW116921   1.651   3.729   7.860 -0.1507  0.3476 -0.1348
 5160SOL    HW216922   1.545   3.624   7.885  0.7598 -0.5002  0.2486
 5161SOL     OW16923   5.769   6.037   7.757 -0.6246 -0.2281  0.1639
 5161SOL    HW116924   5.754   5.953   7.799 -1.2901 -0.1332  0.1196
 5161SOL    HW216925   5.864   6.039   7.742 -0.2360  0.0998  2.3879
 5162SOL     OW16926   2.389   1.667  10.527 -0.2173  0.1570 -0.3836
 5162SOL    HW116927   2.314   1.694  10.580 -0.6114 -1.0361 -0.3069
 5162SOL    HW216928   2.380   1.572  10.519  0.8343  0.0984 -1.0730
 5163SOL     OW16929   5.448   2.726   0.613 -0.1061 -0.1525  0.6360
 5163SOL    HW116930   5.452   2.736   0.518 -2.0981  1.5740  0.6528
 5163SOL    HW216931   5.385   2.655   0.627 -1.4346  0.9926  0.6408
 5164SOL     OW16932   5.685   2.554   3.310 -0.0448  0.0304  0.5811
 5164SOL    HW116933   5.669   2.648   3.322  0.3678  0.0788  0.7530
 5164SOL    HW216934   5.679   2.541   3.215 -0.9487  0.0712  0.6150
 5165SOL     OW16935   0.410   5.488  11.834  1.2986 -0.0669  0.7716
 5165SOL    HW116936   0.334   5.437  11.861  2.9364 -2.3616  1.3136
 5165SOL    HW216937   0.422   5.552  11.904  1.1878 -1.1794  1.8268
 5166SOL     OW16938   7.081   3.003   0.718  0.0654  0.7622 -0.3970
 5166SOL    HW116939   7.078   2.983   0.811  2.1301 -0.8883 -0.5857
 5166SOL    HW216940   7.053   2.921   0.675  0.6548  0.9653 -1.2019
 5167SOL     OW16941   3.406   5.270   7.195 -0.0582 -0.3038 -0.3860
 5167SOL    HW116942   3.488   5.224   7.181  0.0560 -0.1369 -0.2607
 5167SOL    HW216943   3.342   5.201   7.214 -0.4535 -0.6695 -2.7545
 5168SOL     OW16944   7.457   4.938   1.339 -0.1384  0.8702 -0.8477
 5168SOL    HW116945   7.542   4.966   1.374  0.3550 -0.9321 -0.4715
 5168SOL    HW216946   7.399   4.938   1.415  0.7722 -2.4155  0.0230
 5169SOL     OW16947   2.061   4.179   4.997 -0.5801 -0.3149 -0.3888
 5169SOL    HW116948   1.987   4.203   4.941 -0.1698  0.2316 -0.7098
 5169SOL    HW216949   2.049   4.231   5.076  0.2616  0.9673 -1.0488
 5170SOL     OW16950   6.282   6.881  11.797 -0.0620 -0.6035  0.1192
 5170SOL    HW116951   6.247   6.848  11.714 -0.0659 -2.4704  0.8141
 5170SOL    HW216952   6.208   6.927  11.837  0.2445  1.2824 -1.3422
 5171SOL     OW16953   5.135   2.704  12.451 -0.3674  0.4977  0.4066
 5171SOL    HW116954   5.094   2.681  12.534  0.9937  0.1231  0.9915
 5171SOL    HW216955   5.071   2.761  12.408 -1.6376 -0.3324  1.1366
 5172SOL     OW16956   4.721   1.569   0.733 -0.1969 -0.3717  0.2593
 5172SOL    HW116957   4.739   1.662   0.742 -0.6033 -0.1389 -1.1012
 5172SOL    HW216958   4.801   1.532   0.695 -0.2511 -0.4665  0.2350
 5173SOL     OW16959   0.747   6.863   7.609 -0.1503 -0.1481  0.1283
 5173SOL    HW116960   0.773   6.821   7.527 -0.5916 -1.9334  0.8416
 5173SOL    HW216961   0.751   6.792   7.674 -3.7127  0.1707  0.8686
 5174SOL     OW16962   0.852   3.650   0.663 -0.5672  0.0603 -0.0537
 5174SOL    HW116963   0.943   3.639   0.687 -0.2978 -0.2360 -1.1504
 5174SOL    HW216964   0.819   3.719   0.721  1.4380  3.1107 -2.2183
 5175SOL     OW16965   6.975   7.866   7.528 -0.2022  0.7617 -0.8327
 5175SOL    HW116966   6.898   7.830   7.485 -0.5487  1.3610 -0.7274
 5175SOL    HW216967   7.049   7.833   7.476 -0.6342  1.8927 -2.2357
 5176SOL     OW16968   1.250   1.481  10.247 -0.2416  0.2809 -0.2653
 5176SOL    HW116969   1.281   1.499  10.159  0.4179  1.6330  0.2142
 5176SOL    HW216970   1.243   1.386  10.251 -0.3538  0.1989 -1.7862
 5177SOL     OW16971   1.127   5.906   7.524  0.0520 -0.3047  0.4012
 5177SOL    HW116972   1.060   5.859   7.573 -0.3751  0.6033  0.7173
 5177SOL    HW216973   1.105   5.892   7.432  0.2490 -1.1596  0.4793
 5178SOL     OW16974   1.642   3.133   5.390  0.1399  0.3648 -0.2270
 5178SOL    HW116975   1.624   3.212   5.440  2.1381  0.5274  0.3152
 5178SOL    HW216976   1.596   3.064   5.437  1.4468  0.6174  1.5378
 5179SOL     OW16977   4.326   5.551   2.827 -0.2436  0.4329  0.4524
 5179SOL    HW116978   4.345   5.585   2.740 -0.7196  0.4995  0.3727
 5179SOL    HW216979   4.283   5.467   2.811  0.2122  0.1636  0.6345
 5180SOL     OW16980   7.062   4.526   1.415 -0.2432 -0.4986 -0.0393
 5180SOL    HW116981   7.130   4.570   1.466 -1.5968  0.1772  1.2535
 5180SOL    HW216982   6.981   4.548   1.460 -1.3337 -1.2441 -1.5718
 5181SOL     OW16983   7.639   5.054  10.699 -0.4194 -0.6404 -0.1791
 5181SOL    HW116984   7.673   5.060  10.610  1.1108 -0.5291  0.3750
 5181SOL    HW216985   7.544   5.045  10.689 -0.3461  0.1315 -1.7788
 5182SOL     OW16986   7.572   3.050   7.443  0.3584 -0.2980  0.6892
 5182SOL    HW116987   7.640   3.117   7.451 -0.4496  0.5846  0.2213
 5182SOL    HW216988   7.605   2.992   7.374 -0.3196  1.3293 -1.0773
 5183SOL     OW16989   0.823   4.185   5.926  0.2257 -0.1020 -0.4849
 5183SOL    HW116990   0.887   4.252   5.948 -0.1229  0.2217 -0.4384
 5183SOL    HW216991   0.761   4.186   5.999 -0.3568  0.2536 -0.9673
 5184SOL     OW16992   1.580   1.625   4.140 -0.4526 -0.8328  0.1470
 5184SOL    HW116993   1.485   1.621   4.152 -0.3654 -1.6811  0.6809
 5184SOL    HW216994   1.612   1.548   4.187  0.4518 -0.8744 -0.5332
 5185SOL     OW16995   3.660   0.023   3.576 -0.2642 -0.5141 -0.1792
 5185SOL    HW116996   3.703   0.109   3.574 -0.8322 -0.1592  1.4548
 5185SOL    HW216997   3.731  -0.038   3.556  0.3263  0.2688 -0.5870
 5186SOL     OW16998   1.242   5.253   0.111  0.7957 -0.1614 -0.4886
 5186SOL    HW116999   1.336   5.256   0.091  1.0039  0.4846  0.5141
 5186SOL    HW217000   1.208   5.336   0.078  1.1416  0.9143  1.6736
 5187SOL     OW17001   4.853   5.968   2.540 -0.1690 -0.3238  0.2578
 5187SOL    HW117002   4.908   5.944   2.465 -1.2116 -0.1819 -0.5725
 5187SOL    HW217003   4.764   5.947   2.512 -0.5855 -0.2040  1.4425
 5188SOL     OW17004   0.706   3.045   8.528 -0.1471  0.2140 -0.2294
 5188SOL    HW117005   0.651   3.084   8.597  2.6466  0.1114  2.2916
 5188SOL    HW217006   0.709   2.952   8.550  2.5156  0.4964  1.0032
 5189SOL     OW17007   3.717   0.975   2.498  0.5500  0.3442 -0.6271
 5189SOL    HW117008   3.807   1.004   2.481  0.4737  0.3879 -0.9610
 5189SOL    HW217009   3.676   0.973   2.412  0.3345 -0.0259 -0.5180
 5190SOL     OW17010   4.953   6.732   6.260 -0.6045 -0.1303 -0.0725
 5190SOL    HW117011   5.046   6.750   6.247 -1.1588  2.0306 -1.6683
 5190SOL    HW217012   4.942   6.640   6.235  1.0895 -0.4515  0.2613
 5191SOL     OW17013   4.402   4.170  10.658  0.3755 -0.2316 -0.7310
 5191SOL    HW117014   4.414   4.262  10.682 -1.1493 -0.4109  0.9349
 5191SOL    HW217015   4.355   4.173  10.575 -0.7513  0.5338 -0.0867
 5192SOL     OW17016   0.139   0.105   1.636 -0.2246 -0.2360 -0.0486
 5192SOL    HW117017   0.110   0.071   1.551 -0.2967  0.5131 -0.3333
 5192SOL    HW217018   0.226   0.067   1.649  0.1224  0.2544 -0.8334
 5193SOL     OW17019   1.798   7.740   4.221 -0.1549  0.5215 -0.1809
 5193SOL    HW117020   1.887   7.769   4.200  0.1264  0.2863  0.6516
 5193SOL    HW217021   1.800   7.645   4.207 -0.2404  0.4993 -0.0310
 5194SOL     OW17022   3.573   0.630   3.527 -0.3327  0.3113 -0.5862
 5194SOL    HW117023   3.531   0.676   3.600 -1.5243 -1.1172 -0.3313
 5194SOL    HW217024   3.526   0.661   3.449 -0.1187  0.6466 -0.5850
 5195SOL     OW17025   4.638   5.451   3.463 -0.0856 -0.2280 -0.1275
 5195SOL    HW117026   4.613   5.494   3.544  0.3321  0.7503 -0.5047
 5195SOL    HW217027   4.600   5.505   3.394  0.7512 -0.2445 -0.6182
 5196SOL     OW17028   1.576   4.237   3.799 -0.6695 -0.1650  0.0568
 5196SOL    HW117029   1.667   4.265   3.790 -1.0686  1.4170  0.6490
 5196SOL    HW217030   1.547   4.273   3.882 -1.5812 -1.4631  0.3413
 5197SOL     OW17031   4.354   0.425   1.501 -0.0134  0.6693 -0.3640
 5197SOL    HW117032   4.428   0.464   1.549  0.1729  0.7183 -0.6843
 5197SOL    HW217033   4.349   0.335   1.533  0.7266  0.4076 -0.9412
 5198SOL     OW17034   3.274   1.053   9.671  0.0263  0.7086  0.1860
 5198SOL    HW117035   3.363   1.082   9.692  0.5065 -0.3144 -0.3473
 5198SOL    HW217036   3.286   0.965   9.635 -1.2986  0.1104  1.1103
 5199SOL     OW17037   6.995   5.725   4.552 -0.1202 -0.1685 -0.0959
 5199SOL    HW117038   6.913   5.680   4.532 -0.0641 -0.5269  0.4589
 5199SOL    HW217039   7.063   5.666   4.520 -0.0591 -0.2472  0.1790
 5200SOL     OW17040   2.665   2.189   6.182 -0.6526 -0.6918  0.4099
 5200SOL    HW117041   2.653   2.226   6.094  1.5021  0.7728  0.6525
 5200SOL    HW217042   2.581   2.205   6.226 -1.4747 -0.6851 -1.1003
 5201SOL     OW17043   0.262   7.587  12.269  0.0024  0.5018 -0.3046
 5201SOL    HW117044   0.191   7.574  12.206 -0.6637 -0.0604  0.5393
 5201SOL    HW217045   0.218   7.617  12.348  0.5823 -0.8248  0.5493
 5202SOL     OW17046   7.005   7.184   2.804 -0.0678 -0.2640 -0.1275
 5202SOL    HW117047   6.965   7.144   2.727 -1.6605  0.1889  0.4283
 5202SOL    HW217048   6.931   7.215   2.856  1.0413  1.3767  0.5508
 5203SOL     OW17049   5.742   0.265   0.990 -0.2453  0.2760 -0.7447
 5203SOL    HW117050   5.827   0.264   1.034 -1.0157 -2.6680  1.0452
 5203SOL    HW217051   5.703   0.349   1.013  1.1748  0.6061  0.5955
 5204SOL     OW17052   0.868   0.422   2.985  0.0887  0.1182  0.0348
 5204SOL    HW117053   0.926   0.351   2.958 -1.3461 -1.3276  0.5893
 5204SOL    HW217054   0.805   0.380   3.043 -1.4569  1.6470 -0.4705
 5205SOL     OW17055   1.415   5.982   1.160 -0.3674  0.1608  0.2378
 5205SOL    HW117056   1.474   5.910   1.181 -0.4683 -0.3150 -0.9943
 5205SOL    HW217057   1.330   5.955   1.194 -0.4319 -0.3681 -0.3380
 5206SOL     OW17058   5.483   2.645   7.388  0.3905  0.2918 -0.2434
 5206SOL    HW117059   5.563   2.611   7.347  0.9790  0.9593  0.3224
 5206SOL    HW217060   5.514   2.695   7.462 -0.3887  2.6302 -1.4094
 5207SOL     OW17061   5.293   4.817   6.317 -0.1445  0.0021  0.0334
 5207SOL    HW117062   5.251   4.889   6.270  0.4689  0.8255  0.7125
 5207SOL    HW217063   5.256   4.820   6.405  2.3366  1.7246  1.1386
 5208SOL     OW17064   2.439   2.024   4.138  0.1856  0.5165 -0.5284
 5208SOL    HW117065   2.482   2.011   4.223 -0.8377 -0.8934 -0.1912
 5208SOL    HW217066   2.346   2.017   4.157 -0.1458  1.8288 -1.5230
 5209SOL     OW17067   7.720   0.774   8.713 -0.2195  0.1958  0.0101
 5209SOL    HW117068   7.789   0.805   8.771 -0.4211  0.3339  0.1800
 5209SOL    HW217069   7.766   0.740   8.636 -0.0019  2.2783 -0.8599
 5210SOL     OW17070   6.986   6.705   2.938 -0.5717  0.2643 -0.2989
 5210SOL    HW117071   7.070   6.727   2.897 -0.1119  2.2665  1.5639
 5210SOL    HW217072   6.989   6.610   2.948 -0.0535 -0.1631 -3.3140
 5211SOL     OW17073   2.828   7.635  11.146 -0.0385  0.7345  0.3553
 5211SOL    HW117074   2.791   7.644  11.058  0.2866 -1.3649 -0.0380
 5211SOL    HW217075   2.754   7.646  11.205 -0.9520 -1.3112 -0.3355
 5212SOL     OW17076   3.761   5.848   3.208  0.3853  0.0787 -0.2605
 5212SOL    HW117077   3.816   5.794   3.151  1.3150  1.5092 -0.7913
 5212SOL    HW217078   3.806   5.848   3.292 -0.0109 -0.5602 -0.0456
 5213SOL     OW17079   6.079   1.870   8.602  0.6747 -0.6728  0.4091
 5213SOL    HW117080   6.109   1.806   8.666 -0.0888 -2.5900 -1.0784
 5213SOL    HW217081   6.011   1.920   8.647 -0.1377 -2.2576  0.9814
 5214SOL     OW17082   0.840   3.846   6.855  0.0388  0.0221 -0.2911
 5214SOL    HW117083   0.866   3.880   6.940  2.4306 -1.6222 -0.2685
 5214SOL    HW217084   0.900   3.888   6.793 -0.5022 -0.1496 -0.9488
 5215SOL     OW17085   3.639   5.236   0.684  0.1861  0.1173  0.8408
 5215SOL    HW117086   3.662   5.154   0.640 -0.6174  0.5074 -0.3586
 5215SOL    HW217087   3.722   5.269   0.718  0.7335 -0.5229  0.1647
 5216SOL     OW17088   3.024   2.848   1.983 -0.0517 -0.2304 -0.4966
 5216SOL    HW117089   2.980   2.764   1.984  1.3408 -1.0220  1.4593
 5216SOL    HW217090   2.998   2.889   1.900 -3.0925 -1.2775 -0.1691
 5217SOL     OW17091   3.307   1.461   8.216 -0.0539  0.2658  0.3869
 5217SOL    HW117092   3.361   1.459   8.295 -0.7004 -1.0605  0.8223
 5217SOL    HW217093   3.366   1.494   8.148  1.2279 -0.8111  0.9162
 5218SOL     OW17094   2.214   7.733   3.004  0.3298 -0.2206 -0.0220
 5218SOL    HW117095   2.149   7.802   2.994 -1.1366 -1.2568  1.7626
 5218SOL    HW217096   2.297   7.773   2.978 -0.8711  1.3874 -1.5470
 5219SOL     OW17097   6.180   5.214   7.845  0.2945 -0.3615  0.3383
 5219SOL    HW117098   6.179   5.294   7.792 -1.2883 -0.2642  0.4681
 5219SOL    HW217099   6.105   5.223   7.904 -1.0031 -2.6835 -0.8033
 5220SOL     OW17100   7.444   7.816   6.570 -0.0181 -0.1479 -0.6073
 5220SOL    HW117101   7.424   7.898   6.616  0.2532 -0.6176  0.3773
 5220SOL    HW217102   7.359   7.786   6.536 -0.2532  0.1382 -0.2815
 5221SOL     OW17103   0.642   6.504   2.710 -0.2117 -0.1427  0.6689
 5221SOL    HW117104   0.711   6.557   2.670 -0.2024 -0.6541  0.0091
 5221SOL    HW217105   0.685   6.421   2.733 -0.5282 -0.3353  0.5652
 5222SOL     OW17106   6.804   3.841   1.491  0.4029  0.3458 -0.4289
 5222SOL    HW117107   6.876   3.870   1.546  0.2379 -0.6701  0.3692
 5222SOL    HW217108   6.738   3.910   1.499  1.1864  1.1736 -0.9884
 5223SOL     OW17109   5.325   5.417   6.302  0.0431 -0.1098 -0.4752
 5223SOL    HW117110   5.320   5.416   6.398  1.2386 -0.0716 -0.4032
 5223SOL    HW217111   5.395   5.479   6.282 -0.7841  0.5488 -1.4139
 5224SOL     OW17112   5.299   0.317   3.277 -0.6836 -0.4104 -0.3806
 5224SOL    HW117113   5.325   0.335   3.367 -1.2555 -0.4708 -0.2009
 5224SOL    HW217114   5.373   0.268   3.240 -0.3866 -0.2591  0.0102
 5225SOL     OW17115   1.386   4.059   1.719  0.2346 -0.3812 -0.1554
 5225SOL    HW117116   1.466   4.034   1.674  2.6349  2.7020  1.9455
 5225SOL    HW217117   1.386   4.006   1.799  2.2830  1.9490  1.5574
 5226SOL     OW17118   6.935   4.718   6.112  0.4583  0.1936 -0.8635
 5226SOL    HW117119   7.000   4.761   6.168 -2.5442  2.5368  1.1932
 5226SOL    HW217120   6.972   4.723   6.024  3.4518  0.4076  0.2825
 5227SOL     OW17121   4.356   5.249  12.207  0.2574  0.4774 -0.2608
 5227SOL    HW117122   4.393   5.160  12.215 -0.9430  0.0568  1.1089
 5227SOL    HW217123   4.339   5.275  12.298 -1.7031  1.1014 -0.7619
 5228SOL     OW17124   2.389   6.537  10.924  0.1455  0.1526  0.2779
 5228SOL    HW117125   2.453   6.470  10.951  0.4958  0.0412 -0.7803
 5228SOL    HW217126   2.441   6.601  10.874 -0.3686  0.6771  0.4117
 5229SOL     OW17127   2.796   2.340  10.240  0.8891  0.3158 -0.0961
 5229SOL    HW117128   2.838   2.396  10.305 -2.3609  1.3769  1.3109
 5229SOL    HW217129   2.844   2.257  10.245  0.3234 -0.0055  4.4604
 5230SOL     OW17130   3.188   6.929   8.854  0.1285 -0.7734 -0.4302
 5230SOL    HW117131   3.142   6.849   8.829 -0.0085  0.0366 -3.0981
 5230SOL    HW217132   3.255   6.939   8.787  0.0361  1.4139 -0.2489
 5231SOL     OW17133   2.351   5.195  10.461  0.3742  0.2322 -0.3611
 5231SOL    HW117134   2.287   5.183  10.391 -1.6156  2.1372  1.0348
 5231SOL    HW217135   2.380   5.286  10.452  1.4458 -0.0293  0.2447
 5232SOL     OW17136   5.475   4.994  11.195  0.2073  0.4704  0.1766
 5232SOL    HW117137   5.515   5.024  11.276 -0.7717  0.9736  0.4910
 5232SOL    HW217138   5.539   5.016  11.127  0.4490  1.2987  0.6592
 5233SOL     OW17139   0.705   7.822   3.762 -0.4241  0.2761  0.1169
 5233SOL    HW117140   0.612   7.800   3.758 -0.3708  0.2169 -1.2491
 5233SOL    HW217141   0.707   7.917   3.767 -0.5519  0.2817  0.0674
 5234SOL     OW17142   4.333   1.443  11.589  0.4696 -0.3485 -0.2562
 5234SOL    HW117143   4.372   1.374  11.535 -0.1195  0.6073 -1.9398
 5234SOL    HW217144   4.285   1.498  11.528  1.3606  1.9009  0.9535
 5235SOL     OW17145   5.132   2.301   2.009  0.0362 -0.0613  0.4429
 5235SOL    HW117146   5.212   2.315   1.959 -0.4844  1.4621 -0.0365
 5235SOL    HW217147   5.158   2.311   2.100  0.4278  0.3045  0.2941
 5236SOL     OW17148   1.421   1.648   0.637 -0.3570  0.0489 -0.3124
 5236SOL    HW117149   1.447   1.657   0.728  0.5504 -0.9428 -0.4569
 5236SOL    HW217150   1.331   1.679   0.635  0.2442  1.9949  0.5288
 5237SOL     OW17151   6.527   2.511   4.516  0.3951 -0.3490 -0.3730
 5237SOL    HW117152   6.484   2.444   4.569 -1.3574  0.4154 -0.7400
 5237SOL    HW217153   6.503   2.489   4.426  1.3520 -0.2660 -0.6569
 5238SOL     OW17154   6.758   6.542   8.524 -0.1660  0.0454  0.0207
 5238SOL    HW117155   6.689   6.507   8.466  0.9303 -0.8130 -0.8086
 5238SOL    HW217156   6.737   6.506   8.610 -2.6447  2.4651  0.5678
 5239SOL     OW17157   0.678   4.785   3.912 -0.1244  0.0915 -0.2173
 5239SOL    HW117158   0.665   4.819   4.000  0.5137 -0.4612  0.1060
 5239SOL    HW217159   0.594   4.746   3.888 -0.6235  1.2045 -0.2915
 5240SOL     OW17160   0.402   2.184   0.665  0.3686  0.5053  0.4693
 5240SOL    HW117161   0.456   2.212   0.739  0.4120  0.2146  0.5527
 5240SOL    HW217162   0.465   2.166   0.595  0.3612  0.4017  0.4886
 5241SOL     OW17163   7.922   2.933   6.922 -0.0548  0.0767 -0.1872
 5241SOL    HW117164   7.965   2.857   6.960  0.0005  0.2904  0.1831
 5241SOL    HW217165   7.861   2.897   6.858  1.4082 -0.2059 -1.5094
 5242SOL     OW17166   5.927   6.326   9.940  0.3311  0.2474 -0.2093
 5242SOL    HW117167   5.899   6.269  10.011  0.4775  1.3369  0.7401
 5242SOL    HW217168   5.960   6.266   9.873 -1.2800 -0.9004 -0.0508
 5243SOL     OW17169   2.583   5.163   7.359 -0.4468  0.0364 -0.0088
 5243SOL    HW117170   2.596   5.106   7.434 -1.2389  0.0541  0.1463
 5243SOL    HW217171   2.559   5.104   7.287  0.8274 -0.0406 -0.4045
 5244SOL     OW17172   2.894   6.158   0.507 -0.1319 -0.3073  0.0253
 5244SOL    HW117173   2.824   6.208   0.548 -0.6977  0.3581 -1.6495
 5244SOL    HW217174   2.963   6.154   0.573 -0.5671  1.6337  0.6462
 5245SOL     OW17175   5.225   1.992   5.701  0.2539 -0.3085  0.4969
 5245SOL    HW117176   5.175   2.034   5.631 -1.0240 -1.9141  0.3827
 5245SOL    HW217177   5.194   2.033   5.782  0.6529  0.4960  0.2570
 5246SOL     OW17178   4.557   0.655   5.793 -0.2945  0.1435  0.0360
 5246SOL    HW117179   4.470   0.683   5.765 -0.0648 -1.0711 -2.0720
 5246SOL    HW217180   4.595   0.613   5.716  2.0322  0.3065  1.0119
 5247SOL     OW17181   7.285   1.279   5.785  0.3869 -0.0715  0.0924
 5247SOL    HW117182   7.350   1.252   5.850  0.6028 -0.2169 -0.1826
 5247SOL    HW217183   7.221   1.330   5.835 -0.0001 -1.0354  0.6173
 5248SOL     OW17184   7.243   4.530  10.863 -0.0051 -0.1391 -0.2207
 5248SOL    HW117185   7.254   4.454  10.921 -1.7689 -0.0823  0.2271
 5248SOL    HW217186   7.218   4.601  10.922  0.4849  0.5153 -0.7868
 5249SOL     OW17187   1.480   1.478   7.702  0.1766 -0.1931 -0.1688
 5249SOL    HW117188   1.497   1.442   7.615 -1.1361  1.0750 -0.9887
 5249SOL    HW217189   1.399   1.529   7.692 -1.4299 -1.9842  2.3421
 5250SOL     OW17190   6.052   7.017   3.243  0.1594 -0.7655  0.4769
 5250SOL    HW117191   6.131   6.996   3.193 -0.1128 -0.8472  0.0822
 5250SOL    HW217192   6.037   7.110   3.226 -0.0389 -0.8370  0.2567
 5251SOL     OW17193   0.988   0.031   7.687  0.2597 -0.0475  0.6156
 5251SOL    HW117194   0.946   0.028   7.772 -1.3973 -0.6238 -0.1832
 5251SOL    HW217195   1.009  -0.061   7.668 -2.3751 -0.4239 -0.9607
 5252SOL     OW17196   2.583   1.424   8.584  0.5285  0.5670  0.2539
 5252SOL    HW117197   2.652   1.446   8.522  0.4126  2.5827  0.7475
 5252SOL    HW217198   2.626   1.422   8.669  0.1214  1.1940  0.4868
 5253SOL     OW17199   7.659   1.396   0.748 -0.0144 -0.4089 -0.3854
 5253SOL    HW117200   7.714   1.321   0.769 -0.3460 -0.0222  2.0926
 5253SOL    HW217201   7.720   1.469   0.735  0.2474 -0.8504 -1.9320
 5254SOL     OW17202   0.661   5.472   5.146 -0.2729  0.3915  0.4009
 5254SOL    HW117203   0.702   5.539   5.091  1.9397 -0.5057  0.8479
 5254SOL    HW217204   0.702   5.483   5.232 -0.2479 -1.1877  0.6189
 5255SOL     OW17205   3.637   7.644  10.057 -0.4632  0.3036  0.1323
 5255SOL    HW117206   3.663   7.731  10.027 -0.0733  0.4748  0.9509
 5255SOL    HW217207   3.589   7.607   9.983  0.3518  0.7756 -0.6483
 5256SOL     OW17208   2.982   6.749  11.496 -1.4945 -0.8682  0.0895
 5256SOL    HW117209   2.897   6.712  11.472 -0.3976 -2.6000 -1.3987
 5256SOL    HW217210   3.014   6.791  11.416 -1.4031  0.7870  0.9465
 5257SOL     OW17211   3.819   2.729   2.644  0.1624 -0.3314  0.4134
 5257SOL    HW117212   3.769   2.650   2.621 -0.1433 -0.0726  0.1776
 5257SOL    HW217213   3.875   2.701   2.716 -1.9667 -0.0702  2.2891
 5258SOL     OW17214   1.014   6.519  10.472  0.1978 -0.2288  0.1847
 5258SOL    HW117215   1.034   6.431  10.439  0.2327  0.6991 -2.4526
 5258SOL    HW217216   1.074   6.577  10.424  0.2672  1.2586  1.9515
 5259SOL     OW17217   5.423   4.206   2.185  0.3169  0.7862 -0.5863
 5259SOL    HW117218   5.397   4.182   2.097 -0.3821  0.3801 -0.2741
 5259SOL    HW217219   5.359   4.163   2.242  2.0348 -0.8618  0.2507
 5260SOL     OW17220   2.215   2.624   3.098 -0.5097  0.0922  0.0160
 5260SOL    HW117221   2.291   2.624   3.039  0.3703  2.1225  1.0548
 5260SOL    HW217222   2.157   2.556   3.062  0.4813  0.4608 -2.5267
 5261SOL     OW17223   0.579   2.213   4.277  0.2269 -0.2105  0.1683
 5261SOL    HW117224   0.607   2.166   4.198  1.9783  1.0526 -0.0407
 5261SOL    HW217225   0.500   2.261   4.250 -0.5426 -1.6099 -0.1188
 5262SOL     OW17226   2.484   7.050   1.302 -0.0861 -0.0712  0.1877
 5262SOL    HW117227   2.486   7.117   1.234  2.2790 -0.5691 -0.3089
 5262SOL    HW217228   2.395   7.054   1.336 -1.2480  0.4248 -2.6697
 5263SOL     OW17229   3.278   5.748   9.069  0.1781  0.3377 -0.1517
 5263SOL    HW117230   3.243   5.722   8.984  1.2533  0.0296 -0.5202
 5263SOL    HW217231   3.337   5.676   9.093 -0.7431  0.0135  1.2568
 5264SOL     OW17232   3.686   5.882  10.709  0.2088 -0.0971  0.1942
 5264SOL    HW117233   3.644   5.866  10.794  1.0512  1.0600  0.8645
 5264SOL    HW217234   3.739   5.804  10.694 -0.4383 -0.5935  0.4131
 5265SOL     OW17235   6.689   2.582   7.437 -0.0840 -0.6019  0.3820
 5265SOL    HW117236   6.703   2.673   7.464 -2.4727 -0.2055  0.4749
 5265SOL    HW217237   6.720   2.530   7.512  2.2652  0.0075 -0.0754
 5266SOL     OW17238   7.662   7.833   7.698 -0.0424  0.3221  0.5469
 5266SOL    HW117239   7.650   7.907   7.757  1.6310 -0.2589  1.6875
 5266SOL    HW217240   7.628   7.758   7.747 -0.6449  0.1505 -0.1231
 5267SOL     OW17241   1.866   6.040   5.922 -0.0531 -0.0467 -0.2146
 5267SOL    HW117242   1.885   5.977   5.852 -1.2469 -0.6842  0.0219
 5267SOL    HW217243   1.867   5.988   6.002 -0.3937  0.3622  0.0587
 5268SOL     OW17244   5.878   7.639  10.163  0.1842 -0.3803  0.1618
 5268SOL    HW117245   5.945   7.572  10.156 -0.7059 -1.2412 -0.3993
 5268SOL    HW217246   5.925   7.718  10.190  1.1307 -1.4126  1.6675
 5269SOL     OW17247   6.887   7.040   9.411 -0.3520 -0.4615  0.5008
 5269SOL    HW117248   6.810   7.012   9.460  0.4823 -1.2104  1.4488
 5269SOL    HW217249   6.908   6.967   9.354 -0.3144 -0.2855  0.2891
 5270SOL     OW17250   5.388   2.231   7.758  0.0405 -0.5188  0.0602
 5270SOL    HW117251   5.337   2.152   7.743 -0.3143 -0.2020 -0.4360
 5270SOL    HW217252   5.450   2.207   7.827 -1.6888 -0.5003  1.6982
 5271SOL     OW17253   2.514   5.397   8.122  0.8648  0.6464 -0.0798
 5271SOL    HW117254   2.557   5.416   8.039 -0.4445 -0.9946 -1.2117
 5271SOL    HW217255   2.550   5.312   8.149 -0.4490 -0.0117 -0.2778
 5272SOL     OW17256   4.836   0.966  12.054 -0.4452  0.8083  0.5603
 5272SOL    HW117257   4.764   0.904  12.043  0.2665 -0.0091  0.3705
 5272SOL    HW217258   4.907   0.930  12.001  0.7636  0.5379  2.2690
 5273SOL     OW17259   6.930   7.725   4.273  0.0132 -0.4042 -0.7443
 5273SOL    HW117260   6.889   7.662   4.213 -0.9457 -0.4226 -0.1013
 5273SOL    HW217261   6.940   7.805   4.221  0.0206 -0.6857 -1.1839
 5274SOL     OW17262   0.504   5.505   1.277 -0.0305  0.1185  0.5181
 5274SOL    HW117263   0.496   5.412   1.293 -1.9987  0.2721  0.6158
 5274SOL    HW217264   0.414   5.538   1.274  0.5860  1.9164 -0.0884
 5275SOL     OW17265   4.133   6.805   0.695  0.6574  0.1681  0.4064
 5275SOL    HW117266   4.101   6.715   0.701  0.3239  0.1764 -0.8156
 5275SOL    HW217267   4.054   6.858   0.702  0.6078  0.2707 -0.7392
 5276SOL     OW17268   3.499   5.727   5.690 -0.1037 -0.1816 -0.4618
 5276SOL    HW117269   3.488   5.798   5.753  1.8144 -0.0253 -0.2419
 5276SOL    HW217270   3.549   5.766   5.618  1.7910 -1.4767  0.0776
 5277SOL     OW17271   6.071   4.934   7.954  0.4090  0.0337  0.2672
 5277SOL    HW117272   6.092   5.027   7.948  1.2384 -0.2091 -1.1137
 5277SOL    HW217273   6.036   4.912   7.867  1.0349 -1.1311  0.2871
 5278SOL     OW17274   0.484   4.447  12.389  0.4565  0.0307  0.5927
 5278SOL    HW117275   0.446   4.533  12.410  0.1373  0.0473 -0.0228
 5278SOL    HW217276   0.413   4.385  12.405 -0.0760  0.1241 -1.1739
 5279SOL     OW17277   0.921   0.664  10.653 -0.3088  0.2060 -0.7844
 5279SOL    HW117278   1.010   0.651  10.686 -0.0700  0.8661 -1.1457
 5279SOL    HW217279   0.880   0.725  10.715 -0.6575 -0.4242 -0.3814
 5280SOL     OW17280   5.713   4.376   0.736  0.2222 -0.0458 -0.2699
 5280SOL    HW117281   5.681   4.289   0.715  1.5908 -0.8632  0.9123
 5280SOL    HW217282   5.681   4.431   0.664 -0.2092 -1.6008 -1.3130
 5281SOL     OW17283   1.633   3.589  10.218 -0.1786  0.4774 -0.0466
 5281SOL    HW117284   1.728   3.582  10.207 -0.0878  0.6455  0.6000
 5281SOL    HW217285   1.621   3.636  10.300 -0.8003 -2.0705  1.4534
 5282SOL     OW17286   5.506   1.525   2.972  0.3143 -0.1186  0.4486
 5282SOL    HW117287   5.600   1.513   2.987  0.2478  1.2423  2.4141
 5282SOL    HW217288   5.496   1.618   2.952 -0.5815 -0.3397 -0.2090
 5283SOL     OW17289   2.947   5.259   3.256  0.0869  0.1707 -0.3426
 5283SOL    HW117290   2.872   5.311   3.286 -0.4941 -0.5650 -0.5055
 5283SOL    HW217291   3.008   5.262   3.329 -0.6236 -0.2455  0.2883
 5284SOL     OW17292   5.289   6.496  11.798  0.3467 -0.3259  0.2637
 5284SOL    HW117293   5.342   6.576  11.799  0.8161 -0.6429  0.9068
 5284SOL    HW217294   5.351   6.425  11.812 -0.0173 -0.8486 -0.6586
 5285SOL     OW17295   6.538   3.537   8.545 -0.0210  0.6639  0.6270
 5285SOL    HW117296   6.558   3.579   8.629 -0.5813  1.3384  0.4283
 5285SOL    HW217297   6.465   3.478   8.565 -0.5841  1.3050  0.4853
 5286SOL     OW17298   5.607   2.370   0.348 -0.8648 -0.0673  0.6503
 5286SOL    HW117299   5.636   2.282   0.322  0.3491  0.2074  1.0163
 5286SOL    HW217300   5.652   2.387   0.430 -1.3148  0.7960  0.7298
 5287SOL     OW17301   2.602   3.590   2.946 -0.4214 -0.4550 -0.2263
 5287SOL    HW117302   2.678   3.556   2.993  0.7054 -0.0238 -1.6369
 5287SOL    HW217303   2.619   3.569   2.854 -0.5699  2.1601 -0.9460
 5288SOL     OW17304   1.755   7.826   3.569 -0.0624  0.1503  0.5761
 5288SOL    HW117305   1.849   7.814   3.578  0.0748  0.5852 -0.1935
 5288SOL    HW217306   1.722   7.740   3.540  0.2658  0.3274 -0.3376
 5289SOL     OW17307   0.975   4.297   4.116  0.0053 -0.3577 -0.2377
 5289SOL    HW117308   0.912   4.256   4.176  0.4130  0.0398  0.4860
 5289SOL    HW217309   0.927   4.310   4.035 -0.3743 -1.5072 -0.2139
 5290SOL     OW17310   4.645   6.569   1.659  0.6527  0.2264 -0.5501
 5290SOL    HW117311   4.562   6.595   1.698  0.4196  0.9190 -1.4740
 5290SOL    HW217312   4.622   6.515   1.584  1.1304 -2.4997  1.1372
 5291SOL     OW17313   1.191   6.398   3.716  0.5224 -0.0339  0.2675
 5291SOL    HW117314   1.281   6.410   3.685  0.7264 -1.0315  0.4404
 5291SOL    HW217315   1.151   6.485   3.708  1.3378  0.2985 -0.3176
 5292SOL     OW17316   6.702   7.621  10.652  0.4620 -0.5598 -0.8478
 5292SOL    HW117317   6.681   7.652  10.564 -1.3209 -4.1929 -1.9213
 5292SOL    HW217318   6.664   7.687  10.711  1.6426  1.9366 -2.7108
 5293SOL     OW17319   2.011   1.947   9.567 -0.3366  0.3130  0.3270
 5293SOL    HW117320   1.965   2.031   9.577 -0.3009  0.5869 -1.4442
 5293SOL    HW217321   1.940   1.883   9.555 -0.3383  0.2083  0.8716
 5294SOL     OW17322   7.002   6.974  12.383  0.0441  0.1793 -0.4523
 5294SOL    HW117323   7.049   6.908  12.331  0.4855  0.3165 -0.2384
 5294SOL    HW217324   6.911   6.964  12.357  0.3083  0.5604 -1.6110
 5295SOL     OW17325   7.517   2.543   5.978  0.2608 -0.1797  0.2475
 5295SOL    HW117326   7.472   2.619   6.014 -1.7558 -1.1008 -0.1813
 5295SOL    HW217327   7.447   2.481   5.956  1.7549 -1.7600 -0.3617
 5296SOL     OW17328   3.116   5.789   8.399 -0.3151 -0.0880 -0.1787
 5296SOL    HW117329   3.048   5.800   8.466  0.2609  0.9563  0.2645
 5296SOL    HW217330   3.068   5.760   8.321 -1.1644 -0.1355  0.3432
 5297SOL     OW17331   0.542   6.550   1.386  0.1252 -0.0802 -0.5150
 5297SOL    HW117332   0.507   6.478   1.438 -0.4525 -1.1984 -2.3610
 5297SOL    HW217333   0.627   6.569   1.426 -0.4378 -0.6467  1.0167
 5298SOL     OW17334   4.988   3.172   1.158 -0.2673  0.7753 -0.0070
 5298SOL    HW117335   5.039   3.233   1.104  0.5973  0.4514  0.4161
 5298SOL    HW217336   5.048   3.098   1.172 -0.5870  0.7167  1.1291
 5299SOL     OW17337   7.679   0.224   4.048  0.4864 -0.5925  0.3736
 5299SOL    HW117338   7.636   0.240   3.963 -0.8283 -0.8444  0.9598
 5299SOL    HW217339   7.764   0.187   4.025  1.2087  1.6710 -0.8919
 5300SOL     OW17340   7.243   3.789   0.460  0.2785 -0.1461 -0.2201
 5300SOL    HW117341   7.197   3.705   0.453 -0.7975  0.5128 -2.1122
 5300SOL    HW217342   7.195   3.837   0.528  0.0022 -0.5414 -0.1327
 5301SOL     OW17343   3.792   0.101   5.608  0.0291  0.2241  0.1201
 5301SOL    HW117344   3.854   0.086   5.537 -1.1796 -2.5914 -0.4730
 5301SOL    HW217345   3.707   0.079   5.571 -0.8686  0.5026  1.9062
 5302SOL     OW17346   6.567   0.959   4.720 -0.0032 -0.4589  0.1118
 5302SOL    HW117347   6.622   0.990   4.792 -1.3850 -0.7046  1.3197
 5302SOL    HW217348   6.628   0.913   4.661  1.4639  1.3300  0.1421
 5303SOL     OW17349   2.285   3.095  11.339 -0.5244 -0.5043 -0.1691
 5303SOL    HW117350   2.245   3.071  11.423 -0.0400 -0.6397  0.0289
 5303SOL    HW217351   2.217   3.144  11.293 -0.1811  1.2033  1.0665
 5304SOL     OW17352   5.458   0.362   3.994 -0.0351  0.3088  0.4355
 5304SOL    HW117353   5.505   0.443   4.016  1.7549  0.2704 -2.7799
 5304SOL    HW217354   5.518   0.312   3.940 -2.0880 -2.0056  0.1075
 5305SOL     OW17355   3.150   5.898  11.283 -0.5135  0.2857 -0.6726
 5305SOL    HW117356   3.153   5.921  11.376  0.6026 -1.4642 -0.2226
 5305SOL    HW217357   3.058   5.906  11.259 -0.9379  0.0453  0.7800
 5306SOL     OW17358   1.862   6.806   8.440  0.6389  0.3626  0.1771
 5306SOL    HW117359   1.892   6.766   8.522  1.4065 -0.5938 -0.5513
 5306SOL    HW217360   1.768   6.786   8.437  0.2143  1.8961  1.6343
 5307SOL     OW17361   4.819   5.985  11.143  0.3427 -0.1432 -0.1674
 5307SOL    HW117362   4.783   5.917  11.086  0.5383 -1.4587  1.2415
 5307SOL    HW217363   4.753   6.054  11.141 -0.1346 -0.6071 -1.1677
 5308SOL     OW17364   5.017   6.949  11.730  0.2963  0.0813 -0.2486
 5308SOL    HW117365   4.974   6.868  11.758  1.6957 -0.7028 -0.2325
 5308SOL    HW217366   5.109   6.924  11.721  0.7522  1.6881 -0.2604
 5309SOL     OW17367   3.567   1.181   2.685  0.0249  0.2502 -0.3019
 5309SOL    HW117368   3.625   1.152   2.615  1.5540  0.8269  0.6835
 5309SOL    HW217369   3.600   1.137   2.764 -2.1711 -1.0574 -0.0366
 5310SOL     OW17370   4.172   7.934   4.664  0.0445  0.1438 -0.3841
 5310SOL    HW117371   4.246   7.992   4.649  1.4243 -1.5460 -0.4722
 5310SOL    HW217372   4.147   7.904   4.576  0.3996 -0.6153 -0.2346
 5311SOL     OW17373   2.274   1.756   4.416  0.0080 -0.7101  0.4824
 5311SOL    HW117374   2.184   1.788   4.411  0.1876 -0.1055  1.0427
 5311SOL    HW217375   2.280   1.691   4.345 -0.3814  0.4433 -0.6541
 5312SOL     OW17376   6.713   3.416   9.802  0.2340  0.0464  0.0883
 5312SOL    HW117377   6.687   3.504   9.830 -2.9214 -1.2112  1.6547
 5312SOL    HW217378   6.676   3.406   9.715  0.8161  0.3226 -0.1977
 5313SOL     OW17379   2.032   6.031   8.053 -0.1144 -0.4521 -0.6670
 5313SOL    HW117380   2.122   6.001   8.056  0.3095  0.5576 -2.1367
 5313SOL    HW217381   2.029   6.104   8.115 -0.1184 -0.9391 -0.0866
 5314SOL     OW17382   6.662   4.790   8.518  0.0946 -0.5565  0.0560
 5314SOL    HW117383   6.660   4.818   8.426 -0.1568  2.6653  0.9279
 5314SOL    HW217384   6.570   4.770   8.538 -0.1878  0.7306  0.1142
 5315SOL     OW17385   1.022   3.262   1.997 -0.2225 -0.0622 -0.3352
 5315SOL    HW117386   1.020   3.273   1.902 -1.3574 -1.0074 -0.4412
 5315SOL    HW217387   1.004   3.170   2.012 -0.8443  0.2198  0.8187
 5316SOL     OW17388   3.738   6.090   6.226 -0.1546  0.6083  0.1305
 5316SOL    HW117389   3.713   6.084   6.134 -2.4158 -2.5148  0.7596
 5316SOL    HW217390   3.829   6.059   6.228  0.2920  1.7360 -1.1055
 5317SOL     OW17391   4.987   0.849   7.863  0.1651 -0.2292 -0.4300
 5317SOL    HW117392   4.983   0.849   7.958 -0.0692 -0.3380 -0.4398
 5317SOL    HW217393   5.080   0.836   7.843  0.4951  1.4793 -0.2037
 5318SOL     OW17394   2.312   6.512   5.922  0.2996 -0.6191 -0.4907
 5318SOL    HW117395   2.368   6.445   5.961  0.1653 -0.4134  0.0659
 5318SOL    HW217396   2.223   6.485   5.944  0.2131 -0.5667 -0.7647
 5319SOL     OW17397   7.051   1.132  11.788  0.1599 -0.6636  0.2492
 5319SOL    HW117398   6.964   1.093  11.780 -1.0878  2.1158 -1.0614
 5319SOL    HW217399   7.043   1.193  11.862  1.1407 -0.6850  0.3835
 5320SOL     OW17400   2.388   6.761   7.053  0.0838  0.6899  0.2765
 5320SOL    HW117401   2.402   6.746   6.960 -2.2863  0.0497 -0.0392
 5320SOL    HW217402   2.405   6.676   7.094  1.9057  1.1571  0.5964
 5321SOL     OW17403   7.448   2.297  10.601  0.1137  0.1872  0.7304
 5321SOL    HW117404   7.413   2.343  10.525  1.6406  1.5993  0.8227
 5321SOL    HW217405   7.532   2.339  10.619 -0.0658 -0.2603  3.0481
 5322SOL     OW17406   4.870   1.547   7.163 -0.1529  0.0419  0.3197
 5322SOL    HW117407   4.908   1.462   7.139 -0.8201 -0.2954  0.4408
 5322SOL    HW217408   4.857   1.592   7.080  2.5418  1.0783  0.3647
 5323SOL     OW17409   0.333   7.140   5.991  0.4484  0.6513 -0.1786
 5323SOL    HW117410   0.290   7.171   5.911 -1.2055  0.0506  0.4334
 5323SOL    HW217411   0.335   7.045   5.981  0.6601  0.6042  0.2944
 5324SOL     OW17412   5.458   4.209  10.606 -0.0953  0.6341  0.4525
 5324SOL    HW117413   5.415   4.182  10.525  2.0183 -1.1958 -0.1682
 5324SOL    HW217414   5.467   4.304  10.598 -0.7320  0.5950 -1.0275
 5325SOL     OW17415   4.909   7.205   6.720  0.1823 -0.5449 -0.6935
 5325SOL    HW117416   4.905   7.204   6.624  1.5726  1.9569 -0.8718
 5325SOL    HW217417   4.837   7.261   6.746  2.2743  2.4016 -0.6790
 5326SOL     OW17418   6.928   5.029   7.186 -0.7839  0.5741 -0.2552
 5326SOL    HW117419   6.940   4.991   7.273 -0.8633  0.5322 -0.2625
 5326SOL    HW217420   6.848   4.989   7.153 -0.9567  0.8696 -0.1986
 5327SOL     OW17421   7.420   3.588   6.204 -0.4250  0.3251  0.1638
 5327SOL    HW117422   7.457   3.676   6.211 -0.8459  0.4648  0.7973
 5327SOL    HW217423   7.477   3.534   6.258  0.6971 -0.0959 -1.4007
 5328SOL     OW17424   2.726   6.368   9.559 -0.1181 -0.3303  0.2920
 5328SOL    HW117425   2.791   6.327   9.615 -0.2268 -0.9956 -0.0530
 5328SOL    HW217426   2.660   6.300   9.546 -2.8254  1.3719  3.5687
 5329SOL     OW17427   2.750   3.446   3.221 -0.5415  0.1500  0.3172
 5329SOL    HW117428   2.655   3.437   3.230 -0.5704 -1.6752 -1.3104
 5329SOL    HW217429   2.785   3.422   3.308 -1.4900 -0.8381  0.4403
 5330SOL     OW17430   1.757   0.331   1.870  0.2533  0.0414  0.6147
 5330SOL    HW117431   1.768   0.376   1.954 -0.0223  0.0687  0.6388
 5330SOL    HW217432   1.683   0.272   1.885  1.1547 -1.0557  0.8493
 5331SOL     OW17433   2.076   2.045   7.265  0.5974 -0.3213 -0.2619
 5331SOL    HW117434   2.123   2.078   7.189 -0.1631 -0.2546 -0.7147
 5331SOL    HW217435   2.035   1.964   7.235  0.6792 -0.5488  0.2191
 5332SOL     OW17436   1.638   2.980   4.910 -0.1918  0.3279 -0.1471
 5332SOL    HW117437   1.662   2.954   4.999 -0.2660 -0.5934 -0.3821
 5332SOL    HW217438   1.594   2.902   4.874  0.0495  0.6112 -1.0696
 5333SOL     OW17439   6.273   0.514   8.661 -0.7368  0.4297  0.3472
 5333SOL    HW117440   6.350   0.458   8.665 -0.4233  0.8192 -0.1162
 5333SOL    HW217441   6.230   0.503   8.746 -0.9420 -0.8685  0.1031
 5334SOL     OW17442   1.370   6.751  10.153  0.3805  0.0554  0.2219
 5334SOL    HW117443   1.410   6.696  10.084  0.3324 -0.2699  0.4487
 5334SOL    HW217444   1.443   6.773  10.211  0.1581 -0.9251  0.8929
 5335SOL     OW17445   6.231   3.620   7.345  0.0922 -0.1566  0.8110
 5335SOL    HW117446   6.295   3.635   7.414 -1.1993  0.1088  1.9852
 5335SOL    HW217447   6.257   3.680   7.275  1.6568 -0.7296  0.8722
 5336SOL     OW17448   7.968   5.280   4.173 -0.3197 -0.0831  0.4400
 5336SOL    HW117449   7.973   5.214   4.103  0.4789 -0.7826  1.1356
 5336SOL    HW217450   7.946   5.231   4.251 -0.4077  0.5797  0.8392
 5337SOL     OW17451   4.666   6.855  10.301 -0.4237 -0.3343  0.0404
 5337SOL    HW117452   4.662   6.824  10.391  0.9013  0.0336  0.2494
 5337SOL    HW217453   4.759   6.852  10.279 -0.5133  1.2600 -0.7066
 5338SOL     OW17454   5.963   2.129   9.012 -0.7127 -0.5139  0.4675
 5338SOL    HW117455   5.946   2.035   9.003 -1.0738 -0.4347  0.2873
 5338SOL    HW217456   5.947   2.148   9.104  2.2869 -1.1950  1.2259
 5339SOL     OW17457   0.731   7.005   2.306 -0.0228 -0.4831  0.5323
 5339SOL    HW117458   0.808   6.958   2.274  0.5087 -1.2917  2.8323
 5339SOL    HW217459   0.731   6.991   2.401 -2.5955  0.1131  0.7090
 5340SOL     OW17460   5.991   5.222   2.235 -0.5236 -0.3593  0.0886
 5340SOL    HW117461   5.996   5.258   2.323  0.6198  0.6559 -0.3649
 5340SOL    HW217462   5.898   5.225   2.213 -0.5560  1.6490  0.3545
 5341SOL     OW17463   6.580   7.846   3.333 -0.0021 -0.2142  0.3607
 5341SOL    HW117464   6.630   7.796   3.397  0.4537 -0.0811  0.1164
 5341SOL    HW217465   6.582   7.792   3.254  0.6549  0.2644  0.0378
 5342SOL     OW17466   0.328   6.482   8.983  0.3821 -0.6758 -0.1113
 5342SOL    HW117467   0.264   6.428   9.029 -0.5153  0.9494  0.6128
 5342SOL    HW217468   0.379   6.523   9.052  1.7126 -1.3175 -0.6687
 5343SOL     OW17469   6.563   7.686   0.334 -0.1588  0.4183  0.1017
 5343SOL    HW117470   6.531   7.697   0.245 -0.5127  1.1550  0.3088
 5343SOL    HW217471   6.615   7.764   0.351 -2.3196  1.6805  1.4407
 5344SOL     OW17472   2.711   1.341   2.254  0.4376  0.0693  0.2547
 5344SOL    HW117473   2.741   1.322   2.342  0.5234  0.7005  0.3696
 5344SOL    HW217474   2.779   1.397   2.217  0.8140 -0.8652 -0.5076
 5345SOL     OW17475   4.242   7.480   7.653  0.0953 -0.1666  0.3016
 5345SOL    HW117476   4.151   7.499   7.677 -0.1135  0.7435 -1.0883
 5345SOL    HW217477   4.260   7.395   7.692 -1.6520 -0.7851 -0.1423
 5346SOL     OW17478   5.398   5.966   8.068 -0.4764 -0.2689  0.2188
 5346SOL    HW117479   5.368   5.882   8.032 -1.4193 -0.8117  2.0983
 5346SOL    HW217480   5.408   6.023   7.992 -0.7553 -1.8018 -1.0235
 5347SOL     OW17481   7.033   5.911  10.679  0.0095  0.3383  0.3011
 5347SOL    HW117482   7.073   5.998  10.684 -0.2587  0.5089 -0.3658
 5347SOL    HW217483   6.951   5.920  10.727 -1.6096  1.4070 -2.4108
 5348SOL     OW17484   1.473   5.120   1.066  0.0938  0.3822  0.0846
 5348SOL    HW117485   1.550   5.119   1.123 -0.1025 -0.0419  0.3525
 5348SOL    HW217486   1.398   5.127   1.127 -0.1477 -0.6488 -0.0625
 5349SOL     OW17487   4.779   3.175  12.268 -0.1462 -0.0105  0.3083
 5349SOL    HW117488   4.836   3.250  12.251 -0.5293  0.0264 -0.9369
 5349SOL    HW217489   4.736   3.157  12.184 -1.0127 -0.8381  0.8913
 5350SOL     OW17490   1.963   1.717  10.514  0.2750 -0.0847  0.2870
 5350SOL    HW117491   1.911   1.678  10.584  0.5585 -0.6060  0.2110
 5350SOL    HW217492   1.905   1.782  10.474 -0.5330 -1.0474 -0.1602
 5351SOL     OW17493   2.299   5.205   4.446  0.1731  0.1764  0.6026
 5351SOL    HW117494   2.209   5.238   4.451 -0.0406 -0.0726 -1.0187
 5351SOL    HW217495   2.347   5.273   4.398  0.4939 -0.3510  0.1665
 5352SOL     OW17496   7.269   6.621   4.219  0.2915 -0.0235  0.3900
 5352SOL    HW117497   7.207   6.612   4.292  1.8548 -1.8333  1.6076
 5352SOL    HW217498   7.272   6.534   4.179  1.6334  0.1411  0.0685
 5353SOL     OW17499   2.835   7.894   3.260  0.1776  0.2475 -0.5049
 5353SOL    HW117500   2.810   7.807   3.228 -0.0748  0.7626 -1.7753
 5353SOL    HW217501   2.838   7.949   3.181  0.9870  1.2432  0.1827
 5354SOL     OW17502   4.494   0.631   1.903 -0.2184 -0.2473  0.0339
 5354SOL    HW117503   4.504   0.587   1.818 -1.7969 -0.1243 -0.2360
 5354SOL    HW217504   4.471   0.561   1.964  1.3772 -0.4133  0.4978
 5355SOL     OW17505   1.490   7.659  11.004  0.3047  0.5630 -0.2354
 5355SOL    HW117506   1.537   7.742  11.010 -0.0583  0.7919 -0.5162
 5355SOL    HW217507   1.428   7.671  10.932 -0.8146  0.5804  0.7122
 5356SOL     OW17508   6.244   7.833  11.437  0.4578  0.3778 -0.0607
 5356SOL    HW117509   6.255   7.747  11.397 -1.8406  0.7599 -1.7278
 5356SOL    HW217510   6.272   7.821  11.528  1.0309 -1.8631 -0.4700
 5357SOL     OW17511   5.914   6.087   9.506  0.2908  0.3476 -0.0405
 5357SOL    HW117512   5.913   6.099   9.601 -1.8772 -0.4724  0.0909
 5357SOL    HW217513   5.996   6.039   9.490  0.5840  0.2857  1.4427
 5358SOL     OW17514   2.434   3.971   5.639 -0.5664 -0.1978 -0.2702
 5358SOL    HW117515   2.494   4.030   5.594 -3.1787  0.4803 -3.2574
 5358SOL    HW217516   2.424   3.896   5.580 -1.1517 -1.2327  1.0806
 5359SOL     OW17517   2.714   1.065   1.534  0.3434  0.1952 -0.1166
 5359SOL    HW117518   2.775   0.992   1.541 -2.0470 -1.8100  1.4736
 5359SOL    HW217519   2.662   1.062   1.614 -1.5108  2.0964 -1.1211
 5360SOL     OW17520   2.820   4.153   4.345  0.3966  0.5947  0.9549
 5360SOL    HW117521   2.746   4.209   4.367  1.2496  1.7930  0.8703
 5360SOL    HW217522   2.781   4.068   4.325 -0.8392  0.8600  2.1013
 5361SOL     OW17523   6.719   0.750  10.857  0.1386 -0.3171  0.2314
 5361SOL    HW117524   6.800   0.710  10.828 -0.0641 -0.6457  0.1161
 5361SOL    HW217525   6.692   0.806  10.785  0.8341  0.6478  0.7041
 5362SOL     OW17526   6.335   2.125   4.484  0.4981  0.2236 -0.6920
 5362SOL    HW117527   6.332   2.031   4.497 -0.1115  0.1297 -1.4561
 5362SOL    HW217528   6.334   2.136   4.389 -0.3791  1.0278 -0.6039
 5363SOL     OW17529   5.296   7.245   4.588  0.0366  0.0688 -0.0950
 5363SOL    HW117530   5.354   7.170   4.603  0.1445  0.3335  0.9280
 5363SOL    HW217531   5.235   7.215   4.521 -0.5145 -1.2863  0.9392
 5364SOL     OW17532   1.337   1.765   4.487  0.3250 -0.3622  0.1824
 5364SOL    HW117533   1.302   1.676   4.481  1.4975 -0.7403 -3.2233
 5364SOL    HW217534   1.263   1.822   4.464  0.2029 -0.6311 -0.0928
 5365SOL     OW17535   7.293   1.470   3.308  0.5858 -0.1597 -0.3295
 5365SOL    HW117536   7.382   1.440   3.288  0.4268  0.1548 -1.5819
 5365SOL    HW217537   7.266   1.518   3.230 -0.5092  0.1620  0.2317
 5366SOL     OW17538   6.240   3.569   4.740 -0.1245  0.5355  0.0855
 5366SOL    HW117539   6.266   3.478   4.753 -0.7614  0.3109 -0.2067
 5366SOL    HW217540   6.199   3.570   4.654  0.3373  1.2032 -0.1367
 5367SOL     OW17541   3.897   2.653   1.851 -0.0134  0.3597 -0.4386
 5367SOL    HW117542   3.972   2.643   1.909 -1.0021 -0.8345  0.6680
 5367SOL    HW217543   3.872   2.745   1.860  0.5712  0.4700  0.1074
 5368SOL     OW17544   2.813   5.236   0.190 -0.6445  0.7882  0.5846
 5368SOL    HW117545   2.827   5.180   0.114  1.7441  0.9350  0.8472
 5368SOL    HW217546   2.717   5.243   0.197 -0.9438  0.0765 -1.8506
 5369SOL     OW17547   1.941   3.639   4.763 -0.2431 -0.1370  0.0828
 5369SOL    HW117548   1.876   3.595   4.817 -0.6515 -0.3364 -0.5650
 5369SOL    HW217549   1.963   3.718   4.813 -0.5758 -0.3394  0.5632
 5370SOL     OW17550   6.643   3.918  11.954 -0.4010 -0.3893  0.7615
 5370SOL    HW117551   6.621   4.002  11.915 -2.2625 -0.6681  1.1450
 5370SOL    HW217552   6.660   3.937  12.046  1.1283 -0.1702  0.4612
 5371SOL     OW17553   3.976   4.421   2.738 -0.4122 -0.2208  0.4636
 5371SOL    HW117554   4.005   4.345   2.687 -1.1450 -0.5156  0.4676
 5371SOL    HW217555   3.918   4.384   2.804 -1.1515  0.3858  0.1682
 5372SOL     OW17556   1.506   5.432   8.227  0.3741  0.4052 -0.0695
 5372SOL    HW117557   1.487   5.430   8.133 -0.1942  0.3606  0.0471
 5372SOL    HW217558   1.515   5.526   8.247 -2.5563  0.6570  0.4295
 5373SOL     OW17559   4.824   6.701   1.795 -0.1549 -0.1557  0.3856
 5373SOL    HW117560   4.775   6.640   1.740  0.0900 -0.4406  0.4861
 5373SOL    HW217561   4.898   6.651   1.827  1.3570  0.8016 -1.3796
 5374SOL     OW17562   1.182   3.905   3.058 -0.2372  0.4625  0.7175
 5374SOL    HW117563   1.095   3.868   3.069 -0.3937  0.7855  0.5921
 5374SOL    HW217564   1.172   3.997   3.083 -0.2973  0.8787 -0.7309
 5375SOL     OW17565   2.735   5.027   4.911 -0.1544 -0.1538 -0.2088
 5375SOL    HW117566   2.729   4.955   4.975  0.8759  0.8920  1.1167
 5375SOL    HW217567   2.698   5.102   4.956  2.0138  0.9860 -0.2195
 5376SOL     OW17568   7.650   0.135   8.912  0.2924 -0.1610  0.9898
 5376SOL    HW117569   7.611   0.084   8.841 -0.2751  1.6519 -0.0633
 5376SOL    HW217570   7.728   0.086   8.936  0.8038 -0.5851 -1.2710
 5377SOL     OW17571   5.187   1.539   9.151 -0.5840  0.2090 -0.3277
 5377SOL    HW117572   5.261   1.600   9.150 -1.6144  1.5118 -0.2063
 5377SOL    HW217573   5.222   1.457   9.116  0.7228  1.0140 -0.9647
 5378SOL     OW17574   5.656   3.363   5.680 -0.0714 -0.0741  0.8576
 5378SOL    HW117575   5.723   3.417   5.721  0.5660 -0.9115  0.9576
 5378SOL    HW217576   5.696   3.332   5.599 -0.1005 -1.0785  1.2155
 5379SOL     OW17577   0.093   3.170   3.088  0.4025 -0.0585  0.6096
 5379SOL    HW117578   0.070   3.234   3.156  0.3981  0.6410 -0.0299
 5379SOL    HW217579   0.175   3.131   3.119  0.4359  0.2982  0.9830
 5380SOL     OW17580   7.248   0.157   5.247  0.1581  0.0109  0.2499
 5380SOL    HW117581   7.205   0.072   5.242 -1.4970  0.8696 -1.3226
 5380SOL    HW217582   7.177   0.221   5.236  1.5763  1.5469 -0.4561
 5381SOL     OW17583   3.736   1.432   1.013  0.4423  0.5149  0.5435
 5381SOL    HW117584   3.811   1.373   1.001  0.6898  1.1061 -1.0528
 5381SOL    HW217585   3.773   1.520   1.005 -0.1738  0.8665  1.3705
 5382SOL     OW17586   1.989   4.589   9.900 -0.1954  0.2344 -0.2443
 5382SOL    HW117587   1.928   4.659   9.876 -0.7233 -1.1118 -3.2522
 5382SOL    HW217588   1.973   4.574   9.993  0.2866  4.3669  0.7200
 5383SOL     OW17589   1.353   6.521   8.929 -0.1083 -0.1110 -0.4198
 5383SOL    HW117590   1.338   6.437   8.884 -0.8375 -0.7396  0.9528
 5383SOL    HW217591   1.318   6.587   8.868 -1.8533 -1.0103 -0.4665
 5384SOL     OW17592   1.291   4.380   3.789  0.2348 -0.2545  0.5737
 5384SOL    HW117593   1.223   4.443   3.765  1.1061  0.9940  1.2776
 5384SOL    HW217594   1.244   4.297   3.800 -0.9532  0.2896 -0.2621
 5385SOL     OW17595   6.462   6.921   6.781  0.0300  0.2251  0.0693
 5385SOL    HW117596   6.492   6.929   6.690 -0.8884  1.6059 -0.1477
 5385SOL    HW217597   6.369   6.900   6.774 -0.0804  0.4818  0.6736
 5386SOL     OW17598   3.006   7.336   4.097 -0.0982  0.4340 -0.2139
 5386SOL    HW117599   2.956   7.305   4.173 -0.6045  0.5659 -0.4911
 5386SOL    HW217600   3.093   7.356   4.132 -0.0688 -0.3179  0.1695
 5387SOL     OW17601   5.993   3.007   7.140  0.1709 -0.0172 -0.7811
 5387SOL    HW117602   5.998   3.102   7.154 -2.0740  0.1351 -0.6528
 5387SOL    HW217603   5.958   2.973   7.223 -0.1860 -0.8075 -1.2458
 5388SOL     OW17604   2.208   1.184   6.329  0.5315 -0.6011  0.3118
 5388SOL    HW117605   2.213   1.276   6.354  0.5693 -0.6587  0.5171
 5388SOL    HW217606   2.215   1.184   6.233  2.3961 -0.5122  0.4155
 5389SOL     OW17607   1.856   6.043   1.110  0.2033  0.2566 -0.0639
 5389SOL    HW117608   1.833   5.952   1.128 -1.7681  0.7417  0.1963
 5389SOL    HW217609   1.913   6.069   1.182 -1.6528  0.0512  1.5790
 5390SOL     OW17610   6.364   2.609  10.980  0.4244  0.1837  0.0475
 5390SOL    HW117611   6.407   2.552  11.043  0.0226  0.2240  0.3639
 5390SOL    HW217612   6.342   2.688  11.030 -2.8445 -1.0324  0.7835
 5391SOL     OW17613   2.793   0.372   7.205 -0.5240 -0.4167  0.6488
 5391SOL    HW117614   2.781   0.447   7.263  0.5668  0.4287 -0.1618
 5391SOL    HW217615   2.877   0.390   7.161 -1.7325 -0.5130 -1.8882
 5392SOL     OW17616   3.908   4.613  12.168  0.0079 -0.4536  0.1852
 5392SOL    HW117617   3.950   4.632  12.252  1.9204  2.0387 -1.2096
 5392SOL    HW217618   3.932   4.522  12.149  2.0068 -0.1396  0.9982
 5393SOL     OW17619   1.858   2.908   9.419  0.1602  0.1300 -0.0937
 5393SOL    HW117620   1.936   2.860   9.394  0.2826  0.6085 -0.6505
 5393SOL    HW217621   1.798   2.898   9.345 -0.7550 -1.1497  0.7622
 5394SOL     OW17622   2.007   4.585   0.363  0.0548  0.9023  0.3308
 5394SOL    HW117623   1.966   4.610   0.446 -1.7163  0.9640 -0.4978
 5394SOL    HW217624   1.985   4.658   0.304 -0.0507  0.1405 -0.5827
 5395SOL     OW17625   6.211   7.853   6.202 -0.7232  0.1243 -0.2292
 5395SOL    HW117626   6.225   7.946   6.223 -1.6508  0.2372 -0.0498
 5395SOL    HW217627   6.128   7.852   6.154  0.1189 -0.4297 -1.7344
 5396SOL     OW17628   0.032   2.041   8.804 -0.0972 -0.2801 -0.0833
 5396SOL    HW117629   0.011   2.120   8.753  0.4594  1.8599  2.7622
 5396SOL    HW217630  -0.017   1.971   8.761 -1.9189  1.8999 -1.8128
 5397SOL     OW17631   3.435   4.928  11.684  0.2736  0.1930 -0.2673
 5397SOL    HW117632   3.422   4.898  11.594 -0.9550 -0.5204  0.1325
 5397SOL    HW217633   3.527   4.907  11.703  0.4223 -0.0394 -1.1941
 5398SOL     OW17634   6.966   0.214   0.572  0.1672  0.4456 -0.2389
 5398SOL    HW117635   6.923   0.230   0.488  0.6632  1.3688 -0.3217
 5398SOL    HW217636   6.986   0.120   0.571 -1.4156  0.0774 -0.3888
 5399SOL     OW17637   3.457   7.506   9.856 -0.3343  0.5816  0.5661
 5399SOL    HW117638   3.389   7.568   9.828 -1.3039  0.7668  3.0641
 5399SOL    HW217639   3.409   7.425   9.876  0.3634  0.2951  1.1066
 5400SOL     OW17640   3.422   4.830  11.417  0.3386  0.1457  0.1025
 5400SOL    HW117641   3.490   4.764  11.417 -0.3934 -0.6521 -1.0156
 5400SOL    HW217642   3.343   4.783  11.388 -0.5683  1.1456  0.8752
 5401SOL     OW17643   3.493   1.819  10.259  0.8521  0.1559 -0.0294
 5401SOL    HW117644   3.454   1.834  10.173  1.7930  0.3119 -0.4423
 5401SOL    HW217645   3.510   1.906  10.294 -0.3201  0.1087  0.7020
 5402SOL     OW17646   0.676   1.534   0.697 -0.0018  0.3565  0.2328
 5402SOL    HW117647   0.767   1.543   0.725  0.4807 -0.1348 -1.1131
 5402SOL    HW217648   0.661   1.610   0.641 -0.3413  0.2761  0.2108
 5403SOL     OW17649   5.583   0.804   7.516 -0.2295  0.0644 -0.3505
 5403SOL    HW117650   5.636   0.727   7.494 -1.0869 -0.4658 -0.6074
 5403SOL    HW217651   5.509   0.769   7.566 -1.8242  0.3962 -2.3627
 5404SOL     OW17652   3.955   3.744  10.079  0.3299 -0.3372  0.1024
 5404SOL    HW117653   3.938   3.810  10.012 -2.7950 -1.8824 -0.8160
 5404SOL    HW217654   4.041   3.707  10.056  1.1352  1.8507 -0.6211
 5405SOL     OW17655   2.154   6.591  11.015 -0.2229  0.3582 -0.4713
 5405SOL    HW117656   2.244   6.584  10.984  0.4453 -0.4165  1.4627
 5405SOL    HW217657   2.119   6.502  11.005  0.5546 -0.3761  2.3042
 5406SOL     OW17658   0.129   2.167  10.054  0.3748  0.0453  0.5822
 5406SOL    HW117659   0.128   2.263  10.053 -1.1238  0.1273  2.5732
 5406SOL    HW217660   0.043   2.143  10.088  0.4968 -2.0502 -0.4345
 5407SOL     OW17661   1.664   5.882   4.428  0.2583  0.2094  0.3158
 5407SOL    HW117662   1.604   5.809   4.444  1.1926 -0.2068  2.3487
 5407SOL    HW217663   1.731   5.846   4.370 -0.1240 -0.0653  0.0405
 5408SOL     OW17664   1.308   2.305  11.913 -0.2712  0.1697 -0.1480
 5408SOL    HW117665   1.249   2.235  11.939  0.3107 -0.7237 -1.1476
 5408SOL    HW217666   1.333   2.283  11.823 -0.8459  2.1821 -0.8639
 5409SOL     OW17667   5.519   2.092   0.728  0.4575  0.2539 -0.4152
 5409SOL    HW117668   5.614   2.080   0.733  0.5315  0.4037 -1.3751
 5409SOL    HW217669   5.491   2.095   0.820  1.4752  0.9731 -0.1058
 5410SOL     OW17670   7.655   5.648   8.598  0.2851  0.2814  0.0617
 5410SOL    HW117671   7.718   5.638   8.527 -0.0429  0.5161 -0.2631
 5410SOL    HW217672   7.694   5.714   8.656  0.8026 -0.2937  0.3819
 5411SOL     OW17673   4.727   5.913   7.879  0.6430 -0.1882 -0.0758
 5411SOL    HW117674   4.790   5.965   7.828  0.1106  1.0083  0.4489
 5411SOL    HW217675   4.644   5.923   7.833  0.1043  1.1054  1.1135
 5412SOL     OW17676   6.965   0.056   6.679  0.3042  0.3197  0.7006
 5412SOL    HW117677   6.892  -0.001   6.699  0.8661  0.4065  3.2841
 5412SOL    HW217678   6.930   0.145   6.688  0.4814  0.3627  0.9803
 5413SOL     OW17679   0.346   0.748   0.849  0.3429  0.1716  0.9292
 5413SOL    HW117680   0.285   0.803   0.801  0.1698 -0.8108 -0.0297
 5413SOL    HW217681   0.417   0.806   0.875 -0.7793  1.2490  1.6987
 5414SOL     OW17682   0.846   4.782   4.821  0.1299  0.0088 -0.1863
 5414SOL    HW117683   0.775   4.760   4.881 -0.5773  1.0684 -0.5983
 5414SOL    HW217684   0.895   4.851   4.865  0.9987 -0.7881  0.1418
 5415SOL     OW17685   5.917   3.709   8.714  0.1326 -0.2166 -0.0620
 5415SOL    HW117686   5.888   3.646   8.648 -0.0837  0.6232 -0.7853
 5415SOL    HW217687   5.835   3.742   8.753  0.1646  0.7264 -0.7521
 5416SOL     OW17688   1.535   1.205   7.076 -0.1003 -0.0041  0.6156
 5416SOL    HW117689   1.475   1.226   7.005  0.5525  1.0779  0.3601
 5416SOL    HW217690   1.601   1.274   7.073 -0.3432  0.3740  2.6118
 5417SOL     OW17691   6.068   5.777   6.658 -0.4410  0.1390 -0.5572
 5417SOL    HW117692   6.054   5.724   6.580 -2.0259 -0.5520  0.1571
 5417SOL    HW217693   6.159   5.761   6.682 -1.1854 -3.4463  0.4436
 5418SOL     OW17694   7.230   7.761   5.952 -0.4289  0.4672 -0.1513
 5418SOL    HW117695   7.179   7.726   5.879 -0.5635  0.6958 -0.1675
 5418SOL    HW217696   7.279   7.686   5.985 -0.5773  0.3023 -0.3025
 5419SOL     OW17697   7.517   6.899  11.905 -0.3157  0.2055  0.2451
 5419SOL    HW117698   7.569   6.965  11.951 -1.5840 -0.0168  2.0993
 5419SOL    HW217699   7.456   6.950  11.851  1.1915  0.4692 -1.2789
 5420SOL     OW17700   1.930   2.128   7.513  0.4097  0.2083  0.0792
 5420SOL    HW117701   1.987   2.087   7.448 -0.7501 -0.1264 -0.7490
 5420SOL    HW217702   1.931   2.221   7.490  0.2266  0.1312 -0.2441
 5421SOL     OW17703   2.157   0.604   6.376  0.1424  0.2014  0.4091
 5421SOL    HW117704   2.239   0.649   6.356 -0.8492  0.8971 -2.6705
 5421SOL    HW217705   2.092   0.674   6.377 -0.6729 -0.5561  0.9417
 5422SOL     OW17706   2.118   1.512  10.401 -0.0883 -0.1500  0.3357
 5422SOL    HW117707   2.054   1.481  10.338 -0.8932  1.8323  0.1234
 5422SOL    HW217708   2.084   1.595  10.432  2.7638  1.4912 -0.4719
 5423SOL     OW17709   6.482   4.386   6.294  0.3189  0.0966  0.2121
 5423SOL    HW117710   6.541   4.420   6.361  0.9570 -1.3322  0.4092
 5423SOL    HW217711   6.522   4.415   6.211  0.4141  0.4887  0.3928
 5424SOL     OW17712   1.377   0.923   6.472 -0.2556  0.2101 -0.4552
 5424SOL    HW117713   1.286   0.952   6.485 -0.3442  0.2292 -1.0839
 5424SOL    HW217714   1.398   0.876   6.553 -1.5712 -1.6652 -1.1212
 5425SOL     OW17715   3.224   2.213   1.886  0.2499 -0.2571  0.1919
 5425SOL    HW117716   3.169   2.290   1.896 -2.3798 -1.8874 -0.5779
 5425SOL    HW217717   3.244   2.186   1.975 -1.7511 -0.5674  0.6102
 5426SOL     OW17718   5.881   0.509   3.610 -0.5579  0.0418 -0.1960
 5426SOL    HW117719   5.940   0.520   3.685 -0.2333 -2.6006  0.0499
 5426SOL    HW217720   5.936   0.529   3.534  0.6329 -1.9237  0.0588
 5427SOL     OW17721   7.401   4.941  10.826 -0.5181 -0.3635 -0.6263
 5427SOL    HW117722   7.312   4.914  10.850 -0.8928  0.3885 -1.1289
 5427SOL    HW217723   7.432   4.991  10.901  0.3167 -2.3882  0.4716
 5428SOL     OW17724   3.193   2.270   0.544 -0.5123  0.5210  0.3416
 5428SOL    HW117725   3.178   2.180   0.517  1.3304  0.5025 -0.8045
 5428SOL    HW217726   3.263   2.264   0.610  0.7126  1.1671 -0.8344
 5429SOL     OW17727   4.446   7.649   1.312 -0.2712  0.1518 -0.0313
 5429SOL    HW117728   4.390   7.613   1.381 -1.0668  0.2357 -0.6086
 5429SOL    HW217729   4.386   7.703   1.260  0.5266  0.8865 -0.2041
 5430SOL     OW17730   2.763   3.700   4.112 -0.0123 -0.3581 -0.3170
 5430SOL    HW117731   2.789   3.679   4.201  0.9506 -2.3896 -1.0109
 5430SOL    HW217732   2.693   3.764   4.121  1.2807  0.8573  1.8170
 5431SOL     OW17733   5.591   2.830  11.064  0.0058 -0.1228  0.4715
 5431SOL    HW117734   5.631   2.783  11.137  0.1615  0.1209  0.5416
 5431SOL    HW217735   5.496   2.818  11.078  0.0319 -0.0087  0.7578
 5432SOL     OW17736   6.494   0.220   3.492  0.0964 -0.1226 -0.4283
 5432SOL    HW117737   6.418   0.189   3.541  0.1356  0.0864 -0.2375
 5432SOL    HW217738   6.499   0.314   3.511 -1.1509  0.4226 -2.5020
 5433SOL     OW17739   3.479   0.601   7.671 -0.1264  0.1222  0.3562
 5433SOL    HW117740   3.499   0.596   7.765  2.9956 -2.0355 -0.2680
 5433SOL    HW217741   3.425   0.524   7.654  1.6682 -1.1321  0.0118
 5434SOL     OW17742   1.408   5.921   4.678  0.5889  0.0907 -0.2893
 5434SOL    HW117743   1.476   5.879   4.625  0.6407  0.6539 -0.6804
 5434SOL    HW217744   1.344   5.952   4.615  0.0573 -0.2676  0.0671
 5435SOL     OW17745   4.225   2.737  10.692 -0.4615 -0.3749  0.1993
 5435SOL    HW117746   4.148   2.705  10.738 -0.6195  0.6719  0.6875
 5435SOL    HW217747   4.254   2.663  10.638 -1.1638 -1.1208  0.8322
 5436SOL     OW17748   5.637   3.633   1.812  0.4256 -0.7605  0.0454
 5436SOL    HW117749   5.562   3.604   1.864  0.0464  0.3572  0.1587
 5436SOL    HW217750   5.700   3.562   1.820 -1.2279 -2.5077 -1.4316
 5437SOL     OW17751   2.795   1.013  12.044 -0.4343  0.3809  0.2019
 5437SOL    HW117752   2.710   1.050  12.069 -0.8859 -0.9242  0.7543
 5437SOL    HW217753   2.817   1.055  11.961 -1.0938  1.5421  0.5974
 5438SOL     OW17754   7.659   6.011   7.944  0.0764 -0.4547  0.5380
 5438SOL    HW117755   7.666   6.081   8.009 -0.6966 -1.4459  1.7509
 5438SOL    HW217756   7.577   6.029   7.898  0.0634 -0.3650  0.5945
 5439SOL     OW17757   1.267   3.869   9.213 -0.2191 -0.0866 -0.1561
 5439SOL    HW117758   1.191   3.812   9.223 -0.1612 -0.1797 -0.2492
 5439SOL    HW217759   1.277   3.881   9.119 -0.1807  0.0095 -0.1404
 5440SOL     OW17760   1.607   5.818   1.260  0.4166  0.1461  0.3583
 5440SOL    HW117761   1.573   5.732   1.284  0.4179 -0.0165 -0.2095
 5440SOL    HW217762   1.701   5.805   1.249  0.2506 -0.0955 -1.0158
 5441SOL     OW17763   4.683   5.931   8.405  0.5675 -0.2925  0.0954
 5441SOL    HW117764   4.712   5.841   8.419  1.1645 -0.2396 -0.7186
 5441SOL    HW217765   4.669   5.938   8.311 -1.4214 -0.0868  0.3657
 5442SOL     OW17766   7.448   5.645   0.202 -0.9363 -0.5174  0.3287
 5442SOL    HW117767   7.533   5.687   0.191 -0.4590 -1.8458 -1.3092
 5442SOL    HW217768   7.457   5.593   0.282  0.2879 -1.7280 -0.5487
 5443SOL     OW17769   4.445   2.630  11.500 -0.0992 -0.8663 -0.3331
 5443SOL    HW117770   4.465   2.639  11.593 -1.2972 -1.7311  0.0299
 5443SOL    HW217771   4.431   2.536  11.487 -2.6210 -0.4878 -0.7860
 5444SOL     OW17772   1.899   5.468   7.071  0.1376  0.1769  0.2322
 5444SOL    HW117773   1.834   5.441   7.006 -1.4196  1.9353  0.9697
 5444SOL    HW217774   1.875   5.421   7.150 -1.3281  2.0116  0.9548
 5445SOL     OW17775   0.109   0.899   3.278 -0.3757  0.2204 -0.0503
 5445SOL    HW117776   0.020   0.866   3.264 -0.5797  0.8375 -0.2234
 5445SOL    HW217777   0.105   0.991   3.252  0.0161  0.5687  1.0763
 5446SOL     OW17778   5.004   3.388   1.591 -0.3732  0.2821  0.2882
 5446SOL    HW117779   5.041   3.333   1.659  1.0688  1.9009  0.8876
 5446SOL    HW217780   4.957   3.327   1.534  1.8506 -1.6974  0.4093
 5447SOL     OW17781   0.676   0.294   5.150 -0.5170  0.4889  0.0455
 5447SOL    HW117782   0.757   0.298   5.201 -0.6006 -2.3114  0.5273
 5447SOL    HW217783   0.704   0.308   5.059  0.2874  0.9681  0.3562
 5448SOL     OW17784   3.915   7.887  10.714  0.4140  0.3851 -0.0458
 5448SOL    HW117785   3.949   7.810  10.667  1.7180  0.1949  1.1484
 5448SOL    HW217786   3.831   7.905  10.673  0.6921 -0.8809 -1.2294
 5449SOL     OW17787   6.126   1.093   3.279  0.2335 -0.8174 -0.3970
 5449SOL    HW117788   6.100   1.097   3.187  1.0473 -0.2102 -0.6120
 5449SOL    HW217789   6.208   1.143   3.283 -0.2506 -0.0792  0.8226
 5450SOL     OW17790   1.762   2.617   6.627 -0.0560 -0.4784 -0.0296
 5450SOL    HW117791   1.685   2.580   6.670 -1.1804 -0.7972 -2.1533
 5450SOL    HW217792   1.726   2.677   6.561  1.5409 -0.0782 -0.5948
 5451SOL     OW17793   1.192   0.728   8.998 -0.7856  0.1642 -0.2878
 5451SOL    HW117794   1.116   0.673   9.015 -1.9642  1.4369 -1.2268
 5451SOL    HW217795   1.161   0.794   8.935  1.4410 -0.0665 -1.7523
 5452SOL     OW17796   6.816   7.387  10.704 -0.3280 -0.1698 -0.3819
 5452SOL    HW117797   6.909   7.403  10.724 -0.4559  1.5099 -0.9251
 5452SOL    HW217798   6.781   7.474  10.685 -1.8577 -0.8653 -0.8883
 5453SOL     OW17799   4.065   7.733   4.123  0.2455 -0.2928  0.0493
 5453SOL    HW117800   4.095   7.676   4.194  1.5610  1.8705  1.3538
 5453SOL    HW217801   4.143   7.749   4.071 -0.3169 -0.4152 -0.8433
 5454SOL     OW17802   5.738   6.716   5.018 -0.0423  0.0894 -0.1937
 5454SOL    HW117803   5.780   6.639   4.982  0.0903  0.1801 -0.2339
 5454SOL    HW217804   5.699   6.761   4.943 -0.5393 -0.1917 -0.1112
 5455SOL     OW17805   1.720   4.169   0.412  0.4676 -0.0689  0.2579
 5455SOL    HW117806   1.735   4.242   0.352  1.8604 -1.5031 -1.2054
 5455SOL    HW217807   1.642   4.196   0.462 -1.3454  0.8243 -2.7824
 5456SOL     OW17808   1.411   5.365  11.300 -0.1966  0.0353 -0.1601
 5456SOL    HW117809   1.380   5.281  11.332  0.5903 -0.9812 -1.9467
 5456SOL    HW217810   1.445   5.410  11.378 -3.0409 -0.1295  1.2936
 5457SOL     OW17811   4.755   2.525   0.353 -0.7148  0.1545  0.0773
 5457SOL    HW117812   4.778   2.602   0.406  2.1308 -0.3369 -0.3117
 5457SOL    HW217813   4.731   2.458   0.417  0.4002  0.2698  0.6339
 5458SOL     OW17814   0.942   0.980   5.832  0.0900 -0.0198  0.0669
 5458SOL    HW117815   0.898   0.905   5.873  0.1213  0.1420  0.4081
 5458SOL    HW217816   1.014   1.001   5.892 -1.3003  1.7372  1.2386
 5459SOL     OW17817   4.684   5.106   5.781  0.4664 -0.4956 -0.0116
 5459SOL    HW117818   4.659   5.121   5.690 -1.2369  1.9190  0.7697
 5459SOL    HW217819   4.603   5.116   5.831  1.8370  1.4560  2.0355
 5460SOL     OW17820   3.178   7.632   1.533 -0.5170  0.1809 -0.0148
 5460SOL    HW117821   3.092   7.665   1.507 -0.0349  1.6710  0.1391
 5460SOL    HW217822   3.239   7.702   1.507  0.4563 -0.1281  1.3161
 5461SOL     OW17823   3.174   7.522   0.224 -0.3726  0.3670  0.0553
 5461SOL    HW117824   3.089   7.489   0.195  0.3495 -0.1821 -1.5583
 5461SOL    HW217825   3.164   7.617   0.223 -1.7074  0.3072  2.3208
 5462SOL     OW17826   6.049   7.303  11.025 -0.2437 -0.2889 -0.2219
 5462SOL    HW117827   6.113   7.359  10.982  1.3737  1.6063  4.1186
 5462SOL    HW217828   5.965   7.347  11.011  0.3049  0.5679 -0.8944
 5463SOL     OW17829   5.871   1.974   3.096 -0.2116  0.2949  0.3411
 5463SOL    HW117830   5.802   2.038   3.115  0.6005  1.2799  0.0734
 5463SOL    HW217831   5.944   2.001   3.151  0.2078 -0.2961  0.0785
 5464SOL     OW17832   5.731   0.258  10.061  0.1852  0.3656 -0.4209
 5464SOL    HW117833   5.762   0.244  10.150  0.0716 -0.6267 -0.5291
 5464SOL    HW217834   5.699   0.348  10.060 -1.8762 -0.2819  1.1680
 5465SOL     OW17835   3.128   7.403   9.244 -0.6722 -0.1147 -0.4051
 5465SOL    HW117836   3.137   7.445   9.158  0.1447 -1.0941 -0.8218
 5465SOL    HW217837   3.061   7.336   9.231 -1.1284  0.2663 -0.0532
 5466SOL     OW17838   7.443   7.436   6.335 -0.4062  0.5830  0.1670
 5466SOL    HW117839   7.539   7.433   6.331 -0.4537 -0.3165 -1.5144
 5466SOL    HW217840   7.418   7.353   6.376 -0.4902 -1.0291 -2.8414
 5467SOL     OW17841   0.305   3.968   4.123 -0.8050  0.2742 -0.0635
 5467SOL    HW117842   0.388   3.972   4.075 -0.8221 -2.7566 -0.5496
 5467SOL    HW217843   0.240   4.002   4.062 -0.1551  1.0861 -0.3140
 5468SOL     OW17844   2.595   6.084   7.472 -0.0357  0.9208  0.3544
 5468SOL    HW117845   2.682   6.092   7.433 -0.0677  1.1112  0.3212
 5468SOL    HW217846   2.551   6.018   7.419  0.7386 -0.6175  1.5462
 5469SOL     OW17847   7.288   3.039   0.051 -0.0091 -0.1331 -0.5235
 5469SOL    HW117848   7.268   3.087   0.132 -0.0586 -0.2220 -0.4825
 5469SOL    HW217849   7.359   2.980   0.076  1.3407  1.2068 -1.0232
 5470SOL     OW17850   1.017   5.426   5.214 -0.3246  0.0617  0.5300
 5470SOL    HW117851   1.006   5.506   5.162 -0.6189 -0.6524 -0.5596
 5470SOL    HW217852   1.086   5.377   5.168 -1.2833 -1.0385  0.2195
 5471SOL     OW17853   2.424   1.200   3.987  0.0621  0.4922 -0.0081
 5471SOL    HW117854   2.354   1.148   4.027  1.3828  0.2871  2.1836
 5471SOL    HW217855   2.381   1.247   3.916 -1.5821 -2.1283 -0.8761
 5472SOL     OW17856   0.505   5.261   8.967 -0.4158  0.2555  0.4844
 5472SOL    HW117857   0.456   5.184   8.995 -0.1180  0.1434  0.7000
 5472SOL    HW217858   0.451   5.335   8.995 -1.1258  0.1252 -0.4866
 5473SOL     OW17859   1.843   7.225   5.525  0.5883 -0.2968 -0.0521
 5473SOL    HW117860   1.860   7.255   5.436 -0.2853 -1.3870 -0.6243
 5473SOL    HW217861   1.793   7.296   5.566  1.1967  0.3076 -0.3397
 5474SOL     OW17862   2.645   6.436  11.932  0.2630  0.7257 -0.2890
 5474SOL    HW117863   2.678   6.353  11.966  0.3914 -0.2736 -2.6484
 5474SOL    HW217864   2.714   6.500  11.953  0.4833  0.1155  0.9220
 5475SOL     OW17865   7.301   0.413   3.896  0.1591  0.6281  0.2510
 5475SOL    HW117866   7.326   0.397   3.805  0.9780  1.2414  0.3621
 5475SOL    HW217867   7.234   0.347   3.914 -0.7245  1.1167 -1.0983
 5476SOL     OW17868   2.006   2.078   0.478 -0.1804 -0.3287 -0.0879
 5476SOL    HW117869   2.052   2.042   0.402 -0.0845 -0.0071 -0.1888
 5476SOL    HW217870   2.074   2.122   0.529  0.1520 -2.3968  1.3542
 5477SOL     OW17871   7.501   5.151   9.390 -0.3349  0.2727 -0.3046
 5477SOL    HW117872   7.513   5.184   9.302 -0.7023 -2.3690 -1.4492
 5477SOL    HW217873   7.498   5.229   9.445  2.2257  1.9377 -2.2760
 5478SOL     OW17874   0.385   4.199   3.024  0.5059  0.2046  0.6596
 5478SOL    HW117875   0.354   4.290   3.026 -2.5856 -0.7506  0.9297
 5478SOL    HW217876   0.438   4.194   2.944 -0.9492  1.7583 -0.4745
 5479SOL     OW17877   4.266   0.852   4.258  0.4215 -0.1608  0.8172
 5479SOL    HW117878   4.285   0.758   4.267  0.8031 -0.0120  1.6210
 5479SOL    HW217879   4.196   0.868   4.322  0.0906  0.0281  0.4100
 5480SOL     OW17880   7.195   1.249   4.340 -0.4381  0.6990  0.8124
 5480SOL    HW117881   7.137   1.185   4.382  0.0146 -0.2230  0.0720
 5480SOL    HW217882   7.234   1.298   4.412  1.4794 -1.8133  1.6404
 5481SOL     OW17883   1.422   4.174   7.059 -0.1835 -0.1576  0.0974
 5481SOL    HW117884   1.471   4.222   6.991 -1.8192  2.4593  0.6198
 5481SOL    HW217885   1.475   4.185   7.138 -1.6244  3.2008  0.8051
 5482SOL     OW17886   5.751   0.141   9.734 -0.4320 -0.1616  0.0836
 5482SOL    HW117887   5.663   0.138   9.696 -0.4473 -0.4263  0.1381
 5482SOL    HW217888   5.779   0.050   9.736  0.2851  0.0119 -0.9702
 5483SOL     OW17889   0.805   4.060  10.700 -0.2210  0.0589  0.1084
 5483SOL    HW117890   0.867   4.081  10.631  0.3719 -0.7532  0.3662
 5483SOL    HW217891   0.835   3.975  10.734  0.8514  1.4018  2.8387
 5484SOL     OW17892   4.318   2.591   7.494 -0.7313 -0.0802 -0.3231
 5484SOL    HW117893   4.237   2.635   7.517 -0.4384 -0.2593  1.1301
 5484SOL    HW217894   4.386   2.658   7.503 -0.3611 -0.6415  1.3261
 5485SOL     OW17895   0.565   3.655  11.950  0.4017 -0.2431  0.6081
 5485SOL    HW117896   0.546   3.748  11.943 -1.6760 -0.5246  1.5888
 5485SOL    HW217897   0.651   3.644  11.910 -0.2199  1.7480 -1.4704
 5486SOL     OW17898   1.859   2.922   0.798 -0.0443  0.0281 -0.0999
 5486SOL    HW117899   1.821   2.967   0.723  0.9406 -0.5917 -0.9984
 5486SOL    HW217900   1.950   2.953   0.801  0.0343 -0.2419  0.6033
 5487SOL     OW17901   3.839   4.135   3.764 -0.3651  0.2283  0.4522
 5487SOL    HW117902   3.799   4.133   3.677  1.3263  0.1620 -0.3573
 5487SOL    HW217903   3.806   4.215   3.804 -2.7194 -0.7065  0.5639
 5488SOL     OW17904   5.049   6.556  12.331 -0.2696 -0.6414 -0.3971
 5488SOL    HW117905   5.005   6.624  12.281 -1.0417 -0.4003  0.5710
 5488SOL    HW217906   5.093   6.603  12.402 -0.8687 -1.1466  0.3240
 5489SOL     OW17907   2.723   0.274  11.782 -0.4613 -0.1748  0.7914
 5489SOL    HW117908   2.810   0.313  11.776  0.8413 -2.5860  2.4230
 5489SOL    HW217909   2.738   0.180  11.776 -3.0712 -0.6364  0.2746
 5490SOL     OW17910   1.908   2.411  10.951 -0.0047 -0.5593 -0.2083
 5490SOL    HW117911   1.816   2.406  10.978  0.3327  0.8553  1.3656
 5490SOL    HW217912   1.955   2.357  11.015  0.2927 -1.3117 -1.0296
 5491SOL     OW17913   1.700   1.135   8.538  0.3441  0.1220 -0.2014
 5491SOL    HW117914   1.711   1.229   8.526 -1.0173  0.4745  1.0704
 5491SOL    HW217915   1.765   1.096   8.479  0.7473  1.8334 -0.9574
 5492SOL     OW17916   1.987   4.215   8.699 -0.4354 -0.2610  0.1236
 5492SOL    HW117917   1.978   4.211   8.794  0.0711  1.4560  0.2677
 5492SOL    HW217918   1.900   4.238   8.667 -0.7671 -1.4929  0.1018
 5493SOL     OW17919   7.459   5.509   2.916 -0.4059 -0.2722  0.2576
 5493SOL    HW117920   7.466   5.590   2.966 -1.3722 -0.5680  0.9057
 5493SOL    HW217921   7.459   5.440   2.983 -1.2410 -0.6984 -0.1643
 5494SOL     OW17922   6.506   1.742   0.786  0.3217  0.1652  0.3492
 5494SOL    HW117923   6.528   1.730   0.878  0.5919  0.9021  0.3879
 5494SOL    HW217924   6.555   1.674   0.740  0.3881 -0.0404  0.7285
 5495SOL     OW17925   3.016   1.342   0.712 -0.3446  0.3447  0.1401
 5495SOL    HW117926   2.957   1.417   0.727 -1.0856 -0.2482  0.2750
 5495SOL    HW217927   2.994   1.281   0.782 -0.9244 -0.6982 -0.9234
 5496SOL     OW17928   2.881   4.222   2.504  0.2072  0.2009  0.0411
 5496SOL    HW117929   2.971   4.248   2.525  0.3708  1.0471 -1.5097
 5496SOL    HW217930   2.889   4.135   2.465  0.3380  0.1618  0.1568
 5497SOL     OW17931   7.969   2.947   1.179  0.3030  0.3532 -0.7001
 5497SOL    HW117932   8.005   2.859   1.185  0.3758  0.4180 -0.1543
 5497SOL    HW217933   8.025   3.000   1.235  0.6286  0.8704 -1.4993
 5498SOL     OW17934   3.462   4.457   5.543  0.4593 -0.0359 -0.1391
 5498SOL    HW117935   3.487   4.485   5.631  1.3035  0.4471 -0.5152
 5498SOL    HW217936   3.455   4.538   5.493 -1.3905 -0.1944 -0.2048
 5499SOL     OW17937   3.295   1.795   7.988 -0.0618 -0.4866  0.1002
 5499SOL    HW117938   3.263   1.879   7.954  2.3923  0.5424  0.1905
 5499SOL    HW217939   3.291   1.805   8.083 -0.3296 -0.7241  0.1170
 5500SOL     OW17940   0.855   6.305   4.190  0.1139  0.2897  0.3921
 5500SOL    HW117941   0.760   6.318   4.195  0.1598  0.9030 -0.1027
 5500SOL    HW217942   0.884   6.303   4.281 -0.7148 -2.9144  0.6866
 5501SOL     OW17943   6.297   7.437   8.094 -0.0284  0.2957  0.3019
 5501SOL    HW117944   6.329   7.408   8.008 -2.2818  2.1415 -1.2826
 5501SOL    HW217945   6.249   7.362   8.128 -0.2167 -0.0497 -0.6705
 5502SOL     OW17946   2.213   3.350  11.827  0.4114  0.1782 -0.6365
 5502SOL    HW117947   2.282   3.414  11.813 -0.2268  0.8143 -0.9710
 5502SOL    HW217948   2.256   3.275  11.868  1.3288  0.4751 -1.0457
 5503SOL     OW17949   3.749   2.702   8.777  0.1759 -0.0721  0.0808
 5503SOL    HW117950   3.749   2.772   8.712 -0.0881  0.3999  0.5794
 5503SOL    HW217951   3.785   2.626   8.731  1.1839  0.5877 -0.2562
 5504SOL     OW17952   3.808   7.755   4.080  0.1347 -0.5370 -0.7227
 5504SOL    HW117953   3.895   7.730   4.112  0.0860  1.5909  1.4517
 5504SOL    HW217954   3.747   7.712   4.140 -0.0983  1.0410  0.2281
 5505SOL     OW17955   6.379   6.805   3.768 -0.2422  0.5512 -0.2991
 5505SOL    HW117956   6.364   6.861   3.845 -1.0932 -0.7498  0.5153
 5505SOL    HW217957   6.425   6.729   3.803 -2.1265 -0.8571 -0.7396
 5506SOL     OW17958   1.462   6.462   1.555  0.0233 -0.1288  0.0873
 5506SOL    HW117959   1.463   6.374   1.593 -1.1688 -0.6558 -1.0244
 5506SOL    HW217960   1.522   6.456   1.480 -0.8737 -0.3216 -0.6322
 5507SOL     OW17961   3.036   4.063   3.255  0.2990 -0.0623  0.5600
 5507SOL    HW117962   2.960   4.117   3.277  1.1383  1.9689 -1.2025
 5507SOL    HW217963   3.002   3.995   3.197 -0.3441  0.1602  0.6655
 5508SOL     OW17964   7.951   2.497   5.131  0.5621 -0.0874 -0.1368
 5508SOL    HW117965   7.951   2.405   5.157  0.6386 -0.4085 -1.2486
 5508SOL    HW217966   8.044   2.521   5.127  0.5903 -0.3504 -1.1738
 5509SOL     OW17967   4.059   4.870   4.996  0.1492 -0.1636 -0.8311
 5509SOL    HW117968   4.056   4.850   5.089 -0.0015 -3.1983 -1.4004
 5509SOL    HW217969   3.968   4.879   4.970  0.1739  0.2786 -0.7700
 5510SOL     OW17970   0.724   7.871   6.935  0.4761  0.1947  0.0953
 5510SOL    HW117971   0.718   7.868   6.840  1.7823 -1.1199  0.0122
 5510SOL    HW217972   0.763   7.787   6.959 -1.0819 -0.0807  1.9119
 5511SOL     OW17973   7.003   1.154   6.615 -0.4248  0.2367  0.3407
 5511SOL    HW117974   6.966   1.115   6.695 -2.2039  1.5772  0.2310
 5511SOL    HW217975   7.000   1.248   6.630 -2.5380  0.6377 -1.9494
 5512SOL     OW17976   3.512   2.217  11.424 -0.5804 -0.4945  0.7178
 5512SOL    HW117977   3.494   2.309  11.445 -1.7841 -0.5946  0.2377
 5512SOL    HW217978   3.551   2.220  11.337  1.4819 -0.3047  1.5988
 5513SOL     OW17979   3.986   4.759   1.741  0.0043  0.1794 -0.2918
 5513SOL    HW117980   4.014   4.829   1.800 -3.0111  1.6253 -0.3632
 5513SOL    HW217981   3.954   4.690   1.799 -0.7221  0.5961 -0.1753
 5514SOL     OW17982   5.720   6.699   7.799  0.1233 -0.4498  0.4838
 5514SOL    HW117983   5.784   6.632   7.773 -0.1386 -0.6875  0.4421
 5514SOL    HW217984   5.678   6.725   7.717 -1.7227 -2.2449  0.7821
 5515SOL     OW17985   2.370   0.936   0.110  0.3488  0.2593  0.0482
 5515SOL    HW117986   2.456   0.978   0.111 -0.5277  2.1799  1.7259
 5515SOL    HW217987   2.342   0.937   0.202 -1.9156  0.7041 -0.5931
 5516SOL     OW17988   5.785   5.394  10.152 -0.2357 -0.8533 -0.1072
 5516SOL    HW117989   5.761   5.448  10.227 -3.5896 -1.7811 -0.3180
 5516SOL    HW217990   5.749   5.440  10.076  0.7920 -1.2230 -0.8430
 5517SOL     OW17991   6.968   0.672   1.577  0.3924  0.4662 -0.1803
 5517SOL    HW117992   6.966   0.706   1.487 -0.0781 -1.3119 -0.8819
 5517SOL    HW217993   6.907   0.598   1.576  0.1676  0.5768  1.6936
 5518SOL     OW17994   0.684   5.220   9.264 -0.9852 -0.1844  0.6469
 5518SOL    HW117995   0.629   5.239   9.188 -1.2011  0.2397  0.9071
 5518SOL    HW217996   0.766   5.189   9.226 -1.5686 -1.3412  0.2578
 5519SOL     OW17997   6.290   4.373   0.596 -0.2979 -0.1342  0.7065
 5519SOL    HW117998   6.199   4.402   0.601 -1.6054 -3.5344 -0.9326
 5519SOL    HW217999   6.322   4.379   0.687 -1.5656  2.5155  1.0697
 5520SOL     OW18000   1.519   5.258   0.043  0.2055  0.0477  0.4773
 5520SOL    HW118001   1.594   5.203   0.065  0.7253 -0.0732 -1.4160
 5520SOL    HW218002   1.549   5.348   0.056  0.2205 -0.0381  1.0396
 5521SOL     OW18003   3.342   1.646   9.100 -0.2681  0.1467  0.1276
 5521SOL    HW118004   3.344   1.694   9.017  1.0722 -0.0877 -0.0033
 5521SOL    HW218005   3.336   1.715   9.167  1.6677  0.5499 -0.0572
 5522SOL     OW18006   3.031   1.954   6.362 -0.5107  0.2544 -0.5552
 5522SOL    HW118007   2.949   1.923   6.324 -0.3667  0.7549 -1.3042
 5522SOL    HW218008   3.041   2.043   6.328  0.9040 -0.1845 -1.4265
 5523SOL     OW18009   5.035   1.085   5.062 -0.0387  0.0462  0.2290
 5523SOL    HW118010   5.059   1.002   5.020 -2.2572 -0.7887  0.5100
 5523SOL    HW218011   4.958   1.064   5.114  0.0066  2.0687  1.1883
 5524SOL     OW18012   5.941   4.541   4.199  0.3226 -0.6703 -0.2498
 5524SOL    HW118013   5.971   4.615   4.252 -0.7163 -0.1424 -0.3673
 5524SOL    HW218014   5.893   4.485   4.259 -0.7049 -0.1606 -0.5702
 5525SOL     OW18015   3.421   0.716   9.859  0.1271 -0.2737  0.1198
 5525SOL    HW118016   3.464   0.631   9.864  0.1165 -0.5150 -2.3745
 5525SOL    HW218017   3.469   0.771   9.921  2.1709 -1.3059 -0.4601
 5526SOL     OW18018   7.755   2.727   5.548  0.1292  0.3552 -0.6911
 5526SOL    HW118019   7.665   2.760   5.548 -0.1068 -0.1323 -2.5796
 5526SOL    HW218020   7.783   2.736   5.457  2.5103  1.7787  0.0924
 5527SOL     OW18021   2.612   2.806   1.347 -0.0031  0.0431 -0.3336
 5527SOL    HW118022   2.580   2.874   1.287 -1.9582 -0.5250 -0.0156
 5527SOL    HW218023   2.615   2.727   1.294 -2.6808 -0.6764  0.4561
 5528SOL     OW18024   1.933   1.715   2.744 -0.7294 -0.1410  0.4327
 5528SOL    HW118025   1.884   1.734   2.824 -1.8521 -0.3187 -0.1895
 5528SOL    HW218026   1.919   1.621   2.729 -0.9683 -0.0067 -0.2402
 5529SOL     OW18027   0.206   6.858   4.883  0.4185  0.3386 -0.0241
 5529SOL    HW118028   0.224   6.880   4.974 -0.2428 -0.4010  0.2998
 5529SOL    HW218029   0.208   6.762   4.881  1.1507  0.3611 -0.9437
 5530SOL     OW18030   5.506   6.138  10.969  0.6812  0.0959  0.3377
 5530SOL    HW118031   5.491   6.120  11.062  1.7884  0.7665  0.6679
 5530SOL    HW218032   5.543   6.057  10.934 -0.1120 -0.2957  0.3690
 5531SOL     OW18033   7.215   1.494   9.441 -0.1265  0.0500  0.1828
 5531SOL    HW118034   7.245   1.411   9.476  1.0165  0.1718 -0.4497
 5531SOL    HW218035   7.293   1.534   9.402 -0.5491  1.6071  0.8318
 5532SOL     OW18036   6.523   5.924  12.380  0.0772  0.0110 -0.1132
 5532SOL    HW118037   6.496   6.008  12.343  1.3349  0.3459 -0.3341
 5532SOL    HW218038   6.445   5.869  12.376 -0.2312  0.5376 -1.8097
 5533SOL     OW18039   0.814   3.964   2.349  0.3880  0.1938  0.0406
 5533SOL    HW118040   0.884   3.918   2.302 -1.7194 -4.0035  0.4728
 5533SOL    HW218041   0.850   4.050   2.367  4.6095 -0.9641 -1.5383
 5534SOL     OW18042   2.011   0.274   1.560 -0.7257 -0.3069  0.0097
 5534SOL    HW118043   2.036   0.207   1.624  1.1111  1.5709  1.3504
 5534SOL    HW218044   1.917   0.258   1.545 -0.2874 -3.4703 -0.1800
 5535SOL     OW18045   2.623   2.464  12.197 -0.3806  0.0855 -0.5013
 5535SOL    HW118046   2.562   2.466  12.271  0.3875 -1.6467  0.2345
 5535SOL    HW218047   2.570   2.491  12.122 -1.5967  0.2862  0.3978
 5536SOL     OW18048   1.520   1.815   6.786  0.3450 -0.1078 -0.1999
 5536SOL    HW118049   1.443   1.764   6.811 -1.2088  1.3462 -1.7932
 5536SOL    HW218050   1.497   1.906   6.806  0.4693  0.6902 -3.1654
 5537SOL     OW18051   4.346   5.759   9.894  0.3974 -0.4268 -0.0113
 5537SOL    HW118052   4.271   5.786   9.947  0.2316 -0.8485 -0.0241
 5537SOL    HW218053   4.320   5.780   9.804 -0.4057 -2.0947 -0.1955
 5538SOL     OW18054   2.681   2.468   5.103  0.1233  0.0703 -0.1055
 5538SOL    HW118055   2.729   2.422   5.034  0.3334  0.0301  0.0684
 5538SOL    HW218056   2.700   2.420   5.183 -1.8300 -1.1685 -0.3347
 5539SOL     OW18057   7.615   7.778   1.561 -0.0331 -0.6324  0.2534
 5539SOL    HW118058   7.581   7.732   1.484 -1.2555 -0.2618  0.5428
 5539SOL    HW218059   7.537   7.799   1.613  0.6497  0.2500  0.9660
 5540SOL     OW18060   7.104   2.152   5.661  0.3527 -0.1991 -0.3521
 5540SOL    HW118061   7.069   2.102   5.588  0.8753 -0.4244 -0.4508
 5540SOL    HW218062   7.163   2.092   5.706 -0.8525 -0.4679  0.9641
 5541SOL     OW18063   2.755   7.875   7.129  0.7930  0.3913 -0.0490
 5541SOL    HW118064   2.774   7.965   7.157  1.8648 -0.3242  1.6736
 5541SOL    HW218065   2.804   7.866   7.047  1.8246  0.9697  0.4707
 5542SOL     OW18066   0.063   4.963   2.778 -0.5827 -0.1334 -0.7133
 5542SOL    HW118067   0.150   4.950   2.816 -1.2073  0.1097  0.8882
 5542SOL    HW218068   0.047   4.885   2.726 -0.6022 -1.6123  1.4000
 5543SOL     OW18069   0.960   6.964   3.721 -0.3877 -0.1366  0.1762
 5543SOL    HW118070   0.966   7.038   3.781  1.1184 -0.5255  0.5580
 5543SOL    HW218071   1.050   6.929   3.717 -0.4785 -0.2742 -2.1235
 5544SOL     OW18072   3.590   1.126  12.434  0.2300 -0.3243 -0.1868
 5544SOL    HW118073   3.634   1.205  12.403  0.7004 -0.1944  0.7738
 5544SOL    HW218074   3.622   1.056  12.376  0.5128  0.0350 -0.4672
 5545SOL     OW18075   5.463   7.444   0.676  0.0416  0.1070  0.1485
 5545SOL    HW118076   5.454   7.349   0.681 -1.2382  0.1425 -0.9481
 5545SOL    HW218077   5.514   7.467   0.753  0.3817 -1.4661  0.4288
 5546SOL     OW18078   0.144   1.432   2.436  0.5760 -0.0233  0.0726
 5546SOL    HW118079   0.205   1.372   2.480  0.2978 -0.7519 -0.5124
 5546SOL    HW218080   0.157   1.516   2.480  2.1839 -0.0959 -0.2023
 5547SOL     OW18081   7.106   2.621   8.959 -0.2067  0.5866 -0.3328
 5547SOL    HW118082   7.116   2.715   8.973  1.0085  0.3267  0.8274
 5547SOL    HW218083   7.194   2.592   8.934 -0.4168 -0.3279 -0.0462
 5548SOL     OW18084   0.755   3.426  11.177  0.2411  0.1527 -0.4189
 5548SOL    HW118085   0.825   3.430  11.111  0.8251 -1.6072  0.0567
 5548SOL    HW218086   0.677   3.455  11.129  0.9839  0.6794 -1.3754
 5549SOL     OW18087   0.400   6.187   0.398 -0.4481  0.3524 -0.4633
 5549SOL    HW118088   0.365   6.274   0.378  0.2828  0.6509 -0.4577
 5549SOL    HW218089   0.431   6.193   0.488  0.3940  0.3461 -0.7469
 5550SOL     OW18090   6.220   2.890   5.650  0.1248 -0.0922 -0.3547
 5550SOL    HW118091   6.287   2.826   5.627  0.9940  0.1248  1.4411
 5550SOL    HW218092   6.178   2.912   5.566  2.3619 -0.1290 -1.5449
 5551SOL     OW18093   2.288   5.830   7.790  0.2674 -0.3030 -0.0063
 5551SOL    HW118094   2.267   5.902   7.730 -1.6138 -0.6864  0.1319
 5551SOL    HW218095   2.260   5.862   7.876 -0.1992 -1.0389  0.1218
 5552SOL     OW18096   4.986   4.706  10.846  0.6369 -0.6264  0.2115
 5552SOL    HW118097   4.955   4.767  10.779  1.3761 -0.3802  0.0843
 5552SOL    HW218098   5.005   4.626  10.798 -2.2064 -1.6824  0.6475
 5553SOL     OW18099   5.086   1.523   3.675 -0.2843  0.1203 -0.5397
 5553SOL    HW118100   5.156   1.462   3.650  0.3153  0.2223  0.8182
 5553SOL    HW218101   5.132   1.594   3.721 -1.1678  0.7507 -0.6037
 5554SOL     OW18102   4.708   5.127  11.176  0.0718  0.4871 -0.6521
 5554SOL    HW118103   4.794   5.088  11.191  0.3373  1.1454 -0.4210
 5554SOL    HW218104   4.693   5.115  11.082  1.0875  1.6636 -1.0041
 5555SOL     OW18105   2.065   2.492   8.310 -0.3962 -0.0850  0.0116
 5555SOL    HW118106   2.076   2.436   8.387  0.4906 -1.1252 -0.8361
 5555SOL    HW218107   2.012   2.441   8.250  0.8091 -0.2359 -0.9628
 5556SOL     OW18108   6.202   2.090   1.453  0.4088 -0.3170 -0.0701
 5556SOL    HW118109   6.115   2.057   1.429  0.6642 -0.2455 -1.1794
 5556SOL    HW218110   6.208   2.079   1.547  1.4408 -5.7943 -0.4920
 5557SOL     OW18111   4.519   7.319   3.766 -0.3061  0.0363 -0.3907
 5557SOL    HW118112   4.504   7.271   3.685 -1.5363  0.4710 -0.4301
 5557SOL    HW218113   4.433   7.328   3.806  0.1905  0.4010  0.6518
 5558SOL     OW18114   0.718   7.228   8.778 -0.3553  0.0838  0.2488
 5558SOL    HW118115   0.662   7.170   8.829 -0.5099 -1.1486 -1.2573
 5558SOL    HW218116   0.802   7.227   8.825 -0.2602 -1.6359  0.0826
 5559SOL     OW18117   6.503   5.357   6.788  0.0010  0.1239 -0.8035
 5559SOL    HW118118   6.562   5.309   6.730  0.9505 -0.7304  0.8038
 5559SOL    HW218119   6.425   5.374   6.735  0.2308 -1.9264 -1.8696
 5560SOL     OW18120   5.058   5.214   4.861  0.4154  0.3129  0.2913
 5560SOL    HW118121   4.967   5.186   4.853  0.7398 -0.8527  0.5253
 5560SOL    HW218122   5.108   5.133   4.871  1.5603  0.8788 -0.4812
 5561SOL     OW18123   3.296   6.070   7.143 -0.2360  0.2340  0.7196
 5561SOL    HW118124   3.266   6.028   7.223 -0.5230  1.1309  1.0936
 5561SOL    HW218125   3.391   6.073   7.151 -0.1421 -0.9846  0.3497
 5562SOL     OW18126   5.739   3.420   6.893 -0.1180  0.5671  0.4678
 5562SOL    HW118127   5.668   3.464   6.938 -1.4373 -1.8933  1.0041
 5562SOL    HW218128   5.696   3.372   6.822  1.4419  1.3999 -1.1221
 5563SOL     OW18129   5.688   4.206   1.511 -0.0574  0.1904  0.1039
 5563SOL    HW118130   5.746   4.131   1.525  1.6771  0.8559 -2.7747
 5563SOL    HW218131   5.746   4.281   1.506 -1.5588  1.4459  0.7341
 5564SOL     OW18132   5.140   2.602   2.897 -0.2982  0.3633 -0.3318
 5564SOL    HW118133   5.106   2.624   2.810  0.6713 -0.2347 -0.8805
 5564SOL    HW218134   5.067   2.621   2.956 -0.4288  2.3893 -1.0612
 5565SOL     OW18135   1.701   6.350   8.790  0.0739  0.0056 -0.5139
 5565SOL    HW118136   1.670   6.392   8.870  1.0822 -0.0963 -0.0531
 5565SOL    HW218137   1.683   6.413   8.720 -3.3518 -0.9754 -0.6966
 5566SOL     OW18138   3.099   2.438   5.350  0.4253  0.4065 -0.7209
 5566SOL    HW118139   3.034   2.368   5.343  0.2890  0.3813  0.5587
 5566SOL    HW218140   3.086   2.474   5.438  0.9427  1.6027 -1.1257
 5567SOL     OW18141   6.260   5.572   6.092  0.1837 -0.0099 -0.1922
 5567SOL    HW118142   6.197   5.512   6.131  1.6352 -1.2187  0.3533
 5567SOL    HW218143   6.251   5.557   5.997 -0.8639  0.3931 -0.1720
 5568SOL     OW18144   7.270   4.026   3.118 -0.6095  0.1384 -0.2910
 5568SOL    HW118145   7.261   3.941   3.161  0.6551  1.1606  2.1890
 5568SOL    HW218146   7.207   4.083   3.163 -1.4556  0.5757 -1.9331
 5569SOL     OW18147   7.512   6.037   7.710 -0.1685 -0.1074 -0.0318
 5569SOL    HW118148   7.526   6.129   7.688  0.2526  0.1893  1.3974
 5569SOL    HW218149   7.528   5.990   7.627 -0.5364  1.1006 -0.8074
 5570SOL     OW18150   4.482   4.286  11.240  0.2264  0.1342 -0.4538
 5570SOL    HW118151   4.567   4.247  11.220  1.3993  1.8177  0.9677
 5570SOL    HW218152   4.493   4.379  11.223 -1.4911  0.3418 -0.6469
 5571SOL     OW18153   6.245   6.329  10.211 -0.1218 -0.2357  0.1221
 5571SOL    HW118154   6.322   6.273  10.211  0.1743  0.1676  0.6732
 5571SOL    HW218155   6.172   6.269  10.228  0.2251 -0.4169  0.9950
 5572SOL     OW18156   2.248   7.725  10.901  0.1397 -0.1349  0.4750
 5572SOL    HW118157   2.249   7.655  10.966  0.1251  0.9398  1.6587
 5572SOL    HW218158   2.234   7.805  10.951  0.5059  0.7722 -0.8091
 5573SOL     OW18159   1.288   7.637  11.236 -0.0851 -0.3696  0.5252
 5573SOL    HW118160   1.293   7.727  11.267  0.3701 -0.0077 -0.5521
 5573SOL    HW218161   1.368   7.596  11.267  0.3939  0.0058 -0.1810
 5574SOL     OW18162   5.851   7.744   3.955  0.0779 -0.0625 -0.0138
 5574SOL    HW118163   5.769   7.710   3.991  0.0782 -2.2932 -1.8956
 5574SOL    HW218164   5.828   7.775   3.867  1.3764 -1.8268 -1.0553
 5575SOL     OW18165   6.588   5.142   6.484  0.2339  1.0415  0.4492
 5575SOL    HW118166   6.575   5.047   6.491 -3.4784  1.4305  0.9598
 5575SOL    HW218167   6.652   5.163   6.552 -0.3230 -0.9021  1.6403
 5576SOL     OW18168   4.937   2.592   3.674 -0.5313 -0.3951 -0.0936
 5576SOL    HW118169   4.870   2.639   3.724 -1.3460 -1.2153 -0.3746
 5576SOL    HW218170   4.930   2.628   3.585  0.8549  0.9991  0.3274
 5577SOL     OW18171   1.906   7.182   1.028  0.6547 -0.5160 -0.4440
 5577SOL    HW118172   1.974   7.136   0.978  0.9162  1.0346 -1.6128
 5577SOL    HW218173   1.865   7.240   0.964  0.2499  0.7449  0.9002
 5578SOL     OW18174   2.597   4.032   7.128 -0.1162  0.3206  0.3457
 5578SOL    HW118175   2.511   4.071   7.109  0.0507  0.6232  0.2076
 5578SOL    HW218176   2.609   4.048   7.222 -0.2051  0.2931  0.3619
 5579SOL     OW18177   2.231   7.278  10.271 -0.6377  0.1393 -0.2299
 5579SOL    HW118178   2.181   7.213  10.322 -0.1212  0.0410  0.1635
 5579SOL    HW218179   2.292   7.316  10.335  0.1628 -0.1280 -0.8224
 5580SOL     OW18180   1.158   3.161  11.525 -0.4538  0.2517 -0.2049
 5580SOL    HW118181   1.127   3.249  11.505 -1.8805 -0.1192  0.2926
 5580SOL    HW218182   1.100   3.130  11.595  0.4390 -0.8405  0.0775
 5581SOL     OW18183   5.265   4.715   8.392 -0.4261  0.3242  0.5155
 5581SOL    HW118184   5.317   4.635   8.396 -1.0991 -0.1589 -0.2487
 5581SOL    HW218185   5.184   4.694   8.438 -0.4103  0.7270  0.7369
 5582SOL     OW18186   1.460   1.670   8.560 -0.4040 -0.9113  0.4720
 5582SOL    HW118187   1.485   1.691   8.470  0.7133 -0.2313  0.9185
 5582SOL    HW218188   1.387   1.729   8.580  0.2366 -0.0913  0.4487
 5583SOL     OW18189   0.717   1.882   8.314  0.4053 -0.5046 -0.0033
 5583SOL    HW118190   0.758   1.914   8.234  2.7772  0.4394  1.4626
 5583SOL    HW218191   0.756   1.796   8.329  0.4042 -0.4361  0.4260
 5584SOL     OW18192   6.668   4.281   7.403 -0.3571  0.0286 -0.3741
 5584SOL    HW118193   6.692   4.267   7.312  0.7688  0.3851 -0.1502
 5584SOL    HW218194   6.733   4.342   7.436  0.2426 -1.3308  1.1096
 5585SOL     OW18195   3.284   3.906   4.399  0.0482 -0.0241 -0.2862
 5585SOL    HW118196   3.206   3.953   4.425 -0.3581  0.3076 -2.0052
 5585SOL    HW218197   3.351   3.933   4.462 -0.1407  2.9243 -1.2354
 5586SOL     OW18198   7.828   1.852   3.102  0.4286  0.1089  0.4636
 5586SOL    HW118199   7.748   1.862   3.154  1.2988 -1.4321  2.2164
 5586SOL    HW218200   7.845   1.758   3.102  2.0018  0.3650 -0.2537
 5587SOL     OW18201   0.756   2.941   2.627 -0.0420 -0.5777  0.0650
 5587SOL    HW118202   0.735   2.936   2.534  0.2843  2.8988 -0.3328
 5587SOL    HW218203   0.852   2.934   2.630  0.2552  2.1355 -0.3082
 5588SOL     OW18204   6.893   2.124   4.040 -0.3444  0.6302  0.0215
 5588SOL    HW118205   6.982   2.087   4.038 -0.2690  0.8108 -1.1507
 5588SOL    HW218206   6.905   2.213   4.072 -0.1760  0.4715  0.4000
 5589SOL     OW18207   7.494   0.734   9.771 -0.0549 -0.0719 -0.0355
 5589SOL    HW118208   7.472   0.666   9.708 -2.1014  2.5506 -2.3902
 5589SOL    HW218209   7.444   0.711   9.850 -1.0920 -1.0086 -0.9372
 5590SOL     OW18210   2.346   4.255   2.192  0.1625  0.4713 -0.4222
 5590SOL    HW118211   2.435   4.277   2.221 -0.3651  1.2767  0.6696
 5590SOL    HW218212   2.354   4.169   2.151  1.4700  0.6057 -0.4846
 5591SOL     OW18213   7.615   7.476   9.194  0.0385  0.3149 -0.1698
 5591SOL    HW118214   7.533   7.516   9.224 -0.4130 -0.9392  0.3718
 5591SOL    HW218215   7.621   7.395   9.244  1.5138  0.2773 -0.3753
 5592SOL     OW18216   1.656   0.917   4.510  0.4382  1.2611 -0.2545
 5592SOL    HW118217   1.582   0.864   4.481  2.7884 -3.0294  0.6951
 5592SOL    HW218218   1.635   0.939   4.601 -0.0164  0.7489 -0.2288
 5593SOL     OW18219   0.054   6.574  12.465  0.1301 -0.2391 -0.1334
 5593SOL    HW118220   0.141   6.568  12.427  0.4298 -1.1345  0.6524
 5593SOL    HW218221  -0.005   6.542  12.397  0.5368 -0.7219 -0.2569
 5594SOL     OW18222   5.457   3.301   0.977 -0.4212 -0.2062 -0.2905
 5594SOL    HW118223   5.474   3.395   0.983  0.3908 -0.3687  0.1320
 5594SOL    HW218224   5.431   3.287   0.886 -0.6479  0.4427 -0.3292
 5595SOL     OW18225   4.118   1.715   3.204 -0.5204  0.5075  0.2279
 5595SOL    HW118226   4.120   1.760   3.288 -0.9877 -0.0038  0.5212
 5595SOL    HW218227   4.033   1.737   3.166 -0.0845  1.1928 -0.3715
 5596SOL     OW18228   2.692   5.417   9.954  0.3861  0.1131 -0.1635
 5596SOL    HW118229   2.755   5.369  10.008 -0.0997 -0.1032  0.2080
 5596SOL    HW218230   2.690   5.505   9.993  0.2215  0.0299  0.0112
 5597SOL     OW18231   5.150   6.903   1.359  0.2101  0.3967 -0.5419
 5597SOL    HW118232   5.153   6.887   1.453 -1.1526  1.0785 -0.3694
 5597SOL    HW218233   5.084   6.842   1.326 -0.1096  0.9209 -0.8866
 5598SOL     OW18234   0.718   6.661   3.100 -0.3563 -0.1740  0.0688
 5598SOL    HW118235   0.661   6.673   3.024  1.2192  0.7731 -1.0008
 5598SOL    HW218236   0.738   6.567   3.101 -0.1556 -0.1494 -0.8624
 5599SOL     OW18237   0.287   3.367   0.431 -0.9043 -0.4801 -0.0734
 5599SOL    HW118238   0.214   3.370   0.368 -0.1691 -1.5451 -1.0190
 5599SOL    HW218239   0.259   3.303   0.497 -0.5473 -1.4482 -0.8342
 5600SOL     OW18240   1.324   3.520   4.860  0.2991 -0.1279  0.0253
 5600SOL    HW118241   1.337   3.614   4.843  0.8400  0.2694  2.3894
 5600SOL    HW218242   1.249   3.497   4.805  0.0243  1.7202 -0.4636
 5601SOL     OW18243   0.193   0.129   8.943  0.0807 -0.0640 -0.1399
 5601SOL    HW118244   0.189   0.197   8.876 -1.2420  0.0406  0.0137
 5601SOL    HW218245   0.220   0.050   8.896  2.0506  0.6096 -0.2456
 5602SOL     OW18246   3.572   4.841   9.032 -0.0280 -0.0226  0.0575
 5602SOL    HW118247   3.622   4.763   9.058 -0.3800 -0.2943 -0.0651
 5602SOL    HW218248   3.502   4.846   9.097 -0.3590 -0.1573 -0.2847
 5603SOL     OW18249   0.382   1.539   3.763  0.4287  0.3555  0.6198
 5603SOL    HW118250   0.335   1.499   3.690 -1.4424 -1.4693  2.6760
 5603SOL    HW218251   0.344   1.627   3.771 -1.3374 -0.4172  1.0493
 5604SOL     OW18252   5.985   1.745  11.496  0.3992  0.2200 -0.2399
 5604SOL    HW118253   5.946   1.724  11.412 -0.9501  2.3182 -0.1921
 5604SOL    HW218254   5.916   1.728  11.560  0.6270  0.9139  0.1990
 5605SOL     OW18255   7.022   4.666   6.451  0.2969 -0.4693 -0.1783
 5605SOL    HW118256   7.050   4.575   6.439  0.4235 -0.2885 -1.3965
 5605SOL    HW218257   6.952   4.661   6.516  1.2594 -1.2551  0.8499
 5606SOL     OW18258   2.446   5.636   5.198  0.1799  0.4968 -0.5308
 5606SOL    HW118259   2.541   5.641   5.203  0.2471  1.9753 -2.1656
 5606SOL    HW218260   2.423   5.695   5.126 -1.8724 -0.9398 -1.1513
 5607SOL     OW18261   0.346   7.883   8.803  0.4288 -0.3363  0.2598
 5607SOL    HW118262   0.384   7.873   8.716  1.4254 -0.0271  0.6372
 5607SOL    HW218263   0.420   7.909   8.858 -0.2792 -0.0533  1.1019
 5608SOL     OW18264   4.639   0.941   6.902 -0.2386 -0.4081 -0.3028
 5608SOL    HW118265   4.671   0.933   6.812 -0.8593 -0.7024 -0.5043
 5608SOL    HW218266   4.615   1.033   6.911  1.2369 -0.0435  0.0556
 5609SOL     OW18267   2.076   6.201   0.582  0.2957  0.2669 -0.5977
 5609SOL    HW118268   2.078   6.254   0.502  0.4229  0.3153 -0.5633
 5609SOL    HW218269   2.168   6.191   0.606  0.2267  1.1064  0.1026
 5610SOL     OW18270   6.912   7.975   6.980  0.2491 -0.4656  0.0602
 5610SOL    HW118271   6.819   7.969   6.958  0.1192 -1.3627  0.7641
 5610SOL    HW218272   6.953   8.009   6.901 -0.4889 -1.4149 -0.7600
 5611SOL     OW18273   6.907   5.063   3.743 -0.3248  0.0039  0.2144
 5611SOL    HW118274   6.985   5.026   3.784  0.0674 -0.9331 -1.2909
 5611SOL    HW218275   6.918   5.158   3.750  0.7629 -0.1250  0.3660
 5612SOL     OW18276   2.820   7.285   2.718 -0.2800 -0.1840  0.5731
 5612SOL    HW118277   2.788   7.201   2.749  0.1171 -0.7552 -0.5180
 5612SOL    HW218278   2.748   7.322   2.668  0.6509 -1.4567 -1.8581
 5613SOL     OW18279   3.218   5.994   7.376  0.7312  0.1479 -0.0565
 5613SOL    HW118280   3.257   5.906   7.378 -0.0061 -0.2035 -0.6241
 5613SOL    HW218281   3.124   5.979   7.378  0.5944  0.9666  0.6347
 5614SOL     OW18282   7.399   6.434   0.990 -0.3517  0.8497 -0.4722
 5614SOL    HW118283   7.338   6.502   0.960 -0.1960  0.5258 -1.5752
 5614SOL    HW218284   7.403   6.372   0.917 -1.0798 -0.7646  0.7952
 5615SOL     OW18285   4.469   2.071  10.923 -0.1795 -0.3053 -0.1038
 5615SOL    HW118286   4.481   2.084  11.018 -1.1023 -0.9821  0.1184
 5615SOL    HW218287   4.476   1.977  10.911  0.1341 -0.2035 -0.7478
 5616SOL     OW18288   4.550   6.403   8.521 -0.7246 -0.2072 -0.3845
 5616SOL    HW118289   4.480   6.434   8.463 -0.1805  0.4211 -0.7130
 5616SOL    HW218290   4.628   6.402   8.466 -0.1649  0.5711  0.3748
 5617SOL     OW18291   2.828   1.720   0.469  0.2190  0.4348  0.3333
 5617SOL    HW118292   2.816   1.769   0.550  0.7666  2.0204 -0.5142
 5617SOL    HW218293   2.767   1.646   0.477 -0.1064  0.8279  1.9485
 5618SOL     OW18294   0.482   3.731  10.391  0.0336 -0.0480  0.3793
 5618SOL    HW118295   0.395   3.760  10.419  0.2954  1.1879 -0.0278
 5618SOL    HW218296   0.542   3.775  10.452  0.3805 -1.1275  0.8485
 5619SOL     OW18297   3.522   2.777   6.851  0.5374  0.7830 -0.2458
 5619SOL    HW118298   3.501   2.689   6.819  0.7906 -0.5530  2.8960
 5619SOL    HW218299   3.441   2.827   6.839 -0.4864 -0.6764  0.2757
 5620SOL     OW18300   5.079   6.532   8.049  0.1512  0.3207 -0.4941
 5620SOL    HW118301   5.117   6.580   7.976  0.3016 -0.4713 -0.9540
 5620SOL    HW218302   5.149   6.529   8.114 -0.1842  1.5463 -0.0576
 5621SOL     OW18303   2.577   6.277   2.102  0.1272  0.0839  0.3611
 5621SOL    HW118304   2.484   6.255   2.114  0.0540  0.5484  0.6429
 5621SOL    HW218305   2.621   6.192   2.097 -0.3434 -0.1444 -0.0101
 5622SOL     OW18306   7.775   7.954   3.372  0.1047 -0.1483 -0.3026
 5622SOL    HW118307   7.859   7.999   3.377 -0.6461  1.3299 -0.2329
 5622SOL    HW218308   7.791   7.879   3.315  2.5927 -2.6618  3.2574
 5623SOL     OW18309   6.002   6.504   3.589 -0.3084 -0.2674 -0.0725
 5623SOL    HW118310   5.960   6.450   3.656 -0.1057  1.0257  1.1405
 5623SOL    HW218311   5.943   6.578   3.577  0.4349  0.3226 -0.1617
 5624SOL     OW18312   2.872   2.447   5.561  0.1802  0.0215 -0.0113
 5624SOL    HW118313   2.891   2.404   5.644 -1.7643 -0.7223  0.1049
 5624SOL    HW218314   2.805   2.512   5.582  0.6068  0.7339 -0.7835
 5625SOL     OW18315   3.239   2.290   5.641 -0.4655 -0.5548  0.3492
 5625SOL    HW118316   3.185   2.245   5.576 -1.0099  1.9291 -1.0091
 5625SOL    HW218317   3.226   2.383   5.625  1.1359  0.1708  2.6031
 5626SOL     OW18318   7.416   1.419   8.468 -0.3241 -0.2961  0.0844
 5626SOL    HW118319   7.469   1.401   8.390 -1.0198  1.6552 -0.9023
 5626SOL    HW218320   7.470   1.480   8.519 -1.1348  0.9119 -0.4443
 5627SOL     OW18321   6.006   1.836   6.932 -0.0902 -0.1474 -0.0516
 5627SOL    HW118322   5.991   1.846   7.026 -1.4921  1.2503 -0.3861
 5627SOL    HW218323   5.999   1.925   6.897  0.4811 -0.6327 -1.4819
 5628SOL     OW18324   1.513   7.373  10.844  0.5154  0.1405  0.0759
 5628SOL    HW118325   1.484   7.323  10.768  0.4497 -2.0569  1.4508
 5628SOL    HW218326   1.608   7.373  10.837  0.5333 -0.4700  0.2058
 5629SOL     OW18327   5.346   3.063  10.954  0.8048 -0.2383 -0.5100
 5629SOL    HW118328   5.429   3.081  10.910  0.7221 -1.4461 -1.1985
 5629SOL    HW218329   5.350   3.114  11.035  2.2105 -0.2650 -0.5434
 5630SOL     OW18330   2.246   4.594   4.567  0.4497 -0.2011  0.5427
 5630SOL    HW118331   2.296   4.637   4.497 -0.5077 -0.5001 -0.3425
 5630SOL    HW218332   2.297   4.611   4.647  1.6005  0.0802 -0.2313
 5631SOL     OW18333   0.971   5.783   8.382 -0.0606  0.5871  0.1410
 5631SOL    HW118334   0.950   5.697   8.345 -1.1519  0.9786 -0.2039
 5631SOL    HW218335   0.974   5.769   8.476 -1.4584  0.3901  0.1796
 5632SOL     OW18336   0.764   0.986   5.031  0.2481  0.2083 -0.4181
 5632SOL    HW118337   0.719   1.018   5.110  0.2426  0.3119 -0.4625
 5632SOL    HW218338   0.802   0.902   5.057  2.2644  1.2887  0.4279
 5633SOL     OW18339   3.778   6.280  12.403 -0.3511  0.4660 -0.1515
 5633SOL    HW118340   3.836   6.285  12.480 -2.0738 -0.4141  1.2839
 5633SOL    HW218341   3.806   6.202  12.356  0.3767  0.7120 -0.1376
 5634SOL     OW18342   5.929   5.457   7.535 -0.1581  0.0976  0.9223
 5634SOL    HW118343   5.925   5.393   7.606  0.7045  0.7347  1.5690
 5634SOL    HW218344   5.961   5.407   7.460  0.5690 -0.2386  1.4378
 5635SOL     OW18345   0.427   4.914  10.095  0.4987 -0.5121  0.4105
 5635SOL    HW118346   0.379   4.994  10.075 -0.6566 -1.3394 -0.2673
 5635SOL    HW218347   0.506   4.944  10.139 -0.7807  0.8767  1.8752
 5636SOL     OW18348   6.095   7.576   7.967 -0.5964 -0.6367 -0.4670
 5636SOL    HW118349   6.039   7.500   7.952 -0.3882 -0.5198 -1.9357
 5636SOL    HW218350   6.166   7.544   8.022 -0.7081 -1.4241 -0.7723
 5637SOL     OW18351   1.846   5.176   2.568 -0.1156  0.4336 -0.0867
 5637SOL    HW118352   1.757   5.198   2.542  0.1528 -0.8026 -2.3531
 5637SOL    HW218353   1.841   5.084   2.595  0.5452  0.1393 -0.8960
 5638SOL     OW18354   4.339   3.006   7.009  0.6978 -0.0445 -0.4467
 5638SOL    HW118355   4.247   3.028   7.022  0.6200 -0.8365  0.3634
 5638SOL    HW218356   4.381   3.023   7.093  1.0441 -0.9185 -0.4291
 5639SOL     OW18357   1.473   5.537   9.351 -0.4226 -0.1471  0.1260
 5639SOL    HW118358   1.389   5.557   9.392  1.2019  2.0880  2.6650
 5639SOL    HW218359   1.525   5.495   9.420  0.7790 -1.0313 -1.2339
 5640SOL     OW18360   6.012   7.071   3.687  0.1667  0.8866 -0.6986
 5640SOL    HW118361   5.924   7.037   3.701  0.7390 -0.3055  0.3021
 5640SOL    HW218362   6.068   6.994   3.693  1.4182  1.8303  0.2659
 5641SOL     OW18363   0.132   2.995   6.692 -0.1161  0.2230 -0.0726
 5641SOL    HW118364   0.103   3.002   6.783 -0.0824  1.4707 -0.1430
 5641SOL    HW218365   0.134   2.901   6.674 -0.1956 -0.0311  1.1927
 5642SOL     OW18366   4.248   1.210   2.259 -0.4198  0.7012 -0.0207
 5642SOL    HW118367   4.279   1.284   2.311 -0.8379  0.0482  1.1831
 5642SOL    HW218368   4.290   1.222   2.174 -1.0377  2.7086 -0.0893
 5643SOL     OW18369   0.801   7.599   8.470 -0.4039  0.4049 -0.1133
 5643SOL    HW118370   0.790   7.511   8.506 -1.0818 -0.0547 -1.3562
 5643SOL    HW218371   0.793   7.586   8.375  0.1885  1.7117 -0.3599
 5644SOL     OW18372   4.549   5.817  11.178  0.1099 -0.5060  0.2554
 5644SOL    HW118373   4.629   5.794  11.227 -0.4463 -0.0369  1.4189
 5644SOL    HW218374   4.478   5.802  11.240 -0.5509  1.0670 -0.0750
 5645SOL     OW18375   2.370   3.351   0.528 -0.0577 -0.0597 -0.0635
 5645SOL    HW118376   2.312   3.411   0.575  1.3039 -0.4307  2.2932
 5645SOL    HW218377   2.455   3.396   0.525  0.3468 -0.8145 -0.5411
 5646SOL     OW18378   7.242   7.462   8.886  0.0550  0.0535  0.4684
 5646SOL    HW118379   7.267   7.512   8.963 -0.1773 -0.7693  1.0921
 5646SOL    HW218380   7.171   7.405   8.916 -0.1976 -0.1113 -0.4100
 5647SOL     OW18381   2.552   5.552   1.349 -0.0640  0.1075 -0.6775
 5647SOL    HW118382   2.508   5.486   1.295 -1.4165 -0.1246  0.6191
 5647SOL    HW218383   2.558   5.629   1.293 -1.4065 -0.1340 -1.2022
 5648SOL     OW18384   7.693   4.820   5.464 -0.3180 -0.7546 -0.4017
 5648SOL    HW118385   7.654   4.741   5.502 -2.3523  0.8778  1.1038
 5648SOL    HW218386   7.675   4.812   5.370 -2.0018 -1.3050 -0.0673
 5649SOL     OW18387   0.288   4.383  10.380 -0.5095  0.2133 -0.7515
 5649SOL    HW118388   0.241   4.462  10.407 -1.7569 -0.3280 -1.2557
 5649SOL    HW218389   0.347   4.364  10.453 -1.0288  0.9507 -0.1219
 5650SOL     OW18390   2.431   0.090   9.330  0.4102  0.0839  0.0815
 5650SOL    HW118391   2.451   0.019   9.391  0.0253  0.3895  0.5617
 5650SOL    HW218392   2.425   0.168   9.385  0.5191  0.4408 -0.4063
 5651SOL     OW18393   6.730   6.446   3.772  0.2259  0.1725  0.0138
 5651SOL    HW118394   6.640   6.416   3.761 -0.8669  2.6408  1.3046
 5651SOL    HW218395   6.762   6.461   3.683 -0.3974 -1.3254 -0.4761
 5652SOL     OW18396   3.716   1.836   7.248 -0.4497  0.5521  0.7135
 5652SOL    HW118397   3.746   1.772   7.183 -0.2111  1.7845 -0.4266
 5652SOL    HW218398   3.624   1.852   7.226 -0.4531  0.7470  0.8646
 5653SOL     OW18399   2.493   2.715   0.844 -0.1750 -0.6206  0.3769
 5653SOL    HW118400   2.531   2.797   0.813 -0.5181 -0.2676  0.8834
 5653SOL    HW218401   2.525   2.649   0.782  0.0656 -0.1017 -0.0573
 5654SOL     OW18402   0.716   1.207   1.827 -0.5553  0.4681 -0.1248
 5654SOL    HW118403   0.787   1.174   1.771 -1.4508  0.2070 -1.1484
 5654SOL    HW218404   0.760   1.261   1.892  0.9951 -2.5287  1.5579
 5655SOL     OW18405   3.236   7.819  11.200 -0.3897 -0.2906  0.0447
 5655SOL    HW118406   3.305   7.793  11.261  0.4408  0.1651 -0.6686
 5655SOL    HW218407   3.265   7.904  11.167 -2.6359  1.2356  1.7319
 5656SOL     OW18408   6.227   1.034   4.490 -0.7002  0.3654 -0.0474
 5656SOL    HW118409   6.300   1.009   4.433 -0.7634 -0.3770  0.1891
 5656SOL    HW218410   6.174   0.955   4.498 -0.5983  0.4069  1.1952
 5657SOL     OW18411   7.900   2.724   2.319  0.4782  0.3758 -0.0780
 5657SOL    HW118412   7.902   2.632   2.291 -1.3638  0.6990 -1.4159
 5657SOL    HW218413   7.953   2.770   2.255 -1.3944  0.6973 -1.4657
 5658SOL     OW18414   4.348   0.791   0.512 -0.1865  0.5229  0.1439
 5658SOL    HW118415   4.285   0.864   0.518  0.0477  0.6859  0.7503
 5658SOL    HW218416   4.349   0.753   0.600  0.6454  0.5947  0.1762
 5659SOL     OW18417   0.408   0.523   9.405 -0.4091 -0.1766 -0.5118
 5659SOL    HW118418   0.349   0.590   9.439 -0.8764 -0.4863 -0.6973
 5659SOL    HW218419   0.482   0.523   9.466 -0.5793  0.2437 -0.2996
 5660SOL     OW18420   7.788   6.765   2.954  0.0491  0.8565  0.1754
 5660SOL    HW118421   7.836   6.682   2.963  1.5254  1.6078 -0.4569
 5660SOL    HW218422   7.756   6.765   2.864  3.6241  2.6992 -1.3129
 5661SOL     OW18423   5.799   2.641  11.903  0.3478  0.0745 -1.5010
 5661SOL    HW118424   5.759   2.708  11.959  1.0414  0.3835 -1.3608
 5661SOL    HW218425   5.776   2.558  11.944 -1.7374  0.1132 -2.4507
 5662SOL     OW18426   7.541   0.949   7.878  0.1830  0.7305 -0.1544
 5662SOL    HW118427   7.634   0.926   7.874  0.0395 -0.1260  0.9357
 5662SOL    HW218428   7.496   0.870   7.847 -0.1954  1.1599 -0.7321
 5663SOL     OW18429   7.062   4.259   6.784 -0.0715  0.0312 -0.2099
 5663SOL    HW118430   7.094   4.348   6.768  0.8968 -0.3763 -0.6441
 5663SOL    HW218431   7.140   4.204   6.775 -0.3353 -0.7123  1.6148
 5664SOL     OW18432   3.695   3.955   5.307 -0.2466  0.1334 -0.0351
 5664SOL    HW118433   3.730   4.024   5.252  2.4580 -0.2821  0.9867
 5664SOL    HW218434   3.619   3.921   5.259  0.4741  1.4433 -2.2314
 5665SOL     OW18435   4.003   7.405  12.152 -0.0293  0.2704 -0.1494
 5665SOL    HW118436   3.939   7.335  12.160 -0.1931  0.4189 -0.1488
 5665SOL    HW218437   4.043   7.392  12.067  1.1410 -0.8328  0.5389
 5666SOL     OW18438   4.572   0.157   8.869 -0.1713  0.1215 -0.1715
 5666SOL    HW118439   4.613   0.176   8.954 -0.2516  0.2524 -0.1616
 5666SOL    HW218440   4.591   0.233   8.815 -0.9969  0.5038  0.0557
 5667SOL     OW18441   0.409   7.924   0.142 -0.2298 -0.2584  0.1604
 5667SOL    HW118442   0.463   7.934   0.220 -1.4488 -2.1524  1.3489
 5667SOL    HW218443   0.348   7.854   0.165 -3.0776  1.6185 -1.1595
 5668SOL     OW18444   5.039   4.610   7.945 -0.2669  0.1661  0.5451
 5668SOL    HW118445   4.993   4.546   7.892 -0.5461  1.3304 -0.6909
 5668SOL    HW218446   5.128   4.575   7.954 -0.5532 -0.6275  0.3507
 5669SOL     OW18447   6.574   4.285   1.696 -0.1024  0.5063  0.0308
 5669SOL    HW118448   6.585   4.192   1.676 -0.8235  0.2623  0.7161
 5669SOL    HW218449   6.661   4.314   1.723 -0.1854 -0.3669  1.3440
 5670SOL     OW18450   1.383   1.843   1.205  0.4959  0.0524 -0.1631
 5670SOL    HW118451   1.344   1.756   1.206  1.1361 -0.2348  0.6095
 5670SOL    HW218452   1.421   1.851   1.117  2.0266 -1.1834  0.3370
 5671SOL     OW18453   7.226   6.516   2.883 -0.3349  0.2310  0.7612
 5671SOL    HW118454   7.220   6.443   2.821  0.3955  0.6333  0.2103
 5671SOL    HW218455   7.159   6.496   2.948 -1.5555  0.1118 -0.4746
 5672SOL     OW18456   5.871   2.144   2.119  0.4794 -0.1190  0.3211
 5672SOL    HW118457   5.959   2.108   2.129  0.5432 -0.6614 -1.7373
 5672SOL    HW218458   5.879   2.235   2.147  1.3522 -0.5295  1.4478
 5673SOL     OW18459   7.083   5.295   3.502 -0.3388 -0.7593  0.1282
 5673SOL    HW118460   7.045   5.208   3.487 -1.5703 -0.2304  0.0534
 5673SOL    HW218461   7.063   5.344   3.422  2.9539 -1.2211 -1.1401
 5674SOL     OW18462   6.350   2.552  12.068  0.6105 -0.1537  0.3019
 5674SOL    HW118463   6.334   2.621  12.132 -0.4297 -1.0421  1.0242
 5674SOL    HW218464   6.265   2.510  12.056  1.2902 -1.5520  0.1559
 5675SOL     OW18465   3.858   2.618   1.576 -0.0577 -0.0328 -0.5160
 5675SOL    HW118466   3.895   2.568   1.649 -0.0901 -0.9868 -1.1294
 5675SOL    HW218467   3.770   2.642   1.605  0.3059  0.5012  0.1639
 5676SOL     OW18468   2.272   0.925   0.377 -0.2471  0.2436 -0.3411
 5676SOL    HW118469   2.237   0.996   0.432 -0.9332  0.8267 -1.4748
 5676SOL    HW218470   2.263   0.847   0.431 -1.9244  0.6154  0.0066
 5677SOL     OW18471   3.396   0.578   9.199 -0.2406 -0.1587 -0.0279
 5677SOL    HW118472   3.320   0.520   9.206 -0.6496  0.4698  0.9101
 5677SOL    HW218473   3.416   0.603   9.289 -0.6429  1.8738 -0.4491
 5678SOL     OW18474   5.145   3.841   0.418 -0.5097  0.2930  0.0351
 5678SOL    HW118475   5.088   3.765   0.432 -0.3671 -0.1502 -1.5732
 5678SOL    HW218476   5.229   3.815   0.455 -0.0582 -0.9367 -1.7189
 5679SOL     OW18477   7.325   6.528   7.181 -0.1327 -0.1446  0.0131
 5679SOL    HW118478   7.294   6.591   7.115  2.7336  1.4402  0.0098
 5679SOL    HW218479   7.382   6.469   7.133  0.4744 -0.1525  0.7206
 5680SOL     OW18480   0.865   0.551  11.232 -0.7394 -0.2089 -0.4115
 5680SOL    HW118481   0.946   0.593  11.202 -0.6736 -0.7391 -1.0043
 5680SOL    HW218482   0.817   0.622  11.275  0.8392 -0.2869  1.6614
 5681SOL     OW18483   5.061   3.118   2.393  0.2491 -0.3018 -0.3471
 5681SOL    HW118484   5.057   3.211   2.415 -0.4329 -0.8266  2.1089
 5681SOL    HW218485   4.980   3.081   2.431  1.7282 -2.2723  1.1054
 5682SOL     OW18486   2.226   0.153  11.207 -0.0210 -0.3811 -0.0731
 5682SOL    HW118487   2.208   0.195  11.291 -0.3885  1.5135 -1.0344
 5682SOL    HW218488   2.322   0.152  11.201  0.0017  0.9068 -0.2650
 5683SOL     OW18489   6.527   2.053   0.512  0.3967  0.2428  0.0891
 5683SOL    HW118490   6.596   2.012   0.460  1.1142  1.5735 -0.0629
 5683SOL    HW218491   6.569   2.072   0.596  0.5995  2.0705 -0.3780
 5684SOL     OW18492   2.153   3.171  10.904  0.4238  0.5406  0.2392
 5684SOL    HW118493   2.092   3.168  10.830 -1.5052  0.7488  1.7326
 5684SOL    HW218494   2.200   3.254  10.894  0.5901  0.3226 -1.0017
 5685SOL     OW18495   0.836   5.859  12.109  0.1015  0.1433 -0.3370
 5685SOL    HW118496   0.896   5.792  12.077 -1.1704 -1.0612 -0.2882
 5685SOL    HW218497   0.853   5.935  12.053  0.6508 -0.6473 -1.2643
 5686SOL     OW18498   6.075   1.308   7.934 -0.3915 -0.1008  0.2417
 5686SOL    HW118499   6.100   1.355   8.013 -0.1905  0.4737 -0.1558
 5686SOL    HW218500   6.089   1.370   7.863  0.0857 -0.8312 -0.3271
 5687SOL     OW18501   5.654   7.866   8.744  0.4690  0.7498 -0.1069
 5687SOL    HW118502   5.559   7.877   8.753  0.4618  1.2830 -0.8014
 5687SOL    HW218503   5.673   7.785   8.791 -0.7076 -0.7561 -2.0851
 5688SOL     OW18504   7.831   7.244   7.930  0.1126 -0.1158  0.4880
 5688SOL    HW118505   7.813   7.280   7.844  2.1584  2.1644  0.8829
 5688SOL    HW218506   7.927   7.239   7.934  0.0114 -2.2397  1.8740
 5689SOL     OW18507   0.524   1.317   7.794 -0.2919 -0.2619  0.4247
 5689SOL    HW118508   0.440   1.364   7.796 -0.0343  0.3398 -1.1162
 5689SOL    HW218509   0.565   1.339   7.877 -0.4893  1.7324  0.0568
 5690SOL     OW18510   2.033   7.646  10.757  0.0686  0.6514 -0.0565
 5690SOL    HW118511   2.106   7.675  10.812 -0.3825 -2.2098  2.3335
 5690SOL    HW218512   1.955   7.661  10.810 -0.4375 -1.6571 -0.0229
 5691SOL     OW18513   3.685   1.966   7.523  0.0807  0.4138 -0.3805
 5691SOL    HW118514   3.705   1.918   7.443 -0.3466  2.3083 -1.6853
 5691SOL    HW218515   3.758   1.946   7.582  0.2779 -1.2046 -1.1249
 5692SOL     OW18516   0.906   0.972   3.990 -0.1566 -0.7561  0.8694
 5692SOL    HW118517   0.971   0.905   4.011  0.3443 -0.8747 -0.8720
 5692SOL    HW218518   0.845   0.928   3.930  0.3696  0.4002 -0.5645
 5693SOL     OW18519   0.726   1.224   1.406  0.2567  0.1020  0.5365
 5693SOL    HW118520   0.643   1.237   1.451 -0.8825  1.4329 -1.7865
 5693SOL    HW218521   0.705   1.170   1.330  1.5055  0.4407 -0.0859
 5694SOL     OW18522   5.185   3.581   1.218  0.2190  0.5348  0.0412
 5694SOL    HW118523   5.169   3.572   1.312  0.9004 -1.0105  0.0288
 5694SOL    HW218524   5.277   3.606   1.212  0.1380  0.7786 -0.2251
 5695SOL     OW18525   7.684   0.885   2.857  0.3321 -0.0515 -0.1464
 5695SOL    HW118526   7.778   0.886   2.835  0.5274  0.9988  0.6044
 5695SOL    HW218527   7.641   0.924   2.781  0.5360 -0.2729 -0.3761
 5696SOL     OW18528   6.493   2.143   5.590 -0.2455  0.3517 -0.0458
 5696SOL    HW118529   6.567   2.200   5.569  1.9503 -0.8062  3.5714
 5696SOL    HW218530   6.533   2.057   5.603 -2.5333 -0.7329  0.2162
 5697SOL     OW18531   4.850   7.703   1.823  0.0471  0.0651  0.2134
 5697SOL    HW118532   4.928   7.703   1.767  0.1030  1.0575  0.2698
 5697SOL    HW218533   4.885   7.703   1.912 -0.0391 -0.9098  0.2582
 5698SOL     OW18534   5.932   0.433   5.088  0.2001 -0.4276 -0.1074
 5698SOL    HW118535   5.908   0.525   5.096 -0.0473 -0.4417 -0.5950
 5698SOL    HW218536   5.914   0.395   5.174 -1.2915 -0.3732 -0.3577
 5699SOL     OW18537   1.200   1.437   7.105  0.1872 -0.2510 -0.3124
 5699SOL    HW118538   1.218   1.343   7.111 -0.7928 -0.3659  1.6773
 5699SOL    HW218539   1.157   1.459   7.188 -0.8466  1.6927 -1.2856
 5700SOL     OW18540   0.396   7.160   3.335  0.2217  0.1802  0.2586
 5700SOL    HW118541   0.478   7.209   3.339 -0.3097  1.1358 -0.0348
 5700SOL    HW218542   0.392   7.113   3.418  1.5967 -0.7921 -0.1980
 5701SOL     OW18543   7.022   7.316   0.115  0.0361 -0.7179 -0.3495
 5701SOL    HW118544   7.083   7.258   0.069 -1.2581 -1.5232 -1.1169
 5701SOL    HW218545   7.032   7.401   0.071 -0.0637 -1.0853 -1.1030
 5702SOL     OW18546   1.170   3.999   4.001 -0.1752 -0.3194 -0.2801
 5702SOL    HW118547   1.206   3.976   4.087  1.4457  0.6855 -0.6529
 5702SOL    HW218548   1.201   3.929   3.943 -0.8616 -0.7343 -0.1616
 5703SOL     OW18549   3.739   0.401   8.912 -0.3038 -0.1228  0.3455
 5703SOL    HW118550   3.690   0.479   8.885  0.5794  0.6718  0.9805
 5703SOL    HW218551   3.804   0.433   8.974 -0.4486 -1.4918  1.2509
 5704SOL     OW18552   2.408   7.147   8.566 -0.6703  0.1571  0.0763
 5704SOL    HW118553   2.389   7.061   8.606 -0.2557  0.4922  1.0143
 5704SOL    HW218554   2.413   7.129   8.472 -2.0142 -0.5937  0.1253
 5705SOL     OW18555   6.324   2.290   9.375 -0.1381 -0.1848 -0.3133
 5705SOL    HW118556   6.393   2.239   9.418  1.2685  0.5498 -1.5672
 5705SOL    HW218557   6.315   2.250   9.289  0.0194  0.8272 -0.8175
 5706SOL     OW18558   7.368   6.795   5.517 -0.4431  0.1107  0.2922
 5706SOL    HW118559   7.373   6.856   5.443  0.7599  0.2400  0.4604
 5706SOL    HW218560   7.385   6.709   5.479 -3.2870 -0.3634 -0.1508
 5707SOL     OW18561   1.068   7.470  10.155  0.0746  0.3342 -0.1903
 5707SOL    HW118562   1.136   7.527  10.119  0.1113  1.4089  1.4726
 5707SOL    HW218563   0.993   7.528  10.169 -1.0691 -0.7388 -1.5503
 5708SOL     OW18564   5.243   5.478   3.574  0.0553 -0.2856 -0.2147
 5708SOL    HW118565   5.149   5.464   3.557 -0.5685  3.1856 -0.3524
 5708SOL    HW218566   5.246   5.521   3.659  1.0418  3.3109 -1.8932
 5709SOL     OW18567   6.627   6.752   3.120 -0.1257 -0.1746 -0.4766
 5709SOL    HW118568   6.542   6.728   3.155 -0.4721  0.3400 -0.9531
 5709SOL    HW218569   6.649   6.681   3.059  1.4524 -2.2367  2.2139
 5710SOL     OW18570   5.701   6.265   9.448  0.1056  0.0893  0.5808
 5710SOL    HW118571   5.778   6.209   9.445 -0.1929 -0.2939 -0.7240
 5710SOL    HW218572   5.720   6.335   9.386 -1.2081 -0.8686 -0.9692
 5711SOL     OW18573   0.134   3.516   3.133 -0.8193  0.0156  0.4047
 5711SOL    HW118574   0.095   3.446   3.187 -0.1634  1.2559  2.6129
 5711SOL    HW218575   0.079   3.592   3.150 -1.1601  0.2508 -1.5051
 5712SOL     OW18576   1.667   7.472  11.110 -0.7494  0.0996  0.1715
 5712SOL    HW118577   1.629   7.464  11.197  0.1448  0.3349  0.6009
 5712SOL    HW218578   1.597   7.509  11.056 -0.8407  1.4185  1.1464
 5713SOL     OW18579   4.018   1.988  10.666 -0.2296  0.0877  0.4290
 5713SOL    HW118580   3.936   1.964  10.622 -0.3247 -0.3663  0.8489
 5713SOL    HW218581   4.063   1.905  10.680 -0.8112  0.0510  2.3917
 5714SOL     OW18582   4.253   6.939  11.438  0.4420 -0.7339 -0.3637
 5714SOL    HW118583   4.222   6.903  11.355 -0.9432 -0.2128 -0.1098
 5714SOL    HW218584   4.261   6.863  11.496  1.6059 -1.1227 -1.0117
 5715SOL     OW18585   2.581   2.969  10.862 -0.2063  0.1523  0.0801
 5715SOL    HW118586   2.499   2.960  10.912 -1.0587  0.5042 -1.1893
 5715SOL    HW218587   2.629   3.038  10.908 -0.7969  0.2140  0.6262
 5716SOL     OW18588   2.660   0.103  10.376  0.0752  0.0946  0.0658
 5716SOL    HW118589   2.658   0.008  10.387  0.9072 -0.2872 -2.4331
 5716SOL    HW218590   2.752   0.124  10.366 -0.1678  1.0135 -0.3820
 5717SOL     OW18591   2.095   1.111   4.101 -0.1527  0.3757  0.0596
 5717SOL    HW118592   2.098   1.192   4.152 -1.0624  1.0020 -0.8223
 5717SOL    HW218593   2.050   1.048   4.157 -1.0198  1.0115  0.0997
 5718SOL     OW18594   2.374   1.738  10.253 -0.1331  0.2323 -0.2463
 5718SOL    HW118595   2.424   1.819  10.254 -1.2507  0.9554  0.6501
 5718SOL    HW218596   2.398   1.695  10.335  0.3412 -0.2765 -0.6481
 5719SOL     OW18597   1.366   1.818   3.899 -0.9594  0.5306 -0.2613
 5719SOL    HW118598   1.442   1.770   3.865 -1.5381 -0.5662 -0.0478
 5719SOL    HW218599   1.363   1.898   3.847  0.3307  0.5902 -0.2853
 5720SOL     OW18600   7.957   3.029   9.480  0.2360 -0.5525  0.8967
 5720SOL    HW118601   7.904   3.022   9.401 -1.3920 -0.8849  1.9838
 5720SOL    HW218602   8.047   3.015   9.450 -0.5188 -2.5365 -0.6240
 5721SOL     OW18603   6.979   1.707   7.468 -0.0709 -0.3749  0.4421
 5721SOL    HW118604   6.926   1.651   7.411  1.0000 -2.5015  1.4066
 5721SOL    HW218605   6.934   1.706   7.552  0.2834 -0.2696  0.6333
 5722SOL     OW18606   0.741   2.734   8.600 -0.3758 -0.2835  0.3644
 5722SOL    HW118607   0.824   2.741   8.552  1.4682 -1.1266  3.1548
 5722SOL    HW218608   0.711   2.645   8.583 -0.0435 -0.3857  0.2917
 5723SOL     OW18609   5.659   2.014   2.322 -0.6614 -0.3839 -0.7944
 5723SOL    HW118610   5.717   1.997   2.397 -0.9829 -0.2286 -0.5124
 5723SOL    HW218611   5.611   1.932   2.311 -0.3063 -0.5538 -1.1036
 5724SOL     OW18612   6.424   5.304   3.893 -0.2989  0.1507  0.6880
 5724SOL    HW118613   6.478   5.379   3.919 -0.8636 -0.2450  3.1955
 5724SOL    HW218614   6.487   5.242   3.857  0.9982 -0.1987  3.3035
 5725SOL     OW18615   4.886   6.282   6.350 -0.0823  0.3540  0.4237
 5725SOL    HW118616   4.887   6.340   6.274 -0.1201 -0.0669  0.1015
 5725SOL    HW218617   4.977   6.283   6.382 -0.2856  1.3446  0.9998
 5726SOL     OW18618   5.265   3.677   9.130 -0.1677  0.5420 -0.4493
 5726SOL    HW118619   5.249   3.765   9.162  0.6771  0.3079  0.6512
 5726SOL    HW218620   5.317   3.690   9.050 -1.5055  1.0823 -1.2735
 5727SOL     OW18621   7.495   6.863   3.452 -0.0249 -0.1847  0.1654
 5727SOL    HW118622   7.462   6.782   3.491 -0.2045 -0.1724  0.0353
 5727SOL    HW218623   7.538   6.908   3.525 -0.1834 -0.2580  0.3057
 5728SOL     OW18624   4.591   3.083   3.913 -0.2795  0.0628  0.0618
 5728SOL    HW118625   4.677   3.103   3.875 -0.1018 -0.2776  0.2712
 5728SOL    HW218626   4.594   3.121   4.000 -0.0415 -0.6212  0.3601
 5729SOL     OW18627   7.865   7.563   9.275 -0.4877 -0.1243 -0.8451
 5729SOL    HW118628   7.912   7.585   9.195 -0.5769  0.6405 -0.6966
 5729SOL    HW218629   7.777   7.540   9.246 -0.8413  1.1885 -0.8987
 5730SOL     OW18630   1.229   5.619   7.337  0.0139 -0.1867 -0.1043
 5730SOL    HW118631   1.249   5.575   7.419 -1.7749 -0.4724  0.2229
 5730SOL    HW218632   1.284   5.698   7.337  1.2311 -1.0016  0.5681
 5731SOL     OW18633   4.370   7.381  10.877  0.6993 -0.6180 -0.0136
 5731SOL    HW118634   4.281   7.344  10.881  0.0863  0.8763  0.7805
 5731SOL    HW218635   4.382   7.403  10.785  0.7792 -2.0125 -0.3667
 5732SOL     OW18636   5.338   5.893   1.582 -0.5460 -0.7664  0.3315
 5732SOL    HW118637   5.338   5.988   1.596  3.5427 -0.4027 -0.8959
 5732SOL    HW218638   5.334   5.882   1.487 -0.6039 -1.7942  0.4415
 5733SOL     OW18639   5.674   1.431   1.005  0.5025 -0.3102  0.0178
 5733SOL    HW118640   5.583   1.408   0.986  1.0043 -0.8873 -1.8645
 5733SOL    HW218641   5.677   1.441   1.100 -1.2181 -1.6409  0.2521
 5734SOL     OW18642   0.982   3.387   6.003 -0.3912 -0.0326 -0.0416
 5734SOL    HW118643   0.965   3.346   6.088 -0.4534  0.1106  0.0155
 5734SOL    HW218644   1.002   3.314   5.945 -2.2621 -0.3443 -0.3731
 5735SOL     OW18645   0.097   5.070   5.146 -0.4443  0.2073  0.5664
 5735SOL    HW118646   0.110   5.164   5.135  0.1254 -0.0402 -1.2641
 5735SOL    HW218647   0.100   5.056   5.241 -2.9436  2.3333  1.0714
 5736SOL     OW18648   2.290   1.424   7.196 -0.3893 -0.6821 -0.1736
 5736SOL    HW118649   2.348   1.480   7.143 -0.6934 -1.7594 -1.7203
 5736SOL    HW218650   2.208   1.473   7.201 -0.7796 -1.1048 -1.8466
 5737SOL     OW18651   7.977   1.355   8.051 -0.2668  0.2384  0.2305
 5737SOL    HW118652   8.007   1.442   8.024 -1.3230  0.8753  1.0016
 5737SOL    HW218653   7.896   1.372   8.100 -0.9471 -1.2510 -0.3050
 5738SOL     OW18654   5.358   7.820   9.899 -0.3520  0.1883 -0.1848
 5738SOL    HW118655   5.275   7.837   9.854 -0.9336 -0.9908  0.4127
 5738SOL    HW218656   5.337   7.755   9.966  0.7348  1.0248  1.0271
 5739SOL     OW18657   2.883   4.471   0.470  0.3614 -0.2264 -0.7160
 5739SOL    HW118658   2.789   4.477   0.453  0.2048  1.1131  0.3953
 5739SOL    HW218659   2.903   4.553   0.515  1.3467 -2.0579  2.4215
 5740SOL     OW18660   1.091   7.360   8.739  0.6135  0.1713  0.1857
 5740SOL    HW118661   1.141   7.431   8.700  1.8546  0.0648  1.4960
 5740SOL    HW218662   1.114   7.283   8.687  1.5953  0.1943  0.5483
 5741SOL     OW18663   2.093   5.139   1.076  0.1617 -0.7430  0.0009
 5741SOL    HW118664   2.006   5.168   1.103  1.2292  0.0510  2.9568
 5741SOL    HW218665   2.112   5.191   0.998 -1.2449  0.5116  0.4415
 5742SOL     OW18666   4.357   0.386   9.786 -0.1393  0.2261 -0.7628
 5742SOL    HW118667   4.365   0.482   9.788 -0.6123  0.3176 -2.3093
 5742SOL    HW218668   4.302   0.368   9.709 -0.5504 -1.2617 -0.1573
 5743SOL     OW18669   0.107   1.246   3.889  0.8568 -0.4401 -0.1297
 5743SOL    HW118670   0.202   1.234   3.894  0.5326 -3.4744  0.5577
 5743SOL    HW218671   0.080   1.196   3.813 -0.2291  0.3969 -0.3270
 5744SOL     OW18672   1.570   4.458   2.024 -0.4812 -0.0902 -0.1006
 5744SOL    HW118673   1.548   4.409   1.945  0.0505 -0.1446 -0.2175
 5744SOL    HW218674   1.644   4.410   2.062  0.4483  0.9590 -0.5453
 5745SOL     OW18675   7.866   4.913   4.172  0.4536 -0.3403 -0.6006
 5745SOL    HW118676   7.886   4.820   4.181  0.2352 -0.2634  0.9165
 5745SOL    HW218677   7.780   4.916   4.130 -0.5121 -0.9012  1.2540
 5746SOL     OW18678   7.553   7.427  12.002 -0.4517  0.4681 -0.1919
 5746SOL    HW118679   7.553   7.429  11.907  0.8848 -1.3260 -0.2848
 5746SOL    HW218680   7.618   7.493  12.028 -1.1256  1.2628 -0.4730
 5747SOL     OW18681   2.139   7.463   2.985 -0.1032 -0.5274  0.3590
 5747SOL    HW118682   2.170   7.551   2.962  1.1040 -1.0679 -0.2140
 5747SOL    HW218683   2.219   7.413   3.000 -0.7714 -1.5291  0.6840
 5748SOL     OW18684   6.792   2.044   4.633 -0.6722  0.0164 -0.2425
 5748SOL    HW118685   6.708   2.001   4.615 -0.3226 -1.2115  0.8532
 5748SOL    HW218686   6.857   1.975   4.623 -0.1331  0.1187  1.9958
 5749SOL     OW18687   4.125   4.755   0.728  0.4824 -0.4347  0.2127
 5749SOL    HW118688   4.042   4.773   0.772  0.3173 -1.4088  0.3167
 5749SOL    HW218689   4.184   4.822   0.761 -0.6731  1.3293 -1.1186
 5750SOL     OW18690   3.671   4.597  11.264 -0.3189  0.1739  0.1122
 5750SOL    HW118691   3.673   4.511  11.222  0.5511  1.0322 -1.7152
 5750SOL    HW218692   3.674   4.578  11.358  2.4996 -1.7519 -0.2527
 5751SOL     OW18693   6.578   1.078   9.777  0.5098  0.3896  0.4173
 5751SOL    HW118694   6.627   1.158   9.758 -0.1474  0.8531  0.6224
 5751SOL    HW218695   6.487   1.108   9.789  0.4334 -0.2433  1.5408
 5752SOL     OW18696   0.264   7.660   3.705 -0.1843  0.0178  0.0498
 5752SOL    HW118697   0.180   7.679   3.663  0.3131  0.7795 -0.6489
 5752SOL    HW218698   0.248   7.582   3.758 -1.8571  1.3341  1.5757
 5753SOL     OW18699   1.902   0.561   3.811 -0.2735 -0.4676  0.6279
 5753SOL    HW118700   1.808   0.580   3.806 -0.4940 -1.7435 -1.6992
 5753SOL    HW218701   1.941   0.621   3.747  0.4788 -0.1860  1.3332
 5754SOL     OW18702   5.607   1.615   0.119 -0.2150 -0.8555  0.0347
 5754SOL    HW118703   5.577   1.667   0.193 -3.0329 -0.9990 -0.8717
 5754SOL    HW218704   5.640   1.534   0.158  1.0266  0.1782  1.2381
 5755SOL     OW18705   6.446   7.078   6.334 -0.0376  0.3205 -0.1642
 5755SOL    HW118706   6.519   7.023   6.305  0.3159 -0.9139  2.6565
 5755SOL    HW218707   6.369   7.024   6.320 -0.3247  1.1347 -1.9778
 5756SOL     OW18708   4.894   4.970   6.324  0.0082 -0.5091  0.1059
 5756SOL    HW118709   4.840   5.049   6.328 -0.0543 -0.5161 -0.5462
 5756SOL    HW218710   4.853   4.911   6.387  0.5069  0.2450  1.1618
 5757SOL     OW18711   7.775   1.641   2.255  0.0679 -0.8873 -0.0122
 5757SOL    HW118712   7.747   1.732   2.246 -1.0373 -1.3756 -2.2484
 5757SOL    HW218713   7.828   1.624   2.177  0.5890 -2.0731  0.5638
 5758SOL     OW18714   7.007   2.159   2.422  0.4792  0.4624  0.3014
 5758SOL    HW118715   6.935   2.191   2.475 -0.0143  0.4285 -0.3405
 5758SOL    HW218716   7.051   2.095   2.478 -0.5342 -0.1917  0.3782
 5759SOL     OW18717   1.775   5.649   3.664 -0.2411 -0.0247  0.4902
 5759SOL    HW118718   1.792   5.640   3.758 -0.4942  1.6231  0.7263
 5759SOL    HW218719   1.742   5.563   3.637  1.1452 -0.9491  1.6019
 5760SOL     OW18720   6.301   6.667   0.165 -0.3695 -0.1117 -0.7975
 5760SOL    HW118721   6.375   6.727   0.174 -0.2847 -0.1209 -1.4300
 5760SOL    HW218722   6.298   6.621   0.249 -1.4016  1.8677  0.3310
 5761SOL     OW18723   2.368   1.114   6.900  0.4734  0.3358  0.3583
 5761SOL    HW118724   2.376   1.196   6.851 -0.8162  0.3047  0.0729
 5761SOL    HW218725   2.310   1.135   6.973  0.5239 -0.2141  0.5622
 5762SOL     OW18726   7.514   1.011   3.525 -0.3159  0.4105 -0.2031
 5762SOL    HW118727   7.455   1.081   3.552 -0.3049 -0.3125  1.8785
 5762SOL    HW218728   7.542   0.970   3.607  1.8969 -0.2442 -1.2092
 5763SOL     OW18729   2.312   5.350  11.668  0.9411  0.4231 -0.2086
 5763SOL    HW118730   2.235   5.387  11.624  0.4325 -0.3933 -0.0308
 5763SOL    HW218731   2.335   5.414  11.735  0.2042  0.5111 -0.0330
 5764SOL     OW18732   1.155   4.760   9.282  0.5530  0.0613  0.2170
 5764SOL    HW118733   1.173   4.836   9.226 -1.5496  0.4666  0.0202
 5764SOL    HW218734   1.071   4.727   9.251  1.6766 -2.7763 -0.1046
 5765SOL     OW18735   3.587   3.388   5.777 -0.5519  0.4171  0.2575
 5765SOL    HW118736   3.517   3.439   5.736  0.6009  2.8642  1.1413
 5765SOL    HW218737   3.657   3.388   5.712 -0.6914 -0.4965  0.0877
 5766SOL     OW18738   4.545   5.010   5.001 -0.0494 -0.0064  0.5919
 5766SOL    HW118739   4.544   5.041   4.911 -0.7736  2.1467  1.2926
 5766SOL    HW218740   4.453   5.006   5.027  0.1498 -0.5429  1.2605
 5767SOL     OW18741   5.855   1.358   4.079 -0.1292  0.4802  0.0867
 5767SOL    HW118742   5.859   1.357   3.983  1.0492 -0.8533  0.1113
 5767SOL    HW218743   5.785   1.420   4.100 -1.3834 -0.2625 -1.6684
 5768SOL     OW18744   0.217   1.539   8.339 -0.0446 -0.5894  0.0638
 5768SOL    HW118745   0.196   1.578   8.254  0.6504  0.2575  0.2679
 5768SOL    HW218746   0.297   1.583   8.367 -0.1915 -0.9464  1.1046
 5769SOL     OW18747   7.793   0.697   7.652  0.0423  0.1194 -0.1692
 5769SOL    HW118748   7.857   0.706   7.723  1.5105 -2.4796 -1.0262
 5769SOL    HW218749   7.813   0.769   7.592  1.7926 -0.2425 -0.0767
 5770SOL     OW18750   1.083   0.357   7.875  0.5986 -0.2915  0.5904
 5770SOL    HW118751   1.049   0.367   7.786 -0.0209  1.8330  1.0284
 5770SOL    HW218752   1.163   0.410   7.877 -0.4731  1.3687  1.8181
 5771SOL     OW18753   5.986   0.671   0.922 -0.5115  0.1835  0.3752
 5771SOL    HW118754   6.053   0.692   0.856 -0.4299 -0.7708  0.1468
 5771SOL    HW218755   5.911   0.640   0.871  0.1002 -2.0606  0.7715
 5772SOL     OW18756   1.244   3.234   0.963 -0.1000 -0.0842  0.1630
 5772SOL    HW118757   1.266   3.208   0.873 -0.2670  0.9836 -0.1979
 5772SOL    HW218758   1.153   3.207   0.974 -0.4725  0.8858 -0.4276
 5773SOL     OW18759   6.543   0.766   8.144  0.4954  0.2870  0.5400
 5773SOL    HW118760   6.507   0.843   8.099  0.0657  0.3504  0.9842
 5773SOL    HW218761   6.628   0.795   8.177  1.0094  0.1104 -0.5928
 5774SOL     OW18762   5.782   3.749   2.039  0.3556 -0.1250 -0.1621
 5774SOL    HW118763   5.750   3.838   2.052 -1.1257 -0.2717 -2.3426
 5774SOL    HW218764   5.833   3.753   1.958  1.5894 -0.9695  0.5466
 5775SOL     OW18765   7.229   5.664   4.831 -0.1336 -0.5100  0.0509
 5775SOL    HW118766   7.188   5.595   4.884 -0.2123 -0.1826  0.4260
 5775SOL    HW218767   7.161   5.731   4.824  0.2316 -0.1012  0.4119
 5776SOL     OW18768   2.034   3.550   0.329 -0.0009 -0.0231  0.1178
 5776SOL    HW118769   2.004   3.607   0.400  0.5963 -1.2152  1.3790
 5776SOL    HW218770   1.965   3.556   0.263  0.0058  2.0754  0.2137
 5777SOL     OW18771   5.721   4.779   1.497  0.4137  0.3024 -0.0168
 5777SOL    HW118772   5.745   4.869   1.521  0.9386  0.1059  0.1912
 5777SOL    HW218773   5.660   4.791   1.424  0.3167  0.8357  0.1414
 5778SOL     OW18774   1.526   5.545   7.024  0.6198  0.0495 -0.1210
 5778SOL    HW118775   1.455   5.606   7.007 -0.1100 -0.9792 -0.8641
 5778SOL    HW218776   1.517   5.524   7.117 -0.2386 -0.2878 -0.2686
 5779SOL     OW18777   3.670   0.612  11.877 -0.1838  0.6075 -0.0340
 5779SOL    HW118778   3.757   0.644  11.853  0.0627 -0.9479 -1.4100
 5779SOL    HW218779   3.618   0.626  11.797 -1.0208  0.8818  0.5498
 5780SOL     OW18780   7.232   3.544   3.263 -0.4181  0.5556 -0.2673
 5780SOL    HW118781   7.294   3.533   3.190  0.0404  0.4259  0.1329
 5780SOL    HW218782   7.232   3.459   3.307 -1.3038  0.3823 -0.5755
 5781SOL     OW18783   4.919   4.480   1.927 -0.0561 -0.1730 -0.2198
 5781SOL    HW118784   4.840   4.499   1.876 -0.9472 -1.6267  0.5476
 5781SOL    HW218785   4.972   4.560   1.920 -0.5163 -0.0008 -2.6681
 5782SOL     OW18786   2.847   5.485  11.991 -0.3956 -0.3892 -0.2245
 5782SOL    HW118787   2.835   5.539  11.913  0.9126 -1.6768 -1.3499
 5782SOL    HW218788   2.900   5.411  11.963 -0.7492 -1.4435  1.6565
 5783SOL     OW18789   7.782   0.454   9.644 -0.2884 -0.8322 -0.4572
 5783SOL    HW118790   7.831   0.406   9.710  1.0480 -0.5079 -1.1653
 5783SOL    HW218791   7.792   0.546   9.668  1.5525 -0.5968 -1.9317
 5784SOL     OW18792   7.771   7.229  12.206 -0.1912 -0.0371 -0.3947
 5784SOL    HW118793   7.860   7.194  12.195 -0.2020 -0.4927  0.8244
 5784SOL    HW218794   7.754   7.221  12.300 -1.3098  0.5810 -0.5334
 5785SOL     OW18795   4.542   5.087   7.332  0.7761 -0.2003  0.4294
 5785SOL    HW118796   4.554   4.999   7.368 -0.8701 -0.1761  1.1480
 5785SOL    HW218797   4.485   5.074   7.256  1.0756  0.1828  0.1369
 5786SOL     OW18798   4.951   7.373   4.886 -0.4551  0.1954  0.2428
 5786SOL    HW118799   4.994   7.419   4.814 -0.9303  2.7178  1.4576
 5786SOL    HW218800   4.859   7.367   4.858 -0.8471  2.0553  0.9370
 5787SOL     OW18801   5.228   3.657   3.759  0.3180 -0.0269  0.5161
 5787SOL    HW118802   5.173   3.654   3.838 -0.4914  0.7867  0.0038
 5787SOL    HW218803   5.274   3.741   3.766 -1.7319  1.3358 -1.1225
 5788SOL     OW18804   4.046   0.100   0.289  0.2383 -0.4936  0.0958
 5788SOL    HW118805   4.100   0.178   0.278  2.9531 -2.1067  1.0587
 5788SOL    HW218806   4.019   0.078   0.200  2.1120 -0.2122 -0.5984
 5789SOL     OW18807   5.087   7.236  10.730 -0.2009 -0.2905 -0.2764
 5789SOL    HW118808   5.063   7.145  10.712  1.0472 -0.6334 -0.2597
 5789SOL    HW218809   5.146   7.231  10.805  0.2958  0.4850 -0.6016
 5790SOL     OW18810   7.965   2.466  10.649 -0.3537  0.4664  0.2997
 5790SOL    HW118811   8.045   2.420  10.621 -0.3601  0.3648  0.4488
 5790SOL    HW218812   7.969   2.465  10.744 -0.2905  0.8912  0.3011
 5791SOL     OW18813   2.183   1.599   3.287  0.1072 -0.2600 -0.0584
 5791SOL    HW118814   2.203   1.541   3.361  1.9210 -0.0314 -0.3373
 5791SOL    HW218815   2.200   1.687   3.320 -0.8403 -0.0021 -0.2158
 5792SOL     OW18816   1.119   2.077   5.321  0.8970 -0.0541  0.1761
 5792SOL    HW118817   1.118   2.160   5.272 -1.4154  0.4934  1.0299
 5792SOL    HW218818   1.136   2.011   5.254 -0.3507  0.8377 -1.0995
 5793SOL     OW18819   6.374   5.404   8.332 -0.2101  0.1640  0.7332
 5793SOL    HW118820   6.469   5.394   8.320 -0.2883 -0.0663  0.2812
 5793SOL    HW218821   6.352   5.343   8.401 -0.0707  0.0117  0.6446
 5794SOL     OW18822   1.860   3.676   2.854 -0.2580  0.0967 -0.1606
 5794SOL    HW118823   1.949   3.644   2.866 -0.9753 -2.4257 -0.8730
 5794SOL    HW218824   1.811   3.636   2.926 -0.8911  1.2123  0.0462
 5795SOL     OW18825   1.941   7.522   2.191 -0.4612  0.3168 -0.3528
 5795SOL    HW118826   1.893   7.603   2.210  1.0094  1.3611 -0.8829
 5795SOL    HW218827   1.996   7.544   2.117  0.3148 -1.0504 -0.2111
 5796SOL     OW18828   2.872   7.319  10.521  0.2192 -0.5362  0.1283
 5796SOL    HW118829   2.777   7.321  10.510  0.1234 -1.0514  0.8192
 5796SOL    HW218830   2.886   7.341  10.613  0.7175 -1.2404  0.2336
 5797SOL     OW18831   0.511   5.860   1.214  0.7099 -0.4243 -0.5640
 5797SOL    HW118832   0.457   5.894   1.143  0.8232 -0.1884 -0.5387
 5797SOL    HW218833   0.449   5.828   1.279  0.5972 -1.2576 -1.0549
 5798SOL     OW18834   1.663   4.878   4.160 -0.1321 -0.0171  0.5814
 5798SOL    HW118835   1.737   4.908   4.212  0.2968 -0.0117 -0.0177
 5798SOL    HW218836   1.600   4.950   4.162 -0.1989 -0.0907  1.2352
 5799SOL     OW18837   4.591   7.813  11.383 -0.1661  0.4170 -0.4189
 5799SOL    HW118838   4.549   7.732  11.356  1.7666 -0.7866  0.0102
 5799SOL    HW218839   4.529   7.882  11.358 -2.0825 -1.1920 -0.3165
 5800SOL     OW18840   7.171   5.651  10.354  0.7450  0.1466  0.5012
 5800SOL    HW118841   7.192   5.642  10.447  1.3217  1.6817  0.5577
 5800SOL    HW218842   7.091   5.705  10.354  0.2099 -0.6255  0.1138
 5801SOL     OW18843   4.782   2.488  10.726  0.0486 -0.0599  0.1179
 5801SOL    HW118844   4.823   2.483  10.640  0.7172  0.7330  0.3745
 5801SOL    HW218845   4.754   2.399  10.745 -0.2144 -0.2200 -0.9712
 5802SOL     OW18846   0.537   3.153   3.441 -0.1950  0.0956 -0.0286
 5802SOL    HW118847   0.528   3.216   3.370  0.9525 -0.9840 -1.1954
 5802SOL    HW218848   0.599   3.088   3.407 -1.5988 -1.8558  0.9630
 5803SOL     OW18849   5.875   3.352   0.516  0.5095 -0.1345 -0.2075
 5803SOL    HW118850   5.966   3.326   0.530  0.4409  0.2090  0.9943
 5803SOL    HW218851   5.877   3.448   0.517  0.3131 -0.0977 -1.5397
 5804SOL     OW18852   5.890   0.679   5.730  0.3479 -0.2885 -0.1996
 5804SOL    HW118853   5.894   0.605   5.669 -1.4921 -1.1332  0.6541
 5804SOL    HW218854   5.948   0.655   5.802  0.0376 -0.7421 -0.1002
 5805SOL     OW18855   0.539   5.998   9.587 -0.2699 -0.2783  0.5750
 5805SOL    HW118856   0.483   5.950   9.525 -0.2983  1.9792 -1.2913
 5805SOL    HW218857   0.499   6.085   9.593  2.0718  0.8872  0.4739
 5806SOL     OW18858   7.215   2.249  10.861 -0.6171 -0.3364 -0.6824
 5806SOL    HW118859   7.159   2.326  10.870 -0.4881 -0.2853 -0.2541
 5806SOL    HW218860   7.187   2.207  10.780  0.7721  1.3748 -2.1590
 5807SOL     OW18861   1.107   1.942   8.932 -0.6757  0.0317 -0.2500
 5807SOL    HW118862   1.116   2.033   8.962  0.7201 -0.6897  1.7641
 5807SOL    HW218863   1.034   1.907   8.983  1.0219 -0.9001  1.6755
 5808SOL     OW18864   3.656   6.706  11.915 -0.5823 -0.9520 -0.3037
 5808SOL    HW118865   3.730   6.656  11.949 -0.4253 -1.2152 -1.0124
 5808SOL    HW218866   3.684   6.735  11.829 -0.6682  0.3852  0.1058
 5809SOL     OW18867   2.835   3.925  10.703 -0.3295  0.0401  0.1191
 5809SOL    HW118868   2.764   3.924  10.767  0.5300 -0.0207  1.1141
 5809SOL    HW218869   2.851   3.832  10.685  0.7491 -0.0597  1.3895
 5810SOL     OW18870   3.816   0.744   7.942  0.3713  0.1083  0.7118
 5810SOL    HW118871   3.784   0.759   8.031  0.1832 -0.3359  0.7220
 5810SOL    HW218872   3.788   0.655   7.922 -1.0961  0.7942 -0.4364
 5811SOL     OW18873   1.839   3.346   2.521 -0.2308  0.5738 -0.5904
 5811SOL    HW118874   1.757   3.394   2.532 -0.3920  0.4901 -1.3475
 5811SOL    HW218875   1.870   3.330   2.610 -0.1486  2.1270 -0.3074
 5812SOL     OW18876   4.897   0.600   5.645  0.0436  0.7374  0.4199
 5812SOL    HW118877   4.858   0.684   5.670  0.7735  0.9987  0.6846
 5812SOL    HW218878   4.990   0.610   5.664  0.0001 -0.4738  1.3723
 5813SOL     OW18879   1.461   3.344   9.826  0.0595  0.2687 -0.3036
 5813SOL    HW118880   1.508   3.261   9.835  0.8309  0.6910 -0.3118
 5813SOL    HW218881   1.379   3.321   9.784 -0.6134 -0.7723  1.4668
 5814SOL     OW18882   4.998   0.376   5.427 -0.4848 -0.0391  0.2790
 5814SOL    HW118883   4.967   0.463   5.454 -0.0658  0.3558 -0.4706
 5814SOL    HW218884   5.093   0.382   5.433 -0.3831  0.0090 -1.0651
 5815SOL     OW18885   5.582   5.901   4.754 -0.0958 -0.1283  0.3092
 5815SOL    HW118886   5.672   5.895   4.787  0.6050 -0.1225 -1.5141
 5815SOL    HW218887   5.571   5.823   4.700 -0.5859  0.7002 -0.8317
 5816SOL     OW18888   0.161   6.385   4.066 -0.1705 -0.4182 -0.1835
 5816SOL    HW118889   0.092   6.452   4.071  0.2590  0.0375 -0.2189
 5816SOL    HW218890   0.166   6.362   3.974 -0.9747 -1.2064 -0.0404
 5817SOL     OW18891   2.322   2.779  11.269 -0.0406  0.3378  0.1633
 5817SOL    HW118892   2.301   2.813  11.356  1.6748  1.2540  0.2686
 5817SOL    HW218893   2.248   2.723  11.247 -1.6830  1.9620  1.1791
 5818SOL     OW18894   7.236   0.089   9.636 -0.4739 -0.4204 -0.6878
 5818SOL    HW118895   7.241   0.184   9.649 -0.8463 -0.5518  0.4480
 5818SOL    HW218896   7.310   0.070   9.577  0.8915  0.2916  0.7096
 5819SOL     OW18897   0.779   6.909  10.558 -0.2905 -0.4285  0.1557
 5819SOL    HW118898   0.786   6.944  10.469 -0.9258 -0.3446  0.1383
 5819SOL    HW218899   0.754   6.817  10.546  0.9261 -0.7908  0.2157
 5820SOL     OW18900   1.350   4.742   3.104 -0.4726 -0.2057  0.2989
 5820SOL    HW118901   1.284   4.802   3.070  0.1228  0.7045  0.7039
 5820SOL    HW218902   1.430   4.795   3.109  0.1991 -1.1877  0.1505
 5821SOL     OW18903   3.588   1.837   6.929 -0.6087  0.0280  0.2815
 5821SOL    HW118904   3.601   1.753   6.973  1.3886  0.5488  0.7847
 5821SOL    HW218905   3.502   1.866   6.959 -1.6334 -2.0884 -0.3832
 5822SOL     OW18906   3.934   3.660   9.330  0.5164 -0.2913  0.0536
 5822SOL    HW118907   3.863   3.662   9.393 -0.7189 -0.9179 -1.2638
 5822SOL    HW218908   3.905   3.599   9.262  1.5952  0.6577 -1.3420
 5823SOL     OW18909   5.439   4.368   3.149 -0.3501  0.0750  0.1136
 5823SOL    HW118910   5.514   4.376   3.208 -0.8389 -2.2761  1.1797
 5823SOL    HW218911   5.372   4.324   3.201 -2.4240  1.8511 -0.8930
 5824SOL     OW18912   0.290   0.968   9.948 -0.0443 -0.0321  0.2681
 5824SOL    HW118913   0.226   0.946   9.881  0.4732  0.8701 -0.5458
 5824SOL    HW218914   0.241   1.019  10.013 -0.4440 -0.5107  0.3453
 5825SOL     OW18915   1.069   5.147   8.396  0.0091 -0.0150 -0.2852
 5825SOL    HW118916   1.069   5.232   8.439  0.2408  0.5521 -1.3793
 5825SOL    HW218917   1.003   5.097   8.444  0.5194  0.4555  0.9551
 5826SOL     OW18918   7.482   0.410   2.077 -0.2131  0.1857 -0.5998
 5826SOL    HW118919   7.408   0.362   2.039  0.8209 -0.9849 -1.1992
 5826SOL    HW218920   7.441   0.482   2.125 -1.6488  0.9752 -2.8666
 5827SOL     OW18921   1.310   3.854   6.037 -0.1582 -0.2931  0.6795
 5827SOL    HW118922   1.276   3.926   5.984 -0.0397 -0.2368  0.6784
 5827SOL    HW218923   1.293   3.776   5.985 -0.3652 -0.2754  0.7192
 5828SOL     OW18924   6.893   2.336   1.275 -0.0281 -0.2296 -0.3445
 5828SOL    HW118925   6.866   2.326   1.366  0.4540  0.9983 -0.0437
 5828SOL    HW218926   6.976   2.384   1.280  0.1684 -0.4374 -1.4148
 5829SOL     OW18927   6.492   3.478  11.332 -0.6412  0.2715 -0.4154
 5829SOL    HW118928   6.466   3.490  11.241  2.8459  0.6288 -1.5025
 5829SOL    HW218929   6.524   3.388  11.336  2.1520  1.1775 -0.4694
 5830SOL     OW18930   0.457   1.778   4.543  0.2570 -0.2663 -0.0150
 5830SOL    HW118931   0.490   1.847   4.601  1.3031 -0.2732 -0.5741
 5830SOL    HW218932   0.453   1.700   4.599 -0.2914  0.0899  0.4482
 5831SOL     OW18933   2.880   6.243   5.202  0.2871  0.6605  0.3020
 5831SOL    HW118934   2.859   6.151   5.187 -1.6847  0.8705  1.3948
 5831SOL    HW218935   2.799   6.289   5.183  0.2913  1.8256  2.7439
 5832SOL     OW18936   1.944   5.606   6.603  0.1893  0.1015 -0.1334
 5832SOL    HW118937   1.974   5.608   6.693  1.4676 -1.1884 -0.4860
 5832SOL    HW218938   1.905   5.519   6.593 -1.3678  0.7943 -0.4207
 5833SOL     OW18939   3.078   7.120  10.396  0.1389 -0.1630 -0.0297
 5833SOL    HW118940   3.000   7.169  10.372  0.4293 -0.0315 -0.7288
 5833SOL    HW218941   3.113   7.166  10.472 -0.3327 -0.0900  0.1452
 5834SOL     OW18942   4.863   3.130   5.254  0.3769  0.3043 -0.4592
 5834SOL    HW118943   4.807   3.052   5.248  1.7010 -0.6424 -1.1609
 5834SOL    HW218944   4.802   3.203   5.264 -0.8563 -0.9697  2.1704
 5835SOL     OW18945   3.528   7.848   6.251  0.1044  0.6441  0.3669
 5835SOL    HW118946   3.538   7.760   6.216  2.3507  1.0341 -0.1453
 5835SOL    HW218947   3.511   7.836   6.345 -2.1830 -0.3277 -0.1080
 5836SOL     OW18948   3.761   3.757   8.413 -0.1776  0.2347 -0.2932
 5836SOL    HW118949   3.802   3.723   8.334 -0.9224  0.3445 -0.7383
 5836SOL    HW218950   3.834   3.780   8.471  0.3575 -0.7111 -0.5737
 5837SOL     OW18951   1.398   5.115  10.985  0.6456 -1.0027  0.1503
 5837SOL    HW118952   1.454   5.189  11.008  0.4831 -0.4077 -1.2960
 5837SOL    HW218953   1.453   5.060  10.929  0.2286 -1.1208 -0.1461
 5838SOL     OW18954   1.207   2.930   7.387  0.6904 -0.1965 -0.1100
 5838SOL    HW118955   1.292   2.972   7.373  0.8631 -0.2937  0.5898
 5838SOL    HW218956   1.226   2.836   7.382  0.7982 -0.2421  0.8997
 5839SOL     OW18957   7.845   0.585   7.309  0.5750  0.1758  0.3067
 5839SOL    HW118958   7.802   0.655   7.358  1.1010 -0.6830  2.0675
 5839SOL    HW218959   7.802   0.505   7.338  0.3824 -0.3074 -1.2473
 5840SOL     OW18960   0.581   3.498   5.102 -0.2832 -0.3950 -0.1630
 5840SOL    HW118961   0.553   3.468   5.016 -2.8402 -1.5748  0.9913
 5840SOL    HW218962   0.562   3.424   5.161 -0.4611  1.0777  1.7165
 5841SOL     OW18963   1.688   3.325   0.827  0.1294  0.0386 -0.1084
 5841SOL    HW118964   1.761   3.304   0.767 -0.0159 -0.9004  0.0271
 5841SOL    HW218965   1.691   3.420   0.836  0.3952  0.1599 -1.3121
 5842SOL     OW18966   5.963   2.446   1.715 -0.3547 -0.1554  0.5781
 5842SOL    HW118967   5.886   2.504   1.712 -0.2052  0.1124  1.4121
 5842SOL    HW218968   6.002   2.453   1.628 -0.1505  1.2819  0.7501
 5843SOL     OW18969   6.067   7.226   6.339 -0.4593  0.1399  0.1963
 5843SOL    HW118970   6.127   7.186   6.401  0.1188 -0.2874 -0.6151
 5843SOL    HW218971   6.109   7.309   6.314 -1.0744  0.6986  0.9630
 5844SOL     OW18972   2.966   3.566   3.596 -1.3230  0.4180 -0.1243
 5844SOL    HW118973   3.027   3.522   3.537 -2.4595  2.0583 -2.6922
 5844SOL    HW218974   3.015   3.642   3.629 -0.7592 -0.3856  0.9826
 5845SOL     OW18975   3.505   5.603   6.955  0.4436 -0.2649  0.2147
 5845SOL    HW118976   3.505   5.590   6.860 -0.2792  6.3869 -1.1774
 5845SOL    HW218977   3.415   5.588   6.982  0.4799 -1.4025 -0.2488
 5846SOL     OW18978   6.796   7.339   4.634  0.2588  0.3581 -0.0335
 5846SOL    HW118979   6.780   7.370   4.545  1.3672  1.5792  0.1772
 5846SOL    HW218980   6.714   7.295   4.659 -0.4607  0.9863 -1.2372
 5847SOL     OW18981   5.249   4.736   5.584  0.2919 -0.3260  0.1366
 5847SOL    HW118982   5.325   4.689   5.619  0.8948 -0.1478 -0.8947
 5847SOL    HW218983   5.174   4.701   5.634  1.1960  0.6438  2.2944
 5848SOL     OW18984   5.978   6.838   5.132  0.0052  0.1149  0.7221
 5848SOL    HW118985   5.903   6.788   5.099 -0.0630  0.4560  0.3578
 5848SOL    HW218986   5.985   6.813   5.225 -2.6119  2.5536  1.6859
 5849SOL     OW18987   0.948   1.570   2.989 -0.1974  0.5264  0.0419
 5849SOL    HW118988   0.875   1.630   3.002  0.1906  0.3626  4.2549
 5849SOL    HW218989   0.925   1.492   3.038  0.6419 -1.7173 -2.8678
 5850SOL     OW18990   4.684   3.273  11.313 -0.2425 -0.0382  0.3337
 5850SOL    HW118991   4.655   3.328  11.386 -1.1139  0.2309 -0.2041
 5850SOL    HW218992   4.651   3.318  11.235  2.1161  0.6171 -0.3752
 5851SOL     OW18993   2.269   6.230   0.107  0.0250 -0.6918 -0.1580
 5851SOL    HW118994   2.175   6.248   0.115 -0.4053 -2.7175 -0.2081
 5851SOL    HW218995   2.277   6.185   0.023  0.6135 -2.9069  1.0142
 5852SOL     OW18996   4.971   0.333   2.875 -0.2004  0.0851 -0.3995
 5852SOL    HW118997   4.894   0.391   2.874 -1.0614 -1.0189 -1.1709
 5852SOL    HW218998   5.030   0.373   2.938 -1.1367  1.3272 -0.2670
 5853SOL     OW18999   5.839   6.842   6.227  0.5323  0.1145  0.3958
 5853SOL    HW119000   5.869   6.929   6.201  2.4554 -0.2396  1.2688
 5853SOL    HW219001   5.873   6.830   6.316  0.4504 -1.5811  0.2315
 5854SOL     OW19002   1.108   0.471   5.076  0.1113  0.0584  0.0825
 5854SOL    HW119003   1.173   0.482   5.145 -0.0823 -1.4896  0.5517
 5854SOL    HW219004   1.064   0.389   5.097 -1.2596  0.5163 -0.8337
 5855SOL     OW19005   0.717   3.162   8.977 -0.5722  0.3709 -0.0880
 5855SOL    HW119006   0.694   3.234   9.037  0.1393  0.2324  0.3625
 5855SOL    HW219007   0.636   3.111   8.968 -0.1234 -1.0192  2.7215
 5856SOL     OW19008   5.911   0.423   8.814 -0.1702 -0.3303  0.0060
 5856SOL    HW119009   5.897   0.503   8.763  0.6819  0.1878  0.5585
 5856SOL    HW219010   5.838   0.366   8.790  0.5068 -0.3418 -2.2389
 5857SOL     OW19011   3.982   5.249   2.610 -0.0877 -0.1876 -0.2731
 5857SOL    HW119012   4.009   5.326   2.560  1.0460 -0.5722 -0.2768
 5857SOL    HW219013   3.912   5.281   2.667 -0.9117  0.4269 -1.5547
 5858SOL     OW19014   5.111   6.211   2.523 -0.0635 -0.2275  0.2473
 5858SOL    HW119015   5.143   6.196   2.612  0.2678 -0.3887  0.0990
 5858SOL    HW219016   5.185   6.250   2.477  0.4231 -1.9404 -0.5017
 5859SOL     OW19017   5.287   6.674   0.641 -0.1355 -0.2838  0.0216
 5859SOL    HW119018   5.299   6.719   0.725 -2.9888  0.4802  0.1218
 5859SOL    HW219019   5.206   6.625   0.652 -0.1548 -0.7967 -2.0468
 5860SOL     OW19020   2.756   6.006   3.141  0.5055  0.0792  0.3339
 5860SOL    HW119021   2.724   5.916   3.129  1.3943 -0.1763 -0.2331
 5860SOL    HW219022   2.749   6.045   3.054 -0.7219  0.8626  0.7654
 5861SOL     OW19023   1.501   3.020   9.614  0.3236 -0.3725  0.1407
 5861SOL    HW119024   1.477   3.036   9.706 -0.5080 -0.6599 -0.0119
 5861SOL    HW219025   1.457   2.938   9.592 -1.2149  0.7292 -1.0990
 5862SOL     OW19026   7.250   1.074   8.711  0.4640  0.1388 -0.1887
 5862SOL    HW119027   7.245   1.098   8.803  0.9203  0.8664 -0.3445
 5862SOL    HW219028   7.335   1.029   8.702  0.0681 -0.6461 -0.1039
 5863SOL     OW19029   3.202   6.094   4.231  0.4674 -0.7424  0.1339
 5863SOL    HW119030   3.249   6.173   4.204  0.0207 -0.1828  0.9339
 5863SOL    HW219031   3.258   6.022   4.204  0.3122 -0.2183 -1.7555
 5864SOL     OW19032   1.208   1.328   1.129  0.3376  0.0749  0.5572
 5864SOL    HW119033   1.140   1.353   1.191  0.0302  0.3527  0.1187
 5864SOL    HW219034   1.244   1.412   1.098  0.2878 -0.0535  0.1478
 5865SOL     OW19035   5.389   0.408   5.180  0.3840  0.2277  0.4165
 5865SOL    HW119036   5.431   0.491   5.158 -0.3743  0.4888 -0.0698
 5865SOL    HW219037   5.420   0.347   5.113  0.4814  0.2589  0.4330
 5866SOL     OW19038   3.315   2.879   7.456  0.1291  0.8798  0.2590
 5866SOL    HW119039   3.230   2.921   7.471 -0.2751  0.4167 -0.6986
 5866SOL    HW219040   3.369   2.946   7.414 -0.2440  0.7098 -0.4950
 5867SOL     OW19041   6.327   3.672   5.236  0.8641  0.2000  0.2883
 5867SOL    HW119042   6.334   3.712   5.149 -0.4686 -0.5171 -0.1760
 5867SOL    HW219043   6.348   3.580   5.221 -1.2780 -0.3425  0.3114
 5868SOL     OW19044   7.609   1.858   7.863 -0.3119  0.0320 -0.3091
 5868SOL    HW119045   7.676   1.902   7.810 -1.0332  0.5797 -0.7767
 5868SOL    HW219046   7.645   1.859   7.952  0.5121 -0.0973 -0.6349
 5869SOL     OW19047   3.132   3.390   5.340  0.3627 -0.0676 -0.8531
 5869SOL    HW119048   3.048   3.363   5.302  1.0034 -0.0146 -2.3749
 5869SOL    HW219049   3.125   3.366   5.433 -1.0734 -0.6710 -1.0882
 5870SOL     OW19050   7.658   1.899   1.421  0.4613  0.2238  0.3994
 5870SOL    HW119051   7.635   1.963   1.352  0.0833  0.5057  0.7822
 5870SOL    HW219052   7.576   1.854   1.439  0.6345 -0.0744  0.4413
 5871SOL     OW19053   5.820   4.221   5.477  0.3236  0.4491 -0.3926
 5871SOL    HW119054   5.756   4.168   5.429  0.6931  0.0600 -0.4525
 5871SOL    HW219055   5.870   4.265   5.409  0.9204 -0.1884 -0.3711
 5872SOL     OW19056   2.416   7.970  11.383  0.3322 -0.8626  0.4467
 5872SOL    HW119057   2.466   7.991  11.305 -1.0939 -0.7470 -0.4705
 5872SOL    HW219058   2.470   8.002  11.456  0.3492  1.7918 -0.6358
 5873SOL     OW19059   1.657   5.279   5.653 -0.0084 -0.3606  0.3962
 5873SOL    HW119060   1.631   5.255   5.564 -0.9579 -0.0252  0.5649
 5873SOL    HW219061   1.689   5.369   5.646 -1.1987  0.1028  0.5586
 5874SOL     OW19062   4.165   5.006   6.439 -0.2711  0.5176  0.1430
 5874SOL    HW119063   4.104   4.996   6.366 -0.9649 -0.5983  0.8424
 5874SOL    HW219064   4.229   4.935   6.426 -0.1632  0.5701  0.3908
 5875SOL     OW19065   1.403   7.675  10.754  0.4983 -0.0500  0.2052
 5875SOL    HW119066   1.346   7.652  10.681 -0.8203  1.0552  0.8482
 5875SOL    HW219067   1.475   7.611  10.749 -0.9545 -1.7181 -0.4042
 5876SOL     OW19068   0.162   3.108   1.737 -0.2161  0.1441  0.0362
 5876SOL    HW119069   0.251   3.139   1.748  0.1017 -0.9873  0.8088
 5876SOL    HW219070   0.170   3.029   1.684 -0.3613 -1.7957  2.7290
 5877SOL     OW19071   0.396   4.278   7.309 -0.1992 -0.2901  0.3871
 5877SOL    HW119072   0.490   4.279   7.326 -0.2027  3.1500  0.8848
 5877SOL    HW219073   0.389   4.248   7.218  1.3411 -0.8736  0.4317
 5878SOL     OW19074   4.633   6.440   6.615  0.0602 -0.4281  0.0474
 5878SOL    HW119075   4.605   6.486   6.536  1.8079 -1.1299 -1.0296
 5878SOL    HW219076   4.665   6.509   6.673 -0.6991  0.0358 -0.0771
 5879SOL     OW19077   6.051   5.396   6.060  0.1658 -0.0789 -0.4500
 5879SOL    HW119078   6.072   5.303   6.053 -0.4058 -0.1478 -1.3814
 5879SOL    HW219079   6.045   5.426   5.969  1.5253  1.1481 -0.1791
 5880SOL     OW19080   0.637   1.775   0.555 -0.4928 -0.5703 -0.4761
 5880SOL    HW119081   0.550   1.814   0.567  0.1703  0.7060  0.4644
 5880SOL    HW219082   0.678   1.829   0.487 -0.5768 -1.4525 -1.2492
 5881SOL     OW19083   1.251   6.487   9.171  0.2044 -0.2997 -0.3424
 5881SOL    HW119084   1.294   6.518   9.091 -2.1426  1.0409 -1.2143
 5881SOL    HW219085   1.172   6.541   9.177  0.4788 -0.1036  3.1442
 5882SOL     OW19086   4.857   3.610   4.363 -0.2391  0.2432 -0.0957
 5882SOL    HW119087   4.925   3.658   4.409 -0.6546 -0.9306  1.8714
 5882SOL    HW219088   4.895   3.589   4.278  1.0053  1.5015  0.1192
 5883SOL     OW19089   2.524   0.122  11.169 -0.4221  0.1576 -0.6051
 5883SOL    HW119090   2.535   0.169  11.252 -0.6048 -0.1072 -0.4305
 5883SOL    HW219091   2.530   0.190  11.102 -1.7411  0.5931 -0.3056
 5884SOL     OW19092   7.227   0.820   6.357 -0.4007 -0.1041  0.3626
 5884SOL    HW119093   7.161   0.753   6.371  0.6572 -1.6568 -1.6043
 5884SOL    HW219094   7.178   0.896   6.326 -1.4867 -0.3820  1.3548
 5885SOL     OW19095   3.452   3.461   0.869 -0.5027 -0.0015  0.4291
 5885SOL    HW119096   3.524   3.515   0.902  0.2558  0.2936 -1.5661
 5885SOL    HW219097   3.480   3.371   0.885 -0.1202  0.1291  0.4964
 5886SOL     OW19098   1.024   4.474   3.153 -0.2022 -0.3169  0.9499
 5886SOL    HW119099   1.117   4.488   3.170 -0.2907 -2.1850  3.6610
 5886SOL    HW219100   0.982   4.557   3.176  0.6713  0.1663  0.8125
 5887SOL     OW19101   1.000   0.628   9.658 -0.3137  0.2867  0.1811
 5887SOL    HW119102   0.926   0.674   9.617 -0.0193  1.6813  1.1572
 5887SOL    HW219103   1.004   0.664   9.746  1.5266  0.2198  0.1518
 5888SOL     OW19104   7.367   6.550  10.749 -0.0156  0.3944  0.0467
 5888SOL    HW119105   7.384   6.636  10.788  2.3952 -0.3394  0.8090
 5888SOL    HW219106   7.413   6.489  10.807  0.8186 -1.0927 -2.0785
 5889SOL     OW19107   3.370   4.987   5.535 -0.2890 -0.5171 -0.1495
 5889SOL    HW119108   3.307   5.054   5.508 -1.9272 -1.0606  1.9871
 5889SOL    HW219109   3.454   5.033   5.538 -1.0362  0.9421 -0.5666
 5890SOL     OW19110   5.636   3.509   1.049 -0.3742  0.1573  0.2082
 5890SOL    HW119111   5.648   3.453   1.126  1.7488  0.6657  0.3334
 5890SOL    HW219112   5.726   3.526   1.019 -1.0994  1.2662 -1.4353
 5891SOL     OW19113   3.196   0.640   5.236 -1.0529  0.8287 -0.5892
 5891SOL    HW119114   3.204   0.610   5.146 -1.3240  0.2812 -0.4307
 5891SOL    HW219115   3.251   0.719   5.240  0.8821 -0.4526 -0.6400
 5892SOL     OW19116   2.526   0.405  11.634 -0.7931  0.3561  0.9767
 5892SOL    HW119117   2.508   0.478  11.692  1.5766  1.0475  0.9138
 5892SOL    HW219118   2.606   0.366  11.667 -2.9982 -3.6375  2.3142
 5893SOL     OW19119   7.653   5.168  12.143  0.5229  0.1599  0.3891
 5893SOL    HW119120   7.595   5.241  12.161 -0.7809 -0.6536 -0.4059
 5893SOL    HW219121   7.669   5.128  12.229  0.7332  0.9738  0.7355
 5894SOL     OW19122   0.682   1.254   3.436 -0.1049  0.3528  0.2472
 5894SOL    HW119123   0.746   1.326   3.434  1.1125 -0.6967  0.0825
 5894SOL    HW219124   0.694   1.214   3.522 -0.9455  0.4888  0.4322
 5895SOL     OW19125   7.246   0.769   5.661  0.1642 -0.3442  0.6411
 5895SOL    HW119126   7.286   0.683   5.669 -0.1869 -0.8243 -1.7559
 5895SOL    HW219127   7.215   0.772   5.570  1.3627  2.8004  0.1992
 5896SOL     OW19128   7.574   5.392  10.477  0.1609  0.1029 -0.0286
 5896SOL    HW119129   7.549   5.302  10.497 -0.3757  0.4983  1.1440
 5896SOL    HW219130   7.668   5.395  10.495 -0.3377  0.5195  2.9294
 5897SOL     OW19131   1.242   7.777   1.112 -0.4309 -0.3203 -0.4255
 5897SOL    HW119132   1.293   7.765   1.032  0.6093  1.1152 -0.0224
 5897SOL    HW219133   1.293   7.839   1.164  0.4995 -3.3891  2.7152
 5898SOL     OW19134   1.322   6.434   3.038 -0.5032 -0.7762 -0.7314
 5898SOL    HW119135   1.323   6.408   3.130 -0.5827  0.8965 -0.2150
 5898SOL    HW219136   1.243   6.486   3.028 -1.8857 -3.0388 -2.4327
 5899SOL     OW19137   0.700   3.483   3.959 -0.4330 -0.3520  0.3377
 5899SOL    HW119138   0.687   3.388   3.958  0.2598 -0.4549  0.7436
 5899SOL    HW219139   0.793   3.495   3.975 -0.2009  0.3873 -1.3198
 5900SOL     OW19140   3.272   2.088   7.325 -0.4696 -0.2584 -0.0021
 5900SOL    HW119141   3.317   2.047   7.399 -1.5186 -0.5581  0.4925
 5900SOL    HW219142   3.257   2.178   7.352 -2.6375 -0.8715  1.0296
 5901SOL     OW19143   7.304   2.114   9.578 -0.2502  0.0779  0.8169
 5901SOL    HW119144   7.270   2.042   9.525  0.2496 -0.5256  1.3100
 5901SOL    HW219145   7.227   2.167   9.599 -0.5209  0.1026 -0.1534
 5902SOL     OW19146   0.573   0.623   7.396  0.2541  0.0305 -0.6625
 5902SOL    HW119147   0.561   0.636   7.302 -0.2722  0.1304 -0.5827
 5902SOL    HW219148   0.485   0.614   7.430  0.0996  3.6722  0.3536
 5903SOL     OW19149   7.952   3.245   3.927  0.0226 -0.1211  0.3606
 5903SOL    HW119150   7.856   3.245   3.918 -0.0064  0.8950  0.5421
 5903SOL    HW219151   7.978   3.156   3.903 -0.9299 -0.2943 -0.1020
 5904SOL     OW19152   5.481   0.390   2.509 -0.2836 -0.2677 -0.0058
 5904SOL    HW119153   5.541   0.463   2.496  0.9541 -1.5809 -2.5695
 5904SOL    HW219154   5.396   0.424   2.484 -0.1356  0.8559  0.9372
 5905SOL     OW19155   7.742   5.045   6.372  0.5246  0.3113  0.2852
 5905SOL    HW119156   7.705   5.133   6.366  2.9846  1.4170  0.1163
 5905SOL    HW219157   7.702   5.008   6.451 -3.3342  0.0834 -1.5364
 5906SOL     OW19158   6.174   7.799   1.502  0.0025  0.3927  0.2662
 5906SOL    HW119159   6.256   7.794   1.453 -0.1400 -0.5422  0.1008
 5906SOL    HW219160   6.135   7.713   1.491 -0.8922  0.7551  0.5442
 5907SOL     OW19161   1.815   6.884   1.791 -0.1005  0.1418  0.0308
 5907SOL    HW119162   1.893   6.837   1.762 -1.2526 -2.0539  0.2147
 5907SOL    HW219163   1.815   6.966   1.741  0.9666 -0.9692 -1.9012
 5908SOL     OW19164   1.461   2.370   1.966  0.0237 -0.4017 -0.4745
 5908SOL    HW119165   1.483   2.388   1.874  1.4869 -0.3853 -0.1439
 5908SOL    HW219166   1.431   2.279   1.965 -0.6711 -0.1807 -1.0687
 5909SOL     OW19167   1.234   4.706   4.157 -0.3346 -0.6752 -0.0144
 5909SOL    HW119168   1.175   4.643   4.117 -0.8436  0.4860 -1.1378
 5909SOL    HW219169   1.221   4.787   4.108  1.9352 -0.2818 -0.0784
 5910SOL     OW19170   3.694   4.797   2.642  0.1832  0.0923  0.3611
 5910SOL    HW119171   3.655   4.777   2.727  0.3859  1.5715  0.8323
 5910SOL    HW219172   3.706   4.892   2.643  0.8429  0.0483 -1.0456
 5911SOL     OW19173   0.053   0.779  11.418  0.0893  0.3692  0.3875
 5911SOL    HW119174   0.136   0.738  11.442 -1.0109 -1.5016  1.3058
 5911SOL    HW219175   0.006   0.789  11.501 -1.6891 -1.2637 -0.3372
 5912SOL     OW19176   4.621   2.432   2.482 -0.5801  0.2275  0.4807
 5912SOL    HW119177   4.591   2.522   2.494 -0.1379  0.4715 -0.1793
 5912SOL    HW219178   4.545   2.386   2.448 -0.9996  0.1913  1.4308
 5913SOL     OW19179   2.169   1.963  10.146 -0.0187  0.1362  0.1799
 5913SOL    HW119180   2.169   1.891  10.082  0.9774  1.2770 -1.1504
 5913SOL    HW219181   2.202   1.922  10.227 -2.2990 -1.5830  0.3353
 5914SOL     OW19182   7.202   4.235  10.841 -0.3951  0.0676  0.9301
 5914SOL    HW119183   7.224   4.262  10.752 -1.1100  0.0582  0.7514
 5914SOL    HW219184   7.204   4.139  10.838 -1.5741  0.0452  0.6289
 5915SOL     OW19185   5.675   5.888   5.455  0.0215  0.2150  0.3033
 5915SOL    HW119186   5.742   5.820   5.449  0.9032  1.1566 -1.1722
 5915SOL    HW219187   5.592   5.839   5.454  0.6493 -0.9038  0.7971
 5916SOL     OW19188   6.188   3.337   1.451  0.0605 -0.2103 -0.2687
 5916SOL    HW119189   6.102   3.365   1.484 -0.7543 -0.0136 -2.4100
 5916SOL    HW219190   6.210   3.402   1.384  2.4728  0.4271  1.0234
 5917SOL     OW19191   1.667   5.951   8.580 -0.9129 -0.3046 -0.3987
 5917SOL    HW119192   1.585   5.968   8.534 -2.1228 -1.0363  1.3976
 5917SOL    HW219193   1.657   5.864   8.618  0.7243 -0.4340 -0.1544
 5918SOL     OW19194   3.535   2.136   5.617  0.0534 -0.2886  0.9999
 5918SOL    HW119195   3.496   2.131   5.529  1.2053  0.4475  0.4148
 5918SOL    HW219196   3.462   2.126   5.677 -0.8962  0.1234 -0.0577
 5919SOL     OW19197   1.487   3.502   9.003  0.2931  0.4172  0.3099
 5919SOL    HW119198   1.412   3.561   8.997 -0.8145 -0.9260  0.5683
 5919SOL    HW219199   1.557   3.556   9.040 -0.3649  1.8368 -0.4293
 5920SOL     OW19200   3.029   5.973  12.452 -0.3891 -0.5257 -0.1441
 5920SOL    HW119201   3.012   5.995  12.361  1.2206  0.6037 -0.2155
 5920SOL    HW219202   3.112   5.924  12.450  0.6159  1.0368  0.8192
 5921SOL     OW19203   1.214   2.893   3.155  0.0627  0.1108 -0.1234
 5921SOL    HW119204   1.164   2.928   3.082 -0.8705 -0.2288  0.3287
 5921SOL    HW219205   1.305   2.916   3.136 -0.2428  0.5892 -1.0545
 5922SOL     OW19206   7.625   7.195   7.057 -0.2113 -0.6591 -0.3163
 5922SOL    HW119207   7.695   7.149   7.011 -0.5924 -0.9302 -0.6315
 5922SOL    HW219208   7.547   7.142   7.042 -0.8690  0.5922 -1.4973
 5923SOL     OW19209   2.470   3.094   7.945  0.4802  0.2709 -0.4671
 5923SOL    HW119210   2.498   3.155   8.013  1.6030 -1.9595  1.1944
 5923SOL    HW219211   2.547   3.040   7.929 -0.2709 -0.3272 -2.3867
 5924SOL     OW19212   5.416   7.191   8.574  0.8684  0.3715  0.3576
 5924SOL    HW119213   5.354   7.123   8.549  0.9134  0.8527 -1.1680
 5924SOL    HW219214   5.383   7.270   8.532  1.1940  1.1575  1.5352
 5925SOL     OW19215   1.628   5.559  11.922  0.3823 -0.2372 -0.3698
 5925SOL    HW119216   1.563   5.630  11.921  0.1079 -0.4376  1.1573
 5925SOL    HW219217   1.608   5.507  11.844  0.0246  0.8632 -1.0297
 5926SOL     OW19218   6.371   1.216  12.014  0.5125 -0.7415  0.1885
 5926SOL    HW119219   6.466   1.225  12.020  0.4942  0.3290 -0.6591
 5926SOL    HW219220   6.354   1.207  11.920 -0.2868  0.1338  0.2316
 5927SOL     OW19221   7.857   2.730   5.310 -0.4298 -0.2948 -0.0736
 5927SOL    HW119222   7.950   2.728   5.332  0.1258  1.8565 -1.9102
 5927SOL    HW219223   7.849   2.670   5.236 -0.0777  0.9837 -1.1808
 5928SOL     OW19224   2.210   1.429   0.984  0.1498  0.0691  0.4398
 5928SOL    HW119225   2.148   1.443   1.056 -0.5552  0.3946 -0.2115
 5928SOL    HW219226   2.253   1.514   0.973  1.3749 -0.3852  1.4663
 5929SOL     OW19227   6.071   7.188   4.022  0.2240 -0.7635  0.3284
 5929SOL    HW119228   6.086   7.238   3.942  0.8254 -2.2756 -0.5390
 5929SOL    HW219229   6.111   7.241   4.091 -1.4990  1.2420 -0.1042
 5930SOL     OW19230   7.879   2.104   5.711  0.3062 -0.0430 -0.2399
 5930SOL    HW119231   7.917   2.138   5.792 -0.1065  0.5768 -0.3018
 5930SOL    HW219232   7.897   2.010   5.714 -2.8260 -0.7294  2.3670
 5931SOL     OW19233   7.912   0.658   6.087  0.8950  0.0988  0.5458
 5931SOL    HW119234   7.896   0.564   6.074  0.8878  0.1710  0.0020
 5931SOL    HW219235   7.955   0.686   6.006  2.8122  0.1432  1.5195
 5932SOL     OW19236   0.473   4.910   2.089  0.1778 -0.3771 -0.3677
 5932SOL    HW119237   0.503   4.944   2.005 -1.0572 -0.5421 -0.9110
 5932SOL    HW219238   0.525   4.956   2.155 -0.3072  1.3319 -1.1387
 5933SOL     OW19239   1.554   1.230   1.612  0.5809 -0.3750  0.3797
 5933SOL    HW119240   1.612   1.290   1.565 -0.9190  1.2208  0.4597
 5933SOL    HW219241   1.496   1.195   1.544 -1.3963  1.7084  0.8714
 5934SOL     OW19242   4.231   2.269   3.913 -0.1927  0.2762  0.1565
 5934SOL    HW119243   4.231   2.352   3.961 -0.2981  0.5585 -0.3271
 5934SOL    HW219244   4.321   2.260   3.880 -0.1555  0.1471  0.2902
 5935SOL     OW19245   3.376   2.877   0.736  0.0133  0.2776 -0.1380
 5935SOL    HW119246   3.410   2.900   0.649  0.4588 -1.0834 -0.3542
 5935SOL    HW219247   3.297   2.827   0.718 -0.8114  1.3949  0.3046
 5936SOL     OW19248   2.278   4.150  10.401  0.3481  0.0396 -0.1449
 5936SOL    HW119249   2.356   4.095  10.397 -0.0866 -0.7425  1.3389
 5936SOL    HW219250   2.282   4.192  10.488 -1.3567 -0.8024  0.3792
 5937SOL     OW19251   6.086   7.954   0.571 -0.1492  0.2075  0.0879
 5937SOL    HW119252   5.992   7.955   0.556  0.0847 -1.3808 -1.8121
 5937SOL    HW219253   6.100   7.883   0.634 -0.2035  0.3213  0.2282
 5938SOL     OW19254   0.684   0.914   0.989 -0.6986 -0.1875 -0.3872
 5938SOL    HW119255   0.776   0.914   0.960 -0.1657 -0.5935  1.1718
 5938SOL    HW219256   0.633   0.910   0.909  0.6632 -0.0922 -1.2850
 5939SOL     OW19257   5.562   6.326   9.889  0.1035 -0.5980 -0.2075
 5939SOL    HW119258   5.567   6.289   9.977 -2.2485 -1.4962 -0.3695
 5939SOL    HW219259   5.638   6.383   9.882  1.9673 -2.7271  1.3379
 5940SOL     OW19260   0.222   2.804   9.153 -0.1101  0.4265 -0.4448
 5940SOL    HW119261   0.310   2.777   9.178 -0.8338 -0.7725  1.0206
 5940SOL    HW219262   0.187   2.846   9.231 -0.8201  0.9498 -1.0345
 5941SOL     OW19263   3.394   7.036   5.051  0.0162  0.2820  0.0174
 5941SOL    HW119264   3.337   6.976   5.099 -1.0182 -0.1240 -1.6465
 5941SOL    HW219265   3.467   7.053   5.111 -0.8930 -0.6979  1.4598
 5942SOL     OW19266   5.455   5.679   2.304 -0.2277 -0.3934  0.1056
 5942SOL    HW119267   5.453   5.585   2.284  0.1861  0.1812 -3.2322
 5942SOL    HW219268   5.546   5.705   2.292 -0.7150  0.7940 -1.3355
 5943SOL     OW19269   7.610   6.104   0.615  0.2202 -0.5805  0.3042
 5943SOL    HW119270   7.634   6.026   0.565 -0.0771 -1.4293  1.4417
 5943SOL    HW219271   7.586   6.169   0.549 -0.5558 -1.7937 -0.6502
 5944SOL     OW19272   6.333   3.467   8.713 -0.6610 -0.7091 -0.8181
 5944SOL    HW119273   6.339   3.480   8.808  1.2373  1.7475 -1.1765
 5944SOL    HW219274   6.308   3.553   8.679 -0.8712 -1.4328 -2.6203
 5945SOL     OW19275   2.732   3.204   8.585  0.2193 -0.6747 -0.1120
 5945SOL    HW119276   2.783   3.213   8.666  0.0810 -0.2537 -0.0696
 5945SOL    HW219277   2.656   3.151   8.610 -0.1237 -0.0612  0.1783
 5946SOL     OW19278   6.435   3.690   4.149  0.0773 -0.0625 -0.4194
 5946SOL    HW119279   6.531   3.685   4.142  0.4273  1.2947  2.0793
 5946SOL    HW219280   6.411   3.768   4.099  0.0255 -1.2208 -2.3039
 5947SOL     OW19281   1.325   3.200   6.745 -0.6821 -0.1666  0.3706
 5947SOL    HW119282   1.383   3.126   6.765 -0.5408  0.3767  2.1599
 5947SOL    HW219283   1.272   3.170   6.672  0.5911 -1.3722 -0.1043
 5948SOL     OW19284   7.724   4.518  10.608 -0.2292 -0.3220  0.3273
 5948SOL    HW119285   7.681   4.578  10.669 -1.2001  1.7536 -2.1928
 5948SOL    HW219286   7.713   4.560  10.522  1.6467 -2.7235 -1.2084
 5949SOL     OW19287   0.921   4.019  12.376 -0.2273 -0.0977 -0.1110
 5949SOL    HW119288   0.915   3.981  12.464  0.3517  0.6179  0.2466
 5949SOL    HW219289   0.989   4.086  12.383 -0.2879  0.0820 -1.0690
 5950SOL     OW19290   2.226   7.762   4.940  0.0467 -0.0924  0.3280
 5950SOL    HW119291   2.215   7.669   4.959  2.4027 -0.2198  1.4853
 5950SOL    HW219292   2.321   7.774   4.934 -0.0408  2.5668  2.2036
 5951SOL     OW19293   2.149   5.742  10.306  0.3570  0.3914 -0.0128
 5951SOL    HW119294   2.154   5.666  10.365  0.0987 -0.1866 -0.7267
 5951SOL    HW219295   2.235   5.745  10.264  0.3462  0.4528 -0.0297
 5952SOL     OW19296   7.553   5.680   1.157  0.0726 -0.3642 -0.3322
 5952SOL    HW119297   7.624   5.745   1.154  0.6155 -0.9485 -2.5201
 5952SOL    HW219298   7.473   5.732   1.157  0.5001  0.3612 -1.8043
 5953SOL     OW19299   5.059   2.971   3.161 -0.4013  0.1342  0.1233
 5953SOL    HW119300   5.021   3.025   3.230 -0.1784  1.1744 -0.5438
 5953SOL    HW219301   5.136   3.020   3.132  0.4651 -1.0974  0.2659
 5954SOL     OW19302   7.728   3.710  10.243 -0.0154 -0.4169 -0.0080
 5954SOL    HW119303   7.807   3.678  10.199  1.1620  0.9916  0.9839
 5954SOL    HW219304   7.750   3.706  10.336 -1.2691 -0.3380  0.3051
 5955SOL     OW19305   4.588   6.065   1.643 -0.1296 -0.3665  0.2455
 5955SOL    HW119306   4.575   6.115   1.562  1.8127 -1.5744 -0.8861
 5955SOL    HW219307   4.584   5.974   1.615 -0.2919 -0.8149  1.6881
 5956SOL     OW19308   4.415   1.616  11.783 -0.9055  0.5540  0.5128
 5956SOL    HW119309   4.403   1.574  11.698  0.2223  0.0938  0.5570
 5956SOL    HW219310   4.508   1.639  11.786  0.0861 -2.8957  3.0884
 5957SOL     OW19311   0.634   5.242  11.243  0.3524  0.5688 -0.3221
 5957SOL    HW119312   0.643   5.308  11.175 -0.5060  0.6897 -0.3359
 5957SOL    HW219313   0.723   5.220  11.268  0.7172 -0.1376 -2.1256
 5958SOL     OW19314   2.095   0.309   4.484  0.3476  0.0350 -0.1743
 5958SOL    HW119315   2.063   0.399   4.482  2.0518  0.7452  1.1156
 5958SOL    HW219316   2.186   0.316   4.455  0.5568 -1.2335  0.1259
 5959SOL     OW19317   4.154   7.777  11.297  0.0419  0.6678 -0.2272
 5959SOL    HW119318   4.130   7.695  11.254 -0.3296  0.2186  0.8005
 5959SOL    HW219319   4.233   7.806  11.252  1.3961 -1.3282  0.7426
 5960SOL     OW19320   1.460   2.383   9.117  0.2414  0.5918  0.0916
 5960SOL    HW119321   1.480   2.415   9.205  0.1625 -1.0264  0.7393
 5960SOL    HW219322   1.483   2.290   9.120  1.0612  0.7026 -1.8773
 5961SOL     OW19323   3.207   1.877   4.935 -0.5836  0.2462 -0.8389
 5961SOL    HW119324   3.111   1.876   4.932 -0.7052 -2.5461  0.6942
 5961SOL    HW219325   3.228   1.886   5.028  0.5446 -1.1027 -0.9164
 5962SOL     OW19326   7.979   0.909   8.749 -0.1006 -0.0283  0.0187
 5962SOL    HW119327   8.072   0.891   8.733  0.2347  0.6459  1.1094
 5962SOL    HW219328   7.978   0.954   8.833 -1.1010  2.7712 -1.3856
 5963SOL     OW19329   2.022   6.692   9.010  0.1041 -0.6363 -0.4549
 5963SOL    HW119330   1.932   6.710   8.984 -0.3075 -0.4661  1.0265
 5963SOL    HW219331   2.030   6.597   9.001 -0.9486 -0.9578  1.5013
 5964SOL     OW19332   1.976   6.447   4.852 -0.2384 -0.3459 -0.6304
 5964SOL    HW119333   1.922   6.526   4.860  0.1318 -0.2862  2.1083
 5964SOL    HW219334   2.046   6.472   4.791 -2.9244 -0.3145 -3.9669
 5965SOL     OW19335   0.768   0.818   0.494  0.2210  0.1995  0.6822
 5965SOL    HW119336   0.800   0.781   0.577 -0.9754 -0.9779  0.6441
 5965SOL    HW219337   0.749   0.742   0.440 -0.8286  0.9107  0.0191
 5966SOL     OW19338   2.636   1.447   0.631  0.9530  0.1402 -0.0774
 5966SOL    HW119339   2.606   1.404   0.711  0.0620  1.9196  0.6014
 5966SOL    HW219340   2.716   1.493   0.657 -1.3770  4.0702  1.0713
 5967SOL     OW19341   7.527   7.455   5.717  0.5681  0.0242 -0.4731
 5967SOL    HW119342   7.491   7.533   5.760  0.5038  0.0206 -0.5197
 5967SOL    HW219343   7.539   7.482   5.626  0.8875  0.0917 -0.4101
 5968SOL     OW19344   5.710   1.390   0.278  0.0488  0.0919 -0.0012
 5968SOL    HW119345   5.719   1.297   0.297 -0.5695 -0.3009 -1.4878
 5968SOL    HW219346   5.752   1.434   0.351  1.6016 -1.3777  0.0372
 5969SOL     OW19347   4.130   7.856   7.675 -0.1118 -0.1572 -0.3528
 5969SOL    HW119348   4.153   7.794   7.744  1.2364 -0.6774 -1.2281
 5969SOL    HW219349   4.163   7.940   7.706 -1.3586  0.0393  0.5372
 5970SOL     OW19350   5.775   5.034   4.048  0.1673 -0.9854  0.3554
 5970SOL    HW119351   5.843   5.083   4.001  0.2052  0.1831  1.5721
 5970SOL    HW219352   5.811   4.945   4.055  2.4201 -0.0264  2.4602
 5971SOL     OW19353   2.039   3.233   2.357 -0.6998  0.0892 -0.4474
 5971SOL    HW119354   1.973   3.201   2.296 -0.2306  0.4019 -1.1387
 5971SOL    HW219355   1.989   3.273   2.428 -1.2643 -0.7877 -0.3385
 5972SOL     OW19356   5.698   5.568   6.723 -0.7329 -0.2076  0.1755
 5972SOL    HW119357   5.749   5.648   6.731 -0.2623 -0.3179 -1.4240
 5972SOL    HW219358   5.607   5.596   6.734 -0.4605  0.2453  1.4030
 5973SOL     OW19359   5.007   5.903   0.323  0.2363 -0.4214 -0.1122
 5973SOL    HW119360   5.029   5.850   0.247  2.0113 -0.5045  0.4160
 5973SOL    HW219361   5.076   5.883   0.387 -0.7043  0.3203  1.1822
 5974SOL     OW19362   7.757   5.358  11.294  0.4567 -0.2513 -0.4026
 5974SOL    HW119363   7.772   5.428  11.231  2.5695  0.0490  0.3400
 5974SOL    HW219364   7.744   5.403  11.377 -0.7300 -0.6940 -0.3279
 5975SOL     OW19365   3.324   2.797   4.115  0.4477 -0.3610 -0.0980
 5975SOL    HW119366   3.300   2.880   4.074 -0.7479 -1.2268 -1.2797
 5975SOL    HW219367   3.324   2.815   4.209  0.2495  0.9728 -0.3390
 5976SOL     OW19368   6.702   0.809   6.725 -0.2592 -0.3940  0.4475
 5976SOL    HW119369   6.664   0.879   6.778 -0.5807  0.1080 -0.4371
 5976SOL    HW219370   6.662   0.819   6.639 -2.0833 -3.0547  0.8574
 5977SOL     OW19371   6.420   4.032   4.344 -0.8073  0.0773 -0.0853
 5977SOL    HW119372   6.416   4.127   4.361  0.4663  0.3140 -0.9175
 5977SOL    HW219373   6.365   3.993   4.412 -1.2236  1.4034  0.3789
 5978SOL     OW19374   2.525   7.001   2.088  0.4732  0.0415  0.6848
 5978SOL    HW119375   2.613   7.034   2.106  0.4436  0.7087 -0.2976
 5978SOL    HW219376   2.487   6.985   2.175  1.0229  1.1955  1.1646
 5979SOL     OW19377   5.171   4.516   1.307  0.3083 -0.1381  0.2721
 5979SOL    HW119378   5.131   4.503   1.393 -1.6645  1.3821 -0.3400
 5979SOL    HW219379   5.194   4.427   1.278  0.9247 -0.6914  2.2912
 5980SOL     OW19380   2.755   4.606   3.511 -0.3405  0.1805 -0.8201
 5980SOL    HW119381   2.819   4.560   3.457 -0.0335  0.9152 -1.0906
 5980SOL    HW219382   2.674   4.557   3.498  0.1831 -0.8426 -0.3651
 5981SOL     OW19383   3.149   7.922   2.267 -0.1516 -0.1776 -0.2270
 5981SOL    HW119384   3.115   7.984   2.331 -1.1824 -0.5003 -0.4482
 5981SOL    HW219385   3.242   7.943   2.260 -0.1658  0.2954  0.8735
 5982SOL     OW19386   1.400   6.063   5.885  0.1438 -0.0931 -0.2079
 5982SOL    HW119387   1.447   5.987   5.848  0.0641 -0.8615  1.1980
 5982SOL    HW219388   1.354   6.027   5.961 -2.2331  0.7781 -1.1631
 5983SOL     OW19389   5.116   7.684   5.901  0.7995  0.7117  1.0968
 5983SOL    HW119390   5.069   7.727   5.829  0.0808 -1.0279  0.4911
 5983SOL    HW219391   5.207   7.680   5.870  0.7997  1.3634  0.9785
 5984SOL     OW19392   4.709   6.915   6.755  0.7110  0.0992  0.5874
 5984SOL    HW119393   4.794   6.952   6.781 -0.1145  2.7587 -0.1870
 5984SOL    HW219394   4.651   6.932   6.829  0.5251 -0.5754  0.6076
 5985SOL     OW19395   6.935   0.919   8.840 -0.1081 -0.1223 -0.0548
 5985SOL    HW119396   6.885   0.849   8.881 -0.4692  0.4656  0.5346
 5985SOL    HW219397   7.016   0.877   8.812 -1.5586 -1.4683 -2.5433
 5986SOL     OW19398   2.814   2.065   9.416 -0.0035  0.1364 -0.1806
 5986SOL    HW119399   2.883   2.090   9.354  0.6956 -0.7555  0.2189
 5986SOL    HW219400   2.808   2.140   9.476  1.2961 -0.1458  0.3426
 5987SOL     OW19401   0.860   3.121   7.568 -0.1250 -0.4506  0.2433
 5987SOL    HW119402   0.910   3.064   7.625  0.4535 -1.4866 -1.2311
 5987SOL    HW219403   0.775   3.078   7.559 -1.1710  0.9991  2.2592
 5988SOL     OW19404   5.427   7.977   4.679  0.3590  0.3921 -0.1406
 5988SOL    HW119405   5.400   7.885   4.678  0.4011  0.3483 -2.4890
 5988SOL    HW219406   5.384   8.014   4.756 -0.8610 -1.2498  0.0102
 5989SOL     OW19407   6.315   6.440   1.208  0.6258  0.1598 -0.2122
 5989SOL    HW119408   6.311   6.532   1.185 -1.2117 -0.3012 -2.0114
 5989SOL    HW219409   6.379   6.436   1.279  1.5287  2.6409 -0.7858
 5990SOL     OW19410   6.575   1.920   1.109  0.3251  0.4267 -0.0709
 5990SOL    HW119411   6.520   1.965   1.172  0.4001  2.2447 -1.2333
 5990SOL    HW219412   6.555   1.827   1.122 -1.5778  0.9128  0.8377
 5991SOL     OW19413   7.657   6.853   6.935  0.3894 -0.1165  0.3440
 5991SOL    HW119414   7.679   6.777   6.881  0.4733 -0.0416  0.2701
 5991SOL    HW219415   7.675   6.928   6.878  1.0239 -0.0145  0.6618
 5992SOL     OW19416   1.552   3.642   0.472 -0.5148 -0.1014  0.2085
 5992SOL    HW119417   1.476   3.657   0.416 -0.1107  1.5586  0.0478
 5992SOL    HW219418   1.575   3.728   0.505 -0.0544 -0.8881  2.0825
 5993SOL     OW19419   6.662   4.421   6.514 -0.3223 -0.1884  0.3609
 5993SOL    HW119420   6.647   4.359   6.586 -0.2931 -0.7700 -0.1222
 5993SOL    HW219421   6.702   4.497   6.556 -0.3894 -0.4774  0.9728
 5994SOL     OW19422   6.806   7.441   1.110 -0.1814  0.2089 -0.3580
 5994SOL    HW119423   6.825   7.534   1.100  0.6309  0.0588 -0.2734
 5994SOL    HW219424   6.890   7.397   1.095  0.0185 -0.3449  1.9865
 5995SOL     OW19425   4.949   4.598   0.480  0.1177  0.2436  0.5934
 5995SOL    HW119426   4.869   4.585   0.530  0.0287 -0.2577  0.3275
 5995SOL    HW219427   4.982   4.509   0.465 -0.5335  0.2876 -1.3456
 5996SOL     OW19428   2.588   7.131   3.845 -0.0242 -0.1832  0.6228
 5996SOL    HW119429   2.641   7.184   3.785 -1.7210 -1.3214 -2.0515
 5996SOL    HW219430   2.498   7.161   3.830 -0.6456 -1.4852  1.5864
 5997SOL     OW19431   7.962   3.656  10.130 -0.1512  0.0724  0.5743
 5997SOL    HW119432   7.989   3.746  10.111  5.4600 -0.9353  1.9699
 5997SOL    HW219433   7.988   3.606  10.053 -1.8151 -0.6212  0.4259
 5998SOL     OW19434   1.578   0.632   7.852  0.0120 -0.4355 -0.2534
 5998SOL    HW119435   1.553   0.717   7.814 -0.1575  0.3985  1.6482
 5998SOL    HW219436   1.611   0.653   7.939  1.2103 -2.2178 -0.2232
 5999SOL     OW19437   4.374   5.820   8.335 -0.3785 -0.2410 -0.0229
 5999SOL    HW119438   4.384   5.807   8.241 -0.2742  1.4721 -0.2904
 5999SOL    HW219439   4.432   5.755   8.375  1.5060  0.5881 -1.2315
 6000SOL     OW19440   2.996   4.603   6.862  0.1569  0.0574  0.4816
 6000SOL    HW119441   2.924   4.540   6.864  0.1020  0.1255  0.6518
 6000SOL    HW219442   2.984   4.657   6.940  0.1052  0.3957  0.2420
 6001SOL     OW19443   5.562   2.170   9.641 -0.1639 -0.0827 -0.1253
 6001SOL    HW119444   5.620   2.100   9.612 -0.0586 -0.5026  1.0712
 6001SOL    HW219445   5.499   2.127   9.699  0.5780  0.9539  1.5328
 6002SOL     OW19446   3.629   3.140   7.873  0.2044  0.0977  0.3169
 6002SOL    HW119447   3.672   3.068   7.919  0.9234  0.4520  0.2070
 6002SOL    HW219448   3.614   3.206   7.941  0.6945  0.3601  0.1772
 6003SOL     OW19449   3.110   2.320   3.055 -0.1977 -0.4246  0.2691
 6003SOL    HW119450   3.109   2.246   2.995  0.4771 -1.7278  1.7781
 6003SOL    HW219451   3.063   2.389   3.009 -3.2835 -2.5978 -0.1949
 6004SOL     OW19452   7.043   4.050   0.888  0.3787 -0.1083  0.0501
 6004SOL    HW119453   7.082   4.138   0.882 -0.4878  0.3349  0.6632
 6004SOL    HW219454   6.950   4.067   0.905 -0.3802 -1.1054 -2.5434
 6005SOL     OW19455   6.027   1.392   7.444  0.9559 -0.9813 -0.0339
 6005SOL    HW119456   5.982   1.476   7.452  2.1336 -0.4084  1.0649
 6005SOL    HW219457   6.098   1.409   7.382  1.4212 -1.0498  0.4737
 6006SOL     OW19458   0.878   6.123   2.538 -0.2874 -0.0792  0.0177
 6006SOL    HW119459   0.830   6.041   2.524  0.6497 -0.4795 -0.9683
 6006SOL    HW219460   0.970   6.100   2.524  0.0246  1.0539  0.1195
 6007SOL     OW19461   7.490   6.590  10.992 -0.2321 -0.1418 -0.1368
 6007SOL    HW119462   7.575   6.595  10.948  0.1030  0.0911  0.5201
 6007SOL    HW219463   7.494   6.658  11.059 -1.1035  0.1578 -0.3680
 6008SOL     OW19464   7.957   0.692   3.035 -0.2565 -0.4617 -0.2267
 6008SOL    HW119465   8.004   0.634   3.095 -1.3094 -2.4820 -1.2426
 6008SOL    HW219466   8.023   0.719   2.971  0.4726  0.3238  0.8153
 6009SOL     OW19467   6.579   7.820   4.996 -0.3274 -0.6298  0.1624
 6009SOL    HW119468   6.515   7.886   4.969  1.4868  1.4760  0.7361
 6009SOL    HW219469   6.613   7.785   4.914  2.1283  2.7326 -0.5075
 6010SOL     OW19470   5.386   0.288   6.533  0.1502 -0.0318  0.3022
 6010SOL    HW119471   5.377   0.253   6.622  1.6408  1.8923  1.3029
 6010SOL    HW219472   5.297   0.299   6.502 -0.4058 -2.9696  0.5723
 6011SOL     OW19473   7.271   4.001   2.025 -0.2208 -0.1904 -0.2922
 6011SOL    HW119474   7.364   4.005   2.003  0.2774 -0.9138  1.4914
 6011SOL    HW219475   7.258   3.912   2.060 -1.8781 -0.5401 -1.6668
 6012SOL     OW19476   5.619   3.986  10.043 -0.2950 -0.2885 -0.7727
 6012SOL    HW119477   5.708   3.973  10.009 -0.3857  0.9524 -1.5574
 6012SOL    HW219478   5.573   4.029   9.971 -1.0561  0.6377  0.2470
 6013SOL     OW19479   2.910   6.078   7.314  0.3282 -0.1450  0.5401
 6013SOL    HW119480   2.957   6.066   7.231 -0.4601  0.4947 -0.0168
 6013SOL    HW219481   2.849   6.150   7.296 -1.0151 -1.0955  1.1701
 6014SOL     OW19482   6.457   4.031  10.606 -0.3516  0.1777 -0.7416
 6014SOL    HW119483   6.518   4.089  10.559  0.5116 -1.3238 -1.5411
 6014SOL    HW219484   6.373   4.077  10.601  0.6788  2.3588  0.4797
 6015SOL     OW19485   5.248   4.284  11.889  0.1015  0.5649 -0.3798
 6015SOL    HW119486   5.206   4.264  11.806  1.7820 -1.9207 -0.7506
 6015SOL    HW219487   5.254   4.379  11.891 -3.1249  0.8974 -1.4194
 6016SOL     OW19488   2.844   1.935   5.854 -0.4969  0.4299  0.1854
 6016SOL    HW119489   2.828   1.969   5.942 -0.5206  1.3905 -0.1822
 6016SOL    HW219490   2.808   1.846   5.856 -0.7033  0.5243  1.0767
 6017SOL     OW19491   2.238   0.857   4.138  0.3092 -0.2313  0.3493
 6017SOL    HW119492   2.191   0.838   4.220  0.0938 -2.4593 -0.2056
 6017SOL    HW219493   2.186   0.926   4.096 -0.7360 -0.4974  1.1628
 6018SOL     OW19494   0.358   7.557  10.317 -0.0321 -0.3382 -0.2949
 6018SOL    HW119495   0.317   7.489  10.369  0.0096  1.1602  1.8489
 6018SOL    HW219496   0.446   7.566  10.354 -0.3384  1.4333  0.1153
 6019SOL     OW19497   6.591   2.042   0.784 -0.7753 -0.2909 -0.2585
 6019SOL    HW119498   6.502   2.008   0.792  0.0887 -2.3961  1.2845
 6019SOL    HW219499   6.602   2.097   0.862 -0.3629 -0.9635  0.1624
 6020SOL     OW19500   6.382   7.298   6.772  0.2804 -0.6218 -0.4204
 6020SOL    HW119501   6.465   7.252   6.759  1.2137  0.5734  0.9231
 6020SOL    HW219502   6.396   7.349   6.852 -1.8328 -0.5378 -0.0599
 6021SOL     OW19503   1.747   7.505   7.949  0.0942 -0.4450 -0.3942
 6021SOL    HW119504   1.766   7.595   7.923  0.1917 -0.5755 -0.7912
 6021SOL    HW219505   1.780   7.452   7.876  0.2062 -0.8135 -0.0792
 6022SOL     OW19506   4.039   0.993   6.423  0.4432 -0.3778  0.2645
 6022SOL    HW119507   4.022   1.087   6.411  1.6754  0.1655  2.2778
 6022SOL    HW219508   4.000   0.972   6.507  1.4647 -1.3165  0.5291
 6023SOL     OW19509   0.090   7.855  11.202  0.2555  0.2207 -0.3686
 6023SOL    HW119510   0.103   7.762  11.182  0.5282  0.1102  0.2859
 6023SOL    HW219511   0.026   7.855  11.272  2.5570  0.3164  1.8870
 6024SOL     OW19512   7.888   0.562   6.775 -0.1203 -0.1183 -0.5392
 6024SOL    HW119513   7.960   0.519   6.820  0.3781  1.0041 -0.2408
 6024SOL    HW219514   7.925   0.644   6.742 -1.4728  0.9276  0.4294
 6025SOL     OW19515   1.109   6.965   2.115 -0.5300  0.0824  0.1598
 6025SOL    HW119516   1.042   6.901   2.139 -1.2932  0.1549 -1.6221
 6025SOL    HW219517   1.157   6.923   2.043  1.2438  0.1189  1.2685
 6026SOL     OW19518   6.977   0.494  12.404  0.8236  0.5560 -0.2331
 6026SOL    HW119519   6.900   0.443  12.429  0.6425  1.3701  0.9790
 6026SOL    HW219520   7.024   0.508  12.486  1.2315  1.7229 -0.6365
 6027SOL     OW19521   4.208   6.363   5.947  0.4415  0.5007 -0.2760
 6027SOL    HW119522   4.136   6.333   6.002  0.6377 -1.9048 -1.2126
 6027SOL    HW219523   4.283   6.312   5.976  0.9373  0.4296 -1.6120
 6028SOL     OW19524   4.146   1.046   0.808  0.5259  0.1540  0.3008
 6028SOL    HW119525   4.066   1.049   0.860 -1.0492 -0.7133 -1.9447
 6028SOL    HW219526   4.213   1.014   0.869 -0.9214  0.4159  2.1086
 6029SOL     OW19527   5.865   3.855   8.105 -0.0542  0.6304  0.5514
 6029SOL    HW119528   5.784   3.894   8.140  0.1572  1.2309  0.3807
 6029SOL    HW219529   5.931   3.871   8.173 -0.4503 -1.4634  1.5324
 6030SOL     OW19530   7.779   3.672   6.781  0.1643 -0.1540  0.3048
 6030SOL    HW119531   7.694   3.629   6.789  0.1316 -0.1073  0.2034
 6030SOL    HW219532   7.787   3.723   6.862 -0.6062  1.0910 -0.3628
 6031SOL     OW19533   0.125   3.113   5.589  0.0683 -0.5772  0.5609
 6031SOL    HW119534   0.136   3.097   5.495  1.4496  2.0001  0.1836
 6031SOL    HW219535   0.032   3.132   5.599 -0.0493 -0.6261 -0.3363
 6032SOL     OW19536   0.340   5.799   2.748  0.3492  0.0752 -0.0134
 6032SOL    HW119537   0.312   5.716   2.786  0.3676 -0.9715 -2.1297
 6032SOL    HW219538   0.260   5.849   2.737  0.4841  1.0380  2.6344
 6033SOL     OW19539   1.608   2.075  10.798  0.5763 -0.3813  0.0809
 6033SOL    HW119540   1.601   2.141  10.866  0.9330 -1.2723  1.0132
 6033SOL    HW219541   1.576   1.994  10.839  1.6840 -1.1409 -0.4834
 6034SOL     OW19542   1.209   0.696  10.927 -0.0657 -0.3829  0.0251
 6034SOL    HW119543   1.298   0.666  10.911 -0.4352 -1.0021 -0.9994
 6034SOL    HW219544   1.154   0.623  10.900 -0.9251  0.4965 -0.7038
 6035SOL     OW19545   7.356   1.133   6.044  0.5460  0.2919 -0.1631
 6035SOL    HW119546   7.439   1.144   5.997 -0.0903  0.4720 -1.2868
 6035SOL    HW219547   7.381   1.096   6.128  1.7071 -0.3158 -0.7504
 6036SOL     OW19548   4.943   6.436   9.329 -0.6574 -0.4546 -0.4247
 6036SOL    HW119549   4.859   6.422   9.286 -0.3491  0.5862 -1.3966
 6036SOL    HW219550   4.992   6.492   9.269  0.8192 -1.2211  0.0208
 6037SOL     OW19551   2.318   6.271   6.839  0.3507  0.1233  0.3768
 6037SOL    HW119552   2.374   6.241   6.911  1.1279  2.0270  0.6333
 6037SOL    HW219553   2.230   6.273   6.876  0.5770 -0.0301  0.9289
 6038SOL     OW19554   6.289   0.964   3.891 -1.0504  0.1690 -0.1863
 6038SOL    HW119555   6.354   0.932   3.828 -0.3634 -1.0769  1.1122
 6038SOL    HW219556   6.232   1.021   3.839  0.0974 -0.0022 -1.7107
 6039SOL     OW19557   3.261   5.220   3.342 -0.0301  0.1705  0.0035
 6039SOL    HW119558   3.272   5.165   3.419  1.8308  2.2318  1.3582
 6039SOL    HW219559   3.217   5.299   3.375 -0.2661  0.6112 -1.2929
 6040SOL     OW19560   3.061   4.094   6.834 -0.2420  0.1058  0.2685
 6040SOL    HW119561   2.978   4.081   6.880 -0.3095  0.2391  0.1857
 6040SOL    HW219562   3.054   4.181   6.795  0.0144  0.1987  0.4220
 6041SOL     OW19563   4.790   3.138  10.043  0.2994  0.1943 -0.0175
 6041SOL    HW119564   4.738   3.068  10.083 -1.4412  0.8428 -1.0115
 6041SOL    HW219565   4.757   3.143   9.953  1.7483  1.0120 -0.5221
 6042SOL     OW19566   5.565   3.141   2.201 -0.2186 -0.3248  0.4418
 6042SOL    HW119567   5.581   3.096   2.284  0.1574  1.3086  1.2895
 6042SOL    HW219568   5.472   3.163   2.203 -0.3759 -0.9207  0.0786
 6043SOL     OW19569   5.056   3.270   5.403 -0.2850  0.3050 -0.1880
 6043SOL    HW119570   5.137   3.225   5.380 -0.3203  0.7168 -1.1562
 6043SOL    HW219571   4.988   3.205   5.389 -0.1132 -0.1351  0.9084
 6044SOL     OW19572   5.516   3.638  10.828  0.5831  0.3759 -0.6584
 6044SOL    HW119573   5.463   3.717  10.829  1.3956  0.9558  0.8630
 6044SOL    HW219574   5.454   3.567  10.814 -0.3143  1.2021 -0.9101
 6045SOL     OW19575   2.670   5.644   6.606  0.3734 -0.0168 -0.2334
 6045SOL    HW119576   2.671   5.700   6.529 -1.8210 -1.4520 -1.3997
 6045SOL    HW219577   2.675   5.555   6.571  2.6592 -0.6936  1.5107
 6046SOL     OW19578   4.547   1.055   8.125  0.3045 -0.7949  0.1392
 6046SOL    HW119579   4.540   1.004   8.205 -1.7088  0.8851  1.1478
 6046SOL    HW219580   4.486   1.013   8.064 -0.3805 -0.3850  0.5279
 6047SOL     OW19581   7.651   2.583   4.107 -0.4526 -0.4264 -0.0443
 6047SOL    HW119582   7.730   2.597   4.159 -0.4391 -1.0080  0.1012
 6047SOL    HW219583   7.587   2.644   4.144  0.2161  0.7903 -0.8313
 6048SOL     OW19584   4.191   6.036   8.992 -0.1244  0.0629  0.1739
 6048SOL    HW119585   4.286   6.026   8.987 -0.1764 -0.6343  0.4773
 6048SOL    HW219586   4.161   6.035   8.901  0.3232  2.2425 -0.0694
 6049SOL     OW19587   0.760   2.661  11.346  0.3200 -0.0464 -0.2532
 6049SOL    HW119588   0.765   2.599  11.273 -0.2717 -0.7097  0.2551
 6049SOL    HW219589   0.712   2.736  11.310 -2.3129 -1.4212  0.1090
 6050SOL     OW19590   7.061   0.423   1.466 -0.4972 -0.5533  0.0939
 6050SOL    HW119591   7.129   0.475   1.507 -0.7261  0.1820 -0.4344
 6050SOL    HW219592   7.065   0.338   1.510 -1.7826  0.6500  2.7783
 6051SOL     OW19593   1.024   0.108  11.202  0.4029  0.0036 -0.4749
 6051SOL    HW119594   0.946   0.102  11.256 -1.5998  2.0809 -2.8430
 6051SOL    HW219595   1.091   0.145  11.259 -1.3259  1.2343  0.8560
 6052SOL     OW19596   1.830   5.783   9.060 -0.4327  0.0916 -0.1507
 6052SOL    HW119597   1.802   5.699   9.024 -0.3005  0.1829 -0.4714
 6052SOL    HW219598   1.893   5.817   8.996 -1.7639  1.2458 -0.9133
 6053SOL     OW19599   4.713   7.297  11.623 -0.1360  0.0303  0.5116
 6053SOL    HW119600   4.751   7.244  11.693  0.7900  1.8864  1.4911
 6053SOL    HW219601   4.642   7.244  11.588 -0.9877 -0.7747  3.2139
 6054SOL     OW19602   4.175   0.094   3.207  0.4629  0.4147  0.3259
 6054SOL    HW119603   4.215   0.008   3.199 -1.0998 -0.6749  2.8171
 6054SOL    HW219604   4.081   0.076   3.205  0.1116  2.0243  1.0353
 6055SOL     OW19605   5.753   2.483   5.821  0.0279  0.1416 -0.3768
 6055SOL    HW119606   5.671   2.526   5.798  0.4694  0.5343 -1.2793
 6055SOL    HW219607   5.818   2.524   5.765  1.2153  1.2055  1.6927
 6056SOL     OW19608   0.006   7.815   2.750 -0.4126 -0.4065 -0.4751
 6056SOL    HW119609   0.054   7.778   2.676 -0.6017 -1.5409 -0.0542
 6056SOL    HW219610  -0.083   7.783   2.740 -1.0600  1.4657 -1.0969
 6057SOL     OW19611   3.565   6.590  10.325  0.5420  0.6098  0.5565
 6057SOL    HW119612   3.647   6.628  10.294  0.3958  1.4932  1.1925
 6057SOL    HW219613   3.504   6.602  10.252  0.4667  1.7725  0.7850
 6058SOL     OW19614   7.307   7.552  11.778  0.2490 -0.0493  0.1754
 6058SOL    HW119615   7.343   7.640  11.771  0.6894 -0.0785  1.7451
 6058SOL    HW219616   7.337   7.507  11.699 -0.3139  1.2983 -0.8472
 6059SOL     OW19617   3.253   0.361   6.495  0.6451 -0.4029  0.1806
 6059SOL    HW119618   3.276   0.281   6.449 -0.0782 -0.0366 -0.8598
 6059SOL    HW219619   3.209   0.332   6.575  0.1878 -1.0483 -0.2984
 6060SOL     OW19620   5.248   7.444  11.320  0.7541 -0.5917 -0.0929
 6060SOL    HW119621   5.314   7.476  11.381  0.2439  0.1523  0.0747
 6060SOL    HW219622   5.244   7.511  11.252  0.4328 -0.8205 -0.2999
 6061SOL     OW19623   1.072   0.963   0.477 -0.3700  0.0759  0.0119
 6061SOL    HW119624   0.984   0.931   0.457 -0.9158  1.2151  0.4814
 6061SOL    HW219625   1.071   0.981   0.571  1.1157 -2.0601  0.5007
 6062SOL     OW19626   3.106   3.101   4.841  0.4214  0.1195 -0.3103
 6062SOL    HW119627   3.047   3.037   4.803  1.2026 -0.7600 -0.0746
 6062SOL    HW219628   3.075   3.185   4.808 -1.7501 -0.1619  0.7912
 6063SOL     OW19629   1.948   1.569  11.956 -0.2224  0.3530 -0.3746
 6063SOL    HW119630   1.895   1.646  11.976  0.6835  1.0481 -0.5330
 6063SOL    HW219631   1.916   1.501  12.015  0.4707  1.5158  1.4589
 6064SOL     OW19632   0.521   6.665  12.430 -0.4999 -0.0819 -0.4251
 6064SOL    HW119633   0.588   6.597  12.436  0.9617  1.1533 -1.5760
 6064SOL    HW219634   0.539   6.723  12.505  0.6653  0.9807 -1.4683
 6065SOL     OW19635   6.114   4.372   5.785 -0.2034  0.1233 -0.2917
 6065SOL    HW119636   6.026   4.407   5.774 -0.4276 -0.7404 -1.4067
 6065SOL    HW219637   6.113   4.329   5.871 -0.9707 -0.1780 -0.4508
 6066SOL     OW19638   1.434   1.445   2.269 -0.0535 -0.2412  0.0649
 6066SOL    HW119639   1.470   1.486   2.190  0.0299  1.1601  0.8103
 6066SOL    HW219640   1.339   1.449   2.257 -0.0411 -0.0202  0.0427
 6067SOL     OW19641   6.807   5.007   4.102 -0.3355 -0.9349 -0.3674
 6067SOL    HW119642   6.805   5.086   4.156 -0.4019 -1.9354  1.1507
 6067SOL    HW219643   6.873   4.951   4.143  0.0620 -1.4766 -1.7095
 6068SOL     OW19644   0.875   2.027   6.956 -0.0436  0.0786 -0.0242
 6068SOL    HW119645   0.868   2.071   6.871  1.8011 -0.6443 -0.5981
 6068SOL    HW219646   0.850   1.936   6.937 -0.2167  0.0457  0.3541
 6069SOL     OW19647   7.845   7.776   7.942 -0.9351  0.6192 -0.4268
 6069SOL    HW119648   7.775   7.841   7.931 -0.5082  1.0076 -0.9503
 6069SOL    HW219649   7.808   7.710   8.000 -0.8874  2.0593  1.3138
 6070SOL     OW19650   4.880   6.133  10.718 -0.4333 -0.5814 -0.1189
 6070SOL    HW119651   4.926   6.194  10.660 -0.0846  0.6535  1.4089
 6070SOL    HW219652   4.904   6.161  10.806 -3.4790 -0.3554  0.7441
 6071SOL     OW19653   6.854   4.553   5.741 -0.0665 -0.3315 -0.3138
 6071SOL    HW119654   6.881   4.511   5.822  1.5121  0.4812 -0.3894
 6071SOL    HW219655   6.877   4.645   5.752 -2.4159  0.3656 -0.5882
 6072SOL     OW19656   3.496   1.708   5.336  0.1162  0.7753  0.5851
 6072SOL    HW119657   3.522   1.620   5.362  0.0106  0.8734  1.0488
 6072SOL    HW219658   3.480   1.753   5.419 -0.0841  1.1522  0.3462
 6073SOL     OW19659   3.369   4.313  12.276  0.3147  0.3440 -0.3721
 6073SOL    HW119660   3.411   4.270  12.350  0.3831 -0.1401 -0.6907
 6073SOL    HW219661   3.308   4.374  12.316 -1.0161 -1.2353  0.0945
 6074SOL     OW19662   0.550   2.461   6.540  0.4705  0.4020 -0.0400
 6074SOL    HW119663   0.545   2.554   6.562 -1.9152  0.5400 -0.8534
 6074SOL    HW219664   0.499   2.418   6.609 -1.2270  0.1015 -1.4169
 6075SOL     OW19665   7.817   6.341  10.087 -0.6731  0.1628  0.0496
 6075SOL    HW119666   7.730   6.303  10.098  0.1113 -2.1771 -1.0713
 6075SOL    HW219667   7.874   6.286  10.141  0.1458  1.6344  0.7391
 6076SOL     OW19668   7.024   0.300   8.082  0.0648 -0.2718  0.1424
 6076SOL    HW119669   7.071   0.227   8.043 -0.1747 -0.1791 -0.3303
 6076SOL    HW219670   7.093   0.360   8.112  0.2556 -0.5682  0.2946
 6077SOL     OW19671   2.206   6.420   2.432 -0.3086 -0.2592 -0.3593
 6077SOL    HW119672   2.131   6.475   2.455  0.0135 -0.3068  0.8264
 6077SOL    HW219673   2.202   6.346   2.493  0.5420 -0.4174 -0.4849
 6078SOL     OW19674   7.805   7.953   1.815 -0.9375  0.2993 -0.3220
 6078SOL    HW119675   7.834   7.969   1.905 -2.4890 -0.1286  0.3029
 6078SOL    HW219676   7.823   8.035   1.769 -1.0502  0.8970  0.6584
 6079SOL     OW19677   6.185   0.009   3.101 -0.1918  0.3220  0.5342
 6079SOL    HW119678   6.098   0.046   3.103 -0.0127  0.7446  0.5432
 6079SOL    HW219679   6.226   0.038   3.183  0.1557  0.6076  0.2622
 6080SOL     OW19680   4.403   6.693  11.862  0.4720 -0.1590  1.2440
 6080SOL    HW119681   4.358   6.618  11.822  0.4317  0.3417  0.2992
 6080SOL    HW219682   4.452   6.656  11.935  0.1530 -1.0424  1.0267
 6081SOL     OW19683   0.780   6.676   4.917  0.0210  0.5519 -0.0703
 6081SOL    HW119684   0.846   6.720   4.971  2.0365 -0.2964 -1.6910
 6081SOL    HW219685   0.823   6.595   4.889 -2.2031 -0.6465 -0.2183
 6082SOL     OW19686   5.152   5.469   0.205 -0.0965 -0.3109 -0.1431
 6082SOL    HW119687   5.243   5.483   0.232 -0.0899  0.7120 -0.6306
 6082SOL    HW219688   5.159   5.421   0.123 -0.0220 -0.7696  0.1271
 6083SOL     OW19689   3.939   1.429  10.660 -0.3579 -0.3591 -0.3445
 6083SOL    HW119690   3.870   1.415  10.725 -1.3262 -0.3077 -1.3388
 6083SOL    HW219691   3.893   1.436  10.576  0.7729  0.6460 -0.9161
 6084SOL     OW19692   5.869   0.169   3.760 -0.1640 -0.3236 -0.3972
 6084SOL    HW119693   5.896   0.078   3.774  0.6807 -0.0380 -0.0742
 6084SOL    HW219694   5.947   0.212   3.726  0.0325  0.6828  1.1991
 6085SOL     OW19695   7.496   2.068   1.571 -0.2845  0.0656  0.1875
 6085SOL    HW119696   7.576   2.016   1.556 -0.0052  0.7244 -0.7524
 6085SOL    HW219697   7.446   2.057   1.490  0.1421  1.8599 -0.3470
 6086SOL     OW19698   1.912   3.069   4.930  0.1929  0.4239 -0.1252
 6086SOL    HW119699   1.846   3.002   4.916  0.5080 -1.0813  4.1284
 6086SOL    HW219700   1.864   3.152   4.926 -2.0798 -0.5951  2.4868
 6087SOL     OW19701   0.684   1.287   3.974 -0.8486  0.4645  0.0681
 6087SOL    HW119702   0.611   1.342   4.003 -1.4304 -1.2293  1.9919
 6087SOL    HW219703   0.702   1.230   4.048  0.2696 -1.3889 -1.5501
 6088SOL     OW19704   2.320   1.834   5.035  0.1477  0.4709  0.8746
 6088SOL    HW119705   2.378   1.833   4.959 -1.6744 -0.2135 -0.5782
 6088SOL    HW219706   2.284   1.746   5.039  1.0119  0.1585  3.2422
 6089SOL     OW19707   7.799   4.847   1.334  0.5009  1.1339 -0.2824
 6089SOL    HW119708   7.885   4.887   1.346  1.3014 -0.7752  0.8146
 6089SOL    HW219709   7.815   4.772   1.277  0.1682 -0.8810  2.0921
 6090SOL     OW19710   4.589   5.810   2.005 -0.1099 -0.8022  0.2253
 6090SOL    HW119711   4.534   5.824   1.928  1.7226 -1.1132 -1.2201
 6090SOL    HW219712   4.552   5.868   2.072 -3.0348 -2.0657 -0.1528
 6091SOL     OW19713   6.529   2.240  11.422  0.1036 -0.8081  0.6421
 6091SOL    HW119714   6.622   2.235  11.443  0.1489 -0.8158  0.4421
 6091SOL    HW219715   6.485   2.199  11.497  0.2832 -1.1483  0.5626
 6092SOL     OW19716   1.110   5.120   1.797  0.2652  1.1699  0.0438
 6092SOL    HW119717   1.180   5.160   1.746 -0.5384  0.2501 -1.8651
 6092SOL    HW219718   1.112   5.028   1.773 -0.9616  0.9476  0.6909
 6093SOL     OW19719   3.518   2.784   5.903 -0.0594 -0.3349 -0.4937
 6093SOL    HW119720   3.589   2.844   5.878 -0.1600 -0.0204 -0.0352
 6093SOL    HW219721   3.515   2.788   5.998 -0.6173 -0.4346 -0.5006
 6094SOL     OW19722   5.165   7.674  10.739 -0.0668  0.0654  0.1265
 6094SOL    HW119723   5.180   7.596  10.685 -2.1833 -0.2462 -0.0882
 6094SOL    HW219724   5.232   7.737  10.709  2.4364 -1.9756  1.1029
 6095SOL     OW19725   1.867   0.419   7.059  0.4558 -0.0974  0.0366
 6095SOL    HW119726   1.907   0.506   7.062  0.4709 -0.1302  1.7877
 6095SOL    HW219727   1.902   0.373   7.135  3.3842 -3.0274 -2.6842
 6096SOL     OW19728   2.880   7.683   3.607  0.0319  0.2093 -0.1625
 6096SOL    HW119729   2.939   7.694   3.682 -0.1094  2.0444 -0.2764
 6096SOL    HW219730   2.866   7.772   3.575 -0.1642 -0.5138 -2.1952
 6097SOL     OW19731   6.988   1.274   7.649  0.6439  0.1553  0.3891
 6097SOL    HW119732   6.916   1.220   7.681  0.1818  1.3595  1.4529
 6097SOL    HW219733   6.988   1.261   7.554  0.0453 -1.0791  0.5494
 6098SOL     OW19734   1.125   2.380   7.135 -0.2096  0.3225  0.2598
 6098SOL    HW119735   1.118   2.286   7.146  0.0276  0.5202  2.6159
 6098SOL    HW219736   1.063   2.401   7.064  2.0441 -1.9039 -2.6035
 6099SOL     OW19737   7.593   3.236   4.746 -0.3107  0.0043 -0.3433
 6099SOL    HW119738   7.592   3.330   4.728  1.3197 -0.1549 -1.4946
 6099SOL    HW219739   7.668   3.223   4.805  0.8786 -0.7982 -1.9538
 6100SOL     OW19740   5.240   2.071   4.285  0.2936  0.0735 -0.6266
 6100SOL    HW119741   5.154   2.039   4.312 -0.5179  1.3871 -1.5688
 6100SOL    HW219742   5.285   2.089   4.368 -0.1666 -0.9942 -0.1190
 6101SOL     OW19743   3.688   7.852   5.108 -0.1605 -0.2169  0.0865
 6101SOL    HW119744   3.628   7.793   5.154 -1.4159  0.8731 -0.1078
 6101SOL    HW219745   3.633   7.924   5.079  1.1361  0.4798 -0.7067
 6102SOL     OW19746   7.681   4.759   9.652 -0.4092  0.6217  0.4873
 6102SOL    HW119747   7.743   4.828   9.631  0.4639 -0.1012  0.6264
 6102SOL    HW219748   7.615   4.801   9.707  1.2114  0.9006  2.3055
 6103SOL     OW19749   6.696   3.682  11.123  0.6177 -0.5710  0.4929
 6103SOL    HW119750   6.733   3.724  11.046  1.0909 -1.5344  0.1799
 6103SOL    HW219751   6.640   3.749  11.163 -1.3918 -0.6997 -1.8821
 6104SOL     OW19752   1.790   3.338   3.930  0.0479  0.3930  0.0204
 6104SOL    HW119753   1.793   3.421   3.976  0.4441 -0.3163  1.3277
 6104SOL    HW219754   1.731   3.353   3.856  0.2532  1.8654  0.1327
 6105SOL     OW19755   2.610   6.619   2.516  1.1437  0.0231  0.4033
 6105SOL    HW119756   2.619   6.591   2.425  1.7455  0.7632  0.2282
 6105SOL    HW219757   2.628   6.713   2.514  2.6701 -0.2137  1.5194
 6106SOL     OW19758   5.064   0.374   1.898  0.0288  0.7869 -0.3810
 6106SOL    HW119759   5.022   0.297   1.938  1.4765  0.6063  0.8645
 6106SOL    HW219760   5.044   0.366   1.805  1.2643 -1.8648 -0.4997
 6107SOL     OW19761   5.547   4.748   6.430 -0.2916  0.4843  0.1812
 6107SOL    HW119762   5.530   4.674   6.489 -0.4065  0.0795 -0.3397
 6107SOL    HW219763   5.463   4.762   6.386  0.1385 -0.1566 -0.9008
 6108SOL     OW19764   0.874   0.228   1.418 -0.1576  0.2990 -0.6798
 6108SOL    HW119765   0.932   0.211   1.343 -0.5512  0.2767 -0.9820
 6108SOL    HW219766   0.796   0.267   1.379  0.3652  2.0002 -0.0985
 6109SOL     OW19767   1.476   4.178   0.247  0.8256  0.5384  0.0073
 6109SOL    HW119768   1.463   4.113   0.178  1.1407  0.5851 -0.0998
 6109SOL    HW219769   1.565   4.160   0.279  0.2401 -0.2936  1.2463
 6110SOL     OW19770   1.702   3.946   8.647 -0.1826 -0.5941 -0.1568
 6110SOL    HW119771   1.783   3.907   8.683  0.9196  1.5057 -0.2267
 6110SOL    HW219772   1.717   3.949   8.552 -0.2711 -0.0206 -0.1517
 6111SOL     OW19773   7.961   0.829   0.932 -0.7064  0.0227  0.1152
 6111SOL    HW119774   7.969   0.758   0.995 -1.4792 -0.8667 -0.7606
 6111SOL    HW219775   8.037   0.818   0.874 -0.0128  0.8214  0.8446
 6112SOL     OW19776   1.955   4.350   0.050 -0.1718  0.0256 -0.3974
 6112SOL    HW119777   2.017   4.289   0.011  0.0859  1.3398 -2.2012
 6112SOL    HW219778   1.942   4.416  -0.018 -2.1343  0.7748  0.6463
 6113SOL     OW19779   2.281   4.249   4.095  0.7822 -0.2832 -0.3263
 6113SOL    HW119780   2.363   4.207   4.122 -0.0198 -1.3085  0.6260
 6113SOL    HW219781   2.226   4.245   4.173 -0.3574 -0.0868 -1.1050
 6114SOL     OW19782   4.407   3.470  10.816  0.1311 -0.8146  0.6622
 6114SOL    HW119783   4.425   3.395  10.873  0.9244  0.2133  1.8328
 6114SOL    HW219784   4.349   3.526  10.868  0.1778 -0.2546  0.1270
 6115SOL     OW19785   0.801   6.483   0.265 -0.3351  0.6011  0.5145
 6115SOL    HW119786   0.876   6.527   0.224 -0.3187  0.2404  0.1584
 6115SOL    HW219787   0.809   6.392   0.239 -1.2535  0.6709 -0.0597
 6116SOL     OW19788   0.557   1.855   3.180  0.0387  0.0858  0.1264
 6116SOL    HW119789   0.620   1.857   3.108 -0.6630 -1.4002 -0.5590
 6116SOL    HW219790   0.485   1.911   3.150 -0.5998 -1.1313 -0.6986
 6117SOL     OW19791   3.111   3.348  12.443  0.7102  0.4208  0.0913
 6117SOL    HW119792   3.078   3.269  12.399 -0.7704  0.8359  0.4259
 6117SOL    HW219793   3.041   3.412  12.434  1.9348  1.7707 -0.2791
 6118SOL     OW19794   3.925   7.643   1.939  0.5686 -0.2862 -0.0469
 6118SOL    HW119795   3.913   7.576   2.006 -1.3824  0.6536  0.6166
 6118SOL    HW219796   3.973   7.713   1.983 -0.0439  0.0157  0.1346
 6119SOL     OW19797   3.903   4.530   5.140  0.0384 -0.6027  0.4007
 6119SOL    HW119798   3.912   4.590   5.214  0.0394 -0.6813  0.4643
 6119SOL    HW219799   3.993   4.516   5.109 -0.0525  0.3069 -0.3147
 6120SOL     OW19800   5.122   3.924   4.206 -0.2867 -0.5111  0.2458
 6120SOL    HW119801   5.110   4.011   4.245 -0.5266 -1.1585  1.6527
 6120SOL    HW219802   5.203   3.891   4.246 -1.1370 -1.6445  1.0971
 6121SOL     OW19803   1.532   4.879   1.263 -0.1077 -0.4569  0.6580
 6121SOL    HW119804   1.532   4.897   1.358  0.5794 -0.6265  0.6948
 6121SOL    HW219805   1.444   4.904   1.235  0.3836  1.8621  0.9218
 6122SOL     OW19806   3.766   1.277   6.616 -0.2629 -0.4593 -0.0505
 6122SOL    HW119807   3.734   1.286   6.526 -0.1470 -0.0846 -0.0566
 6122SOL    HW219808   3.720   1.200   6.650  2.2107 -2.7810 -1.5396
 6123SOL     OW19809   3.654   1.797   6.114  0.0575  0.0379  0.1936
 6123SOL    HW119810   3.662   1.787   6.019  1.7951 -0.5342  0.3748
 6123SOL    HW219811   3.586   1.863   6.125  1.7497  2.2168 -1.5380
 6124SOL     OW19812   1.380   0.825  10.712 -0.7802 -0.7713  0.0152
 6124SOL    HW119813   1.432   0.875  10.776  0.2477 -0.4566 -1.0388
 6124SOL    HW219814   1.306   0.792  10.763  0.3513 -1.0878  1.5237
 6125SOL     OW19815   4.640   4.269   1.322 -0.3371 -0.1160  0.0192
 6125SOL    HW119816   4.554   4.252   1.285 -0.3914 -0.3667  0.2590
 6125SOL    HW219817   4.670   4.184   1.353 -0.6283  0.2130  1.2705
 6126SOL     OW19818   5.659   3.089   7.893  0.3393 -0.1622  0.0569
 6126SOL    HW119819   5.569   3.094   7.859  0.1459  0.7248  0.6542
 6126SOL    HW219820   5.669   2.998   7.922 -0.3325 -0.2917 -0.1034
 6127SOL     OW19821   6.525   0.917   6.531  0.5685 -0.4047 -0.5833
 6127SOL    HW119822   6.541   0.928   6.437 -0.4899  1.9766 -0.5519
 6127SOL    HW219823   6.442   0.871   6.535 -1.1143  2.3701 -0.9469
 6128SOL     OW19824   5.284   4.307  11.018 -0.0725 -0.3116  0.1128
 6128SOL    HW119825   5.337   4.387  11.025  0.9753 -0.9340 -0.3873
 6128SOL    HW219826   5.336   4.249  10.961 -0.4419 -1.6391  1.0722
 6129SOL     OW19827   5.367   1.527   6.731  0.1094  0.4253  0.1782
 6129SOL    HW119828   5.350   1.519   6.637 -0.6525  0.6291  0.2975
 6129SOL    HW219829   5.363   1.621   6.748 -1.4736  0.2776  0.7241
 6130SOL     OW19830   0.060   0.506  10.507 -0.0714  0.0483  0.4279
 6130SOL    HW119831  -0.034   0.497  10.520 -0.0995  0.7687  0.7855
 6130SOL    HW219832   0.091   0.548  10.587  0.7970 -1.5487  0.9661
 6131SOL     OW19833   5.576   4.266   6.815 -0.3074 -0.1402  1.0686
 6131SOL    HW119834   5.545   4.355   6.832  2.3340  0.8029  1.5822
 6131SOL    HW219835   5.535   4.241   6.732 -0.1934  2.0801  0.2636
 6132SOL     OW19836   7.512   6.149   7.348  0.1545  0.2897 -0.4618
 6132SOL    HW119837   7.445   6.174   7.412  0.3138  1.6741 -0.8122
 6132SOL    HW219838   7.484   6.191   7.267  0.9316  0.0699 -0.8490
 6133SOL     OW19839   1.496   4.402   8.477  0.2557  0.5627 -0.9642
 6133SOL    HW119840   1.530   4.475   8.425 -0.1943  0.3063 -1.6191
 6133SOL    HW219841   1.411   4.433   8.508  0.9706  1.1373  0.5354
 6134SOL     OW19842   5.858   0.663   0.387 -0.8113  0.4632 -0.6888
 6134SOL    HW119843   5.863   0.758   0.389  1.8910  0.4095 -1.2001
 6134SOL    HW219844   5.897   0.638   0.303  0.2896 -1.1085  0.2237
 6135SOL     OW19845   2.562   0.076   7.755  0.7561  0.0369 -0.3146
 6135SOL    HW119846   2.600   0.044   7.838 -0.2292 -0.4378 -0.0188
 6135SOL    HW219847   2.623   0.046   7.688 -0.0913 -2.5790 -0.0506
 6136SOL     OW19848   4.766   0.300   0.379 -0.1144  0.1697  0.0376
 6136SOL    HW119849   4.825   0.230   0.406  1.1711  0.1015 -2.5450
 6136SOL    HW219850   4.806   0.380   0.413  1.1841  0.0495 -1.1004
 6137SOL     OW19851   5.977   7.465   3.368  0.0644  0.3661 -0.5921
 6137SOL    HW119852   5.885   7.440   3.364  0.6594 -2.6509  1.5789
 6137SOL    HW219853   6.021   7.410   3.303  0.6201  0.1272 -0.0271
 6138SOL     OW19854   5.315   3.931   4.417 -0.0682 -0.5283 -0.1714
 6138SOL    HW119855   5.344   3.993   4.350  0.7515 -1.2079 -0.4591
 6138SOL    HW219856   5.394   3.883   4.442 -1.0346 -3.2251 -1.7987
 6139SOL     OW19857   2.224   1.753   8.647  0.3910  0.6502  0.0855
 6139SOL    HW119858   2.275   1.737   8.567 -2.2620 -0.9901 -1.4451
 6139SOL    HW219859   2.266   1.700   8.714  1.6198  0.6325 -0.6778
 6140SOL     OW19860   5.791   7.741  10.490 -0.2728 -0.0255  0.8499
 6140SOL    HW119861   5.718   7.682  10.505 -1.1260  0.5580 -0.7426
 6140SOL    HW219862   5.792   7.755  10.395  1.9767 -0.0895  0.8045
 6141SOL     OW19863   6.254   6.864   6.216 -0.2907 -0.6238 -0.4817
 6141SOL    HW119864   6.226   6.912   6.138  0.8383  0.1506 -0.4418
 6141SOL    HW219865   6.336   6.821   6.190 -0.5210 -1.3310 -0.0668
 6142SOL     OW19866   7.171   6.999   8.064 -0.2643  0.0843 -0.0369
 6142SOL    HW119867   7.177   7.046   8.147  0.0656  0.7222 -0.4102
 6142SOL    HW219868   7.262   6.995   8.032 -0.1596 -1.5741  0.3981
 6143SOL     OW19869   6.536   4.702  10.701  0.3932  0.2806 -0.9403
 6143SOL    HW119870   6.533   4.611  10.670  0.1442  0.4152 -1.3166
 6143SOL    HW219871   6.597   4.746  10.642 -1.2179  0.8950 -2.2281
 6144SOL     OW19872   5.061   3.165   8.937 -0.3308 -0.6877 -0.1480
 6144SOL    HW119873   4.971   3.194   8.924 -0.1902 -0.8385 -1.5977
 6144SOL    HW219874   5.102   3.174   8.851  0.8814 -1.1596  0.3587
 6145SOL     OW19875   1.749   5.597   4.947 -0.1343  0.2071 -0.5021
 6145SOL    HW119876   1.739   5.685   4.984 -0.3407 -0.3904  0.9351
 6145SOL    HW219877   1.670   5.584   4.895 -0.0118  0.9436 -0.8853
 6146SOL     OW19878   4.362   3.040   4.111 -0.1922  0.0342 -0.0362
 6146SOL    HW119879   4.271   3.070   4.105  0.1194  1.3427  1.1123
 6146SOL    HW219880   4.413   3.121   4.112  0.9299 -0.6550  0.2441
 6147SOL     OW19881   5.360   0.389   1.325 -0.3314  0.4001  0.5999
 6147SOL    HW119882   5.415   0.312   1.341  0.6804  0.9599 -0.0615
 6147SOL    HW219883   5.298   0.360   1.257 -0.6515 -0.1386  1.1135
 6148SOL     OW19884   0.789   1.596  11.026  0.1069  0.0752  0.2315
 6148SOL    HW119885   0.701   1.567  11.051 -0.1052  1.0577  0.6692
 6148SOL    HW219886   0.802   1.561  10.938 -0.7956  0.0695  0.0923
 6149SOL     OW19887   6.747   5.312  12.165 -0.4218 -0.2392 -0.1172
 6149SOL    HW119888   6.825   5.257  12.180  0.3857  0.5655 -1.2207
 6149SOL    HW219889   6.782   5.401  12.158 -1.3768  0.0708 -1.1643
 6150SOL     OW19890   7.504   2.530   0.747  0.6713 -0.3299 -0.7368
 6150SOL    HW119891   7.445   2.507   0.819  0.2278  0.6445 -0.7698
 6150SOL    HW219892   7.583   2.480   0.765  0.4241 -0.4148  0.2147
 6151SOL     OW19893   3.297   7.370   1.473 -0.2312 -0.2239 -0.0114
 6151SOL    HW119894   3.382   7.381   1.515 -0.5003  0.6701  0.3203
 6151SOL    HW219895   3.250   7.451   1.491 -0.3759  0.2011 -2.0146
 6152SOL     OW19896   5.596   5.079   9.882  0.1887 -0.2350 -0.1546
 6152SOL    HW119897   5.588   5.075   9.787 -0.3932  0.1084 -0.1317
 6152SOL    HW219898   5.688   5.063   9.900  0.8007  2.0195 -0.9449
 6153SOL     OW19899   2.322   7.587   4.092 -0.2077  0.1938  0.1679
 6153SOL    HW119900   2.242   7.549   4.056  0.0284 -1.3115  1.1468
 6153SOL    HW219901   2.292   7.659   4.148 -0.9205 -0.5927  0.8228
 6154SOL     OW19902   7.191   6.126  10.661 -0.0476 -0.4363 -0.8329
 6154SOL    HW119903   7.275   6.123  10.706  1.5055 -2.6652 -3.5464
 6154SOL    HW219904   7.184   6.216  10.628  1.5326 -0.3524 -0.9923
 6155SOL     OW19905   1.893   7.569   2.909  0.2396  0.2731 -0.4081
 6155SOL    HW119906   1.831   7.504   2.875 -0.6822  0.8119  0.1907
 6155SOL    HW219907   1.966   7.517   2.942  0.0602 -0.3856 -1.0250
 6156SOL     OW19908   2.434   1.833  11.069  0.3255  0.3762 -0.3688
 6156SOL    HW119909   2.496   1.878  11.127 -1.5607  0.5450  1.6012
 6156SOL    HW219910   2.357   1.890  11.067 -0.2105 -0.3462 -1.9182
 6157SOL     OW19911   4.884   2.527  10.446  0.0247 -0.0754 -0.0600
 6157SOL    HW119912   4.963   2.581  10.450 -0.9987  1.4627  0.2761
 6157SOL    HW219913   4.856   2.531  10.355 -1.1714  1.6993  0.3464
 6158SOL     OW19914   3.790   5.140   5.881 -0.0103  0.4546  0.2425
 6158SOL    HW119915   3.729   5.158   5.809 -0.0796 -0.5355  0.0398
 6158SOL    HW219916   3.875   5.128   5.839 -0.0007  0.1256  0.3578
 6159SOL     OW19917   5.203   7.575   6.763  0.0779 -0.3781 -0.3189
 6159SOL    HW119918   5.136   7.612   6.706 -0.0325 -0.9890 -0.5897
 6159SOL    HW219919   5.223   7.646   6.825 -0.3098  0.0448 -0.6682
 6160SOL     OW19920   5.155   4.911   5.135  0.3326  0.0998 -0.0906
 6160SOL    HW119921   5.074   4.960   5.149  1.2637  2.1299 -1.3344
 6160SOL    HW219922   5.128   4.835   5.083 -0.7543  0.8476 -0.6671
 6161SOL     OW19923   5.998   2.114   1.715 -0.1095 -0.4694  0.4090
 6161SOL    HW119924   6.012   2.191   1.770 -2.6743 -0.1346  0.6813
 6161SOL    HW219925   5.980   2.149   1.628 -1.1280 -0.7583  0.4956
 6162SOL     OW19926   3.773   4.949   4.557 -0.1081  0.7006 -0.3798
 6162SOL    HW119927   3.799   5.009   4.486 -0.0539  1.4464  0.2560
 6162SOL    HW219928   3.835   4.877   4.551 -0.5004  0.4325 -1.4946
 6163SOL     OW19929   2.226   5.673   8.098 -0.8809 -0.7093  0.5075
 6163SOL    HW119930   2.234   5.767   8.087  0.4489 -0.7309  1.1369
 6163SOL    HW219931   2.140   5.652   8.061 -1.4542  0.8151  0.9127
 6164SOL     OW19932   4.988   4.357   9.541  0.0014  0.5105 -0.5354
 6164SOL    HW119933   5.080   4.363   9.518 -0.0629  0.0851 -0.9185
 6164SOL    HW219934   4.966   4.443   9.576  0.4482  0.7342 -0.8046
 6165SOL     OW19935   3.020   6.940  12.016 -0.4797  0.1771  0.4796
 6165SOL    HW119936   3.070   7.000  11.961  1.5181 -1.6195  0.1789
 6165SOL    HW219937   3.024   6.979  12.104 -0.6141  1.2632  0.0202
 6166SOL     OW19938   3.370   6.561   3.504 -0.6725  0.2527  0.2754
 6166SOL    HW119939   3.304   6.558   3.574  0.9575 -0.4064  1.8778
 6166SOL    HW219940   3.445   6.605   3.545  0.4907 -0.5327 -0.9466
 6167SOL     OW19941   5.781   1.715  10.940 -0.1229 -1.2964 -0.4558
 6167SOL    HW119942   5.842   1.642  10.951  0.9885 -0.1791  1.3040
 6167SOL    HW219943   5.778   1.730  10.846  1.8531 -1.7994 -0.6321
 6168SOL     OW19944   0.881   5.504  11.089  0.0604 -0.4565 -0.0358
 6168SOL    HW119945   0.936   5.569  11.046 -1.4710  0.5434 -0.5644
 6168SOL    HW219946   0.894   5.520  11.183  1.7711 -1.2292 -0.1140
 6169SOL     OW19947   0.789   2.784  10.699 -0.4456  0.4316 -0.2374
 6169SOL    HW119948   0.778   2.868  10.745 -0.3730  0.6707 -0.6552
 6169SOL    HW219949   0.865   2.797  10.643 -1.3132  0.6022 -1.4306
 6170SOL     OW19950   5.161   4.470  11.185  0.3093 -0.0635  0.0910
 6170SOL    HW119951   5.148   4.544  11.126 -1.7088 -0.7016 -0.3472
 6170SOL    HW219952   5.208   4.406  11.133  0.3371  0.1620 -0.1650
 6171SOL     OW19953   5.531   4.319   2.551 -0.2294  0.6315  0.1842
 6171SOL    HW119954   5.550   4.405   2.514 -1.7204  1.2939  0.8637
 6171SOL    HW219955   5.447   4.331   2.597 -0.2315 -1.0651  0.6807
 6172SOL     OW19956   6.038   6.186  10.251  0.1857  0.3294 -0.0814
 6172SOL    HW119957   5.993   6.227  10.325  0.5118  0.3938  0.0795
 6172SOL    HW219958   5.999   6.099  10.244 -1.5002  1.1104 -1.2727
 6173SOL     OW19959   0.619   0.378  10.337 -0.0916  0.3008 -0.1261
 6173SOL    HW119960   0.661   0.371  10.423 -1.4218 -1.4226  0.4204
 6173SOL    HW219961   0.591   0.470  10.332 -0.0292  0.4223  1.2962
 6174SOL     OW19962   2.122   4.776   2.610  0.4859  0.3366  0.1964
 6174SOL    HW119963   2.051   4.806   2.668  1.3424  0.5109  1.1921
 6174SOL    HW219964   2.128   4.845   2.544 -1.8276 -0.8141 -1.3448
 6175SOL     OW19965   3.260   2.844   3.146  0.4016  0.5076 -0.2600
 6175SOL    HW119966   3.341   2.895   3.148  0.2418  0.7521  0.8097
 6175SOL    HW219967   3.202   2.892   3.089  0.5667  1.0459  0.0202
 6176SOL     OW19968   1.965   3.571   3.379 -0.3580 -0.3361 -0.0494
 6176SOL    HW119969   1.921   3.617   3.308 -0.4846  0.6583  0.6521
 6176SOL    HW219970   1.948   3.478   3.362  0.8008 -0.2288 -2.0911
 6177SOL     OW19971   6.081   1.546   7.731  0.2035 -0.0242 -0.2990
 6177SOL    HW119972   6.119   1.536   7.644  0.9840  0.2403  0.0024
 6177SOL    HW219973   6.144   1.600   7.778 -1.6884  2.5385 -0.5032
 6178SOL     OW19974   7.235   5.851   6.145 -0.3152  0.1611 -0.6867
 6178SOL    HW119975   7.151   5.857   6.099  0.9524  0.4849 -3.1499
 6178SOL    HW219976   7.229   5.917   6.214 -1.5308  1.2857 -1.8084
 6179SOL     OW19977   6.502   2.447   9.991  0.6861 -0.1246  0.0255
 6179SOL    HW119978   6.505   2.507   9.917  1.5146  0.4053  0.4679
 6179SOL    HW219979   6.532   2.499  10.066 -0.7052 -0.4697  0.8687
 6180SOL     OW19980   3.275   7.193   4.692  0.5471 -0.1210 -0.2219
 6180SOL    HW119981   3.249   7.272   4.740 -0.4490 -0.3839 -0.3192
 6180SOL    HW219982   3.244   7.121   4.746  1.6964 -0.4704 -0.0001
 6181SOL     OW19983   6.805   6.925   5.453  0.6805 -0.5354 -0.1126
 6181SOL    HW119984   6.770   6.836   5.440  0.2716 -0.8081  2.3853
 6181SOL    HW219985   6.734   6.972   5.498  0.4550  1.4544 -2.3427
 6182SOL     OW19986   7.377   4.075   0.668  0.2664 -0.1698 -0.0754
 6182SOL    HW119987   7.306   4.047   0.610  0.8274  1.6306 -1.7580
 6182SOL    HW219988   7.441   4.005   0.664 -0.7793 -1.1805  0.3622
 6183SOL     OW19989   7.135   4.727   1.762 -0.0099 -0.2371 -0.1073
 6183SOL    HW119990   7.100   4.640   1.782  0.4782 -0.8917 -1.9204
 6183SOL    HW219991   7.199   4.712   1.692  3.1184  1.0679  2.2399
 6184SOL     OW19992   2.328   2.463  11.702 -0.3750 -0.0512 -0.0490
 6184SOL    HW119993   2.398   2.487  11.642 -0.7257  1.0294 -0.0543
 6184SOL    HW219994   2.248   2.484  11.655 -0.6640  0.3961  0.6292
 6185SOL     OW19995   0.592   6.982   7.809 -0.2540 -0.3749 -0.0700
 6185SOL    HW119996   0.606   7.074   7.789  0.3195 -0.2631  0.8080
 6185SOL    HW219997   0.630   6.935   7.735 -2.5431  0.0964 -1.6771
 6186SOL     OW19998   6.972   7.293   3.601  0.0771  0.0737  0.2093
 6186SOL    HW119999   7.053   7.248   3.626  0.0386 -0.1278 -0.0287
 6186SOL    HW220000   6.999   7.383   3.585  0.4098 -0.1661 -0.6668
 6187SOL     OW20001   2.700   6.493   7.877  0.4636 -0.5156 -0.4983
 6187SOL    HW120002   2.620   6.446   7.898  0.5776 -0.5416 -0.1214
 6187SOL    HW220003   2.745   6.437   7.814 -0.1423 -0.1747 -1.2526
 6188SOL     OW20004   7.152   0.766   3.204  0.1774  0.0250  0.2242
 6188SOL    HW120005   7.151   0.862   3.200 -0.5846  0.0711  1.2018
 6188SOL    HW220006   7.158   0.746   3.297  0.2289 -0.8849  0.0323
 6189SOL     OW20007   1.306   6.111   6.356 -0.1762  0.0468  0.4568
 6189SOL    HW120008   1.292   6.183   6.294  1.3363 -0.5536 -0.6284
 6189SOL    HW220009   1.238   6.124   6.422 -1.3290  1.1949 -0.8720
 6190SOL     OW20010   7.560   0.214  10.939 -0.6130  0.1304 -0.2848
 6190SOL    HW120011   7.482   0.159  10.938  0.5712 -1.7678  1.7341
 6190SOL    HW220012   7.570   0.241  11.030  0.8360  0.6808 -0.5668
 6191SOL     OW20013   3.211   5.227   5.946  0.4194  0.4769 -0.7082
 6191SOL    HW120014   3.197   5.165   5.874 -0.1688  0.1724 -0.3413
 6191SOL    HW220015   3.282   5.188   5.997  1.8140  1.4023 -1.8913
 6192SOL     OW20016   7.868   5.344   3.538  0.8369  0.0213 -0.2926
 6192SOL    HW120017   7.880   5.434   3.509 -0.0210  0.2700  0.0756
 6192SOL    HW220018   7.837   5.352   3.628 -0.4610 -0.5829 -0.6638
 6193SOL     OW20019   7.824   7.967  12.102 -0.0623  0.2461 -0.1134
 6193SOL    HW120020   7.863   7.916  12.172  1.6939  1.1240 -0.4004
 6193SOL    HW220021   7.875   8.048  12.099 -2.5585  1.9577  0.1632
 6194SOL     OW20022   7.380   2.218   5.135 -0.1751 -0.1216 -0.3653
 6194SOL    HW120023   7.373   2.124   5.123  0.1457 -0.2181  0.1754
 6194SOL    HW220024   7.450   2.229   5.199 -0.5306  0.4571 -0.0668
 6195SOL     OW20025   0.112   1.502  10.378 -0.1691 -0.2762  0.1023
 6195SOL    HW120026   0.096   1.581  10.430 -0.7006  0.0203 -0.5074
 6195SOL    HW220027   0.181   1.526  10.317  0.9718 -0.8421  1.1329
 6196SOL     OW20028   4.917   7.144   7.681 -0.1560  0.4466  0.2060
 6196SOL    HW120029   4.971   7.187   7.615  0.8168 -1.9005 -0.6385
 6196SOL    HW220030   4.980   7.109   7.744 -0.8636 -0.0882  0.6348
 6197SOL     OW20031   4.523   2.068  12.417 -0.1821  0.2832 -0.2482
 6197SOL    HW120032   4.484   2.000  12.473  0.4492 -1.4790 -1.8257
 6197SOL    HW220033   4.450   2.100  12.364 -0.3802  0.4458  0.1183
 6198SOL     OW20034   2.600   1.880   2.954  0.0049 -0.0112  0.3046
 6198SOL    HW120035   2.506   1.879   2.974  0.1306 -1.2147  0.9305
 6198SOL    HW220036   2.642   1.866   3.039  0.8062  1.5724  0.2021
 6199SOL     OW20037   2.888   1.846   7.764  0.4347  0.1568  0.5055
 6199SOL    HW120038   2.885   1.894   7.681  2.1384 -0.3084  0.1455
 6199SOL    HW220039   2.844   1.904   7.826 -1.6002  0.1778 -0.8394
 6200SOL     OW20040   1.500   1.758  10.033  0.0151  0.1007 -0.4421
 6200SOL    HW120041   1.495   1.714   9.948  1.8995  0.1322 -0.6046
 6200SOL    HW220042   1.589   1.793  10.037 -0.5453  1.4632  0.8924
 6201SOL     OW20043   7.690   7.371   1.770 -0.2261 -0.1431 -0.1010
 6201SOL    HW120044   7.693   7.361   1.675 -1.8942 -2.6731  0.0462
 6201SOL    HW220045   7.742   7.298   1.804  0.9970  1.1581  0.9951
 6202SOL     OW20046   6.537   6.776   7.271 -0.0564 -1.1176  0.2396
 6202SOL    HW120047   6.510   6.867   7.260  0.9419 -0.5569  2.0873
 6202SOL    HW220048   6.488   6.745   7.347 -0.6108 -2.2435 -0.5444
 6203SOL     OW20049   2.783   4.958   1.710 -0.0208 -0.0292 -0.0544
 6203SOL    HW120050   2.735   5.006   1.643 -1.4861 -0.7412  0.4462
 6203SOL    HW220051   2.765   4.865   1.691 -0.1097 -0.2521  1.0611
 6204SOL     OW20052   5.145   7.219   9.925  0.2431  0.2953  0.4423
 6204SOL    HW120053   5.063   7.229   9.973  0.2947 -0.1292  0.6221
 6204SOL    HW220054   5.213   7.245   9.987  0.4096 -1.4748  1.0491
 6205SOL     OW20055   0.677   5.420   4.678 -0.5052 -0.4645  0.0341
 6205SOL    HW120056   0.761   5.460   4.701 -1.7186  1.5584  1.2702
 6205SOL    HW220057   0.678   5.335   4.722 -0.2263  0.7316  2.5300
 6206SOL     OW20058   6.822   7.226   2.216  0.2351 -0.0696  0.1375
 6206SOL    HW120059   6.917   7.231   2.211  0.1417  2.7381 -0.2675
 6206SOL    HW220060   6.791   7.309   2.179 -2.4196 -1.2807 -0.6175
 6207SOL     OW20061   7.562   7.741   0.594  0.2587  0.3928 -0.2285
 6207SOL    HW120062   7.528   7.806   0.532  0.0905 -0.3213 -0.8966
 6207SOL    HW220063   7.656   7.760   0.599  0.8559 -1.2619 -2.9116
 6208SOL     OW20064   3.272   3.684   5.838  0.9381 -0.1060 -0.1632
 6208SOL    HW120065   3.312   3.656   5.921 -0.4251 -1.2597  0.1375
 6208SOL    HW220066   3.192   3.730   5.864 -0.3962 -1.9423 -0.8264
 6209SOL     OW20067   4.640   2.534   1.253 -0.1735 -0.4915 -0.3942
 6209SOL    HW120068   4.676   2.543   1.341  1.3943 -3.2298 -0.6380
 6209SOL    HW220069   4.715   2.509   1.199 -1.7234 -2.8246 -1.6725
 6210SOL     OW20070   7.962   7.861  12.313 -0.2186  0.1972  0.0362
 6210SOL    HW120071   8.046   7.876  12.271  0.4980  0.8293  1.6131
 6210SOL    HW220072   7.977   7.786  12.370 -0.3121  1.1537  1.3528
 6211SOL     OW20073   6.216   5.478  11.848  0.0949  0.1843 -0.1170
 6211SOL    HW120074   6.281   5.548  11.845  0.6059 -0.1657  1.6379
 6211SOL    HW220075   6.209   5.455  11.941 -1.0040 -1.2208 -0.4997
 6212SOL     OW20076   5.768   4.651   5.645 -0.5536 -0.0926  0.0809
 6212SOL    HW120077   5.728   4.611   5.569 -1.5756 -0.0985  0.6096
 6212SOL    HW220078   5.776   4.580   5.709  0.8857 -0.2361 -0.2271
 6213SOL     OW20079   2.680   5.187  11.157  0.7857 -1.0303  0.0138
 6213SOL    HW120080   2.639   5.192  11.071  1.0303 -0.3275 -0.0658
 6213SOL    HW220081   2.749   5.122  11.147  1.0463 -0.6864 -0.4182
 6214SOL     OW20082   1.266   0.997   3.664 -0.2635  0.6878 -0.4191
 6214SOL    HW120083   1.322   0.978   3.588  2.8189  2.8834  1.0666
 6214SOL    HW220084   1.213   1.072   3.637  0.8114  1.4564 -0.4638
 6215SOL     OW20085   3.703   2.768   2.965  0.0701 -0.2463 -0.0463
 6215SOL    HW120086   3.744   2.707   3.026 -0.1295 -0.5771 -0.2408
 6215SOL    HW220087   3.763   2.842   2.962  0.5971 -0.6756 -0.2410
 6216SOL     OW20088   7.608   0.029   7.916  0.6303  0.6819  0.4213
 6216SOL    HW120089   7.613   0.117   7.877 -1.0788  0.5546 -0.1543
 6216SOL    HW220090   7.521   0.025   7.955  1.5692  0.0744  2.5838
 6217SOL     OW20091   5.591   0.419  10.451  0.0179 -0.3547  0.1246
 6217SOL    HW120092   5.524   0.476  10.413  0.3066  0.7489  1.1753
 6217SOL    HW220093   5.666   0.426  10.391 -0.6758 -1.3238 -0.8729
 6218SOL     OW20094   5.584   6.720   0.463  0.2413 -0.7342 -0.8140
 6218SOL    HW120095   5.602   6.664   0.538  2.5226  1.4981  0.4704
 6218SOL    HW220096   5.634   6.681   0.391  0.3761 -1.2969 -0.4233
 6219SOL     OW20097   2.098   4.626   0.943 -0.6224  0.4812  0.1351
 6219SOL    HW120098   2.136   4.609   1.030 -0.2135 -0.7253 -0.2633
 6219SOL    HW220099   2.108   4.720   0.931  0.6087  0.4601  0.8190
 6220SOL     OW20100   0.125   5.978   4.268 -0.2942 -0.2275  0.3561
 6220SOL    HW120101   0.049   6.027   4.302  0.3626  0.8059  0.3845
 6220SOL    HW220102   0.129   5.900   4.323 -1.4779 -0.4265  0.2010
 6221SOL     OW20103   4.737   6.811   8.306 -0.3059  0.3552  0.5018
 6221SOL    HW120104   4.731   6.782   8.397  0.4132  1.4555  0.9311
 6221SOL    HW220105   4.712   6.904   8.309 -2.1629 -0.0527 -0.7430
 6222SOL     OW20106   6.214   1.864   2.542 -0.3893  0.1077  0.3866
 6222SOL    HW120107   6.251   1.793   2.595  0.1858 -0.8013 -1.1723
 6222SOL    HW220108   6.191   1.823   2.459 -1.3927  1.4658 -0.0549
 6223SOL     OW20109   7.953   1.008   7.076 -0.4540  0.1255 -0.2165
 6223SOL    HW120110   8.035   0.960   7.072 -1.3458 -1.3760 -1.8601
 6223SOL    HW220111   7.925   1.016   6.985 -2.4985 -0.1109  0.3268
 6224SOL     OW20112   0.915   7.268   3.960  0.6271 -0.3791  0.5784
 6224SOL    HW120113   0.896   7.234   3.873  2.2767 -1.0015  0.4251
 6224SOL    HW220114   0.829   7.291   3.996 -0.1415 -0.7322 -0.9448
 6225SOL     OW20115   6.129   5.811   2.505 -0.0840  0.6935 -0.1861
 6225SOL    HW120116   6.138   5.782   2.415 -0.6196 -0.5658  0.1441
 6225SOL    HW220117   6.096   5.734   2.552  1.3793  0.9375  1.3373
 6226SOL     OW20118   1.301   5.433   1.981  0.4915 -0.0457 -0.0181
 6226SOL    HW120119   1.210   5.459   1.965  0.8281  0.8794 -0.4984
 6226SOL    HW220120   1.353   5.489   1.923  1.4669  0.4372  1.2657
 6227SOL     OW20121   5.103   6.107  11.712 -0.4517 -0.2094  0.5365
 6227SOL    HW120122   5.073   6.134  11.626  0.5100  2.6210  0.9605
 6227SOL    HW220123   5.065   6.172  11.772  2.0073  0.3031  1.6887
 6228SOL     OW20124   0.886   7.705   4.193  0.1654 -0.9438  0.6750
 6228SOL    HW120125   0.910   7.707   4.100  1.0003 -0.2205  0.8829
 6228SOL    HW220126   0.936   7.633   4.230  1.5107  0.0924  0.9582
 6229SOL     OW20127   4.004   0.983  12.340  0.2444 -0.5693  0.6835
 6229SOL    HW120128   3.912   0.990  12.318  0.2750 -0.2284  0.6700
 6229SOL    HW220129   4.048   0.966  12.257  0.3429  0.5672  0.4960
 6230SOL     OW20130   4.644   4.730   6.190  0.1159 -0.0703 -0.0862
 6230SOL    HW120131   4.718   4.719   6.130  0.0606  0.3106 -0.2275
 6230SOL    HW220132   4.678   4.787   6.259  0.2586 -0.7151  0.3898
 6231SOL     OW20133   2.633   2.395   8.703 -0.5457 -0.0174  0.2040
 6231SOL    HW120134   2.668   2.353   8.624  1.1030  2.3033 -0.4248
 6231SOL    HW220135   2.700   2.382   8.769 -1.3744 -0.8998  0.8908
 6232SOL     OW20136   0.771   6.828   9.217  0.1335 -0.3464  0.0605
 6232SOL    HW120137   0.857   6.859   9.244 -0.0305  0.9563 -0.8026
 6232SOL    HW220138   0.728   6.800   9.298  0.5169  1.2216  0.8357
 6233SOL     OW20139   1.745   6.773  10.061 -0.0481 -0.0487  0.7050
 6233SOL    HW120140   1.695   6.707  10.013  0.3358  0.4838 -0.4597
 6233SOL    HW220141   1.826   6.729  10.086 -0.3359 -0.3869  1.0591
 6234SOL     OW20142   7.360   7.679   8.358  0.5378  0.1062  0.5325
 6234SOL    HW120143   7.282   7.629   8.379  0.6760  0.0951  1.0555
 6234SOL    HW220144   7.333   7.770   8.363  0.3494  0.0909 -0.1577
 6235SOL     OW20145   5.294   2.232   5.473 -0.5718  0.3256 -0.1473
 6235SOL    HW120146   5.375   2.268   5.439 -0.7610  0.6812 -0.2281
 6235SOL    HW220147   5.268   2.293   5.542 -1.6824  1.1807 -1.2905
 6236SOL     OW20148   3.786   3.948   1.152 -0.1952 -0.8362 -0.1780
 6236SOL    HW120149   3.747   3.928   1.067 -0.8607  0.0097 -0.0927
 6236SOL    HW220150   3.772   4.042   1.163 -0.7775 -1.0560  1.1884
 6237SOL     OW20151   2.171   1.141   0.518  0.0450  0.4567 -0.2203
 6237SOL    HW120152   2.223   1.221   0.522  1.4817 -0.4911  0.8960
 6237SOL    HW220153   2.154   1.119   0.610 -0.7272 -0.2973 -0.5300
 6238SOL     OW20154   5.734   2.819   2.302 -0.7950 -0.0106  0.4280
 6238SOL    HW120155   5.702   2.879   2.369  1.3689  0.1296  1.4034
 6238SOL    HW220156   5.703   2.733   2.330  0.6605 -0.0517  2.0499
 6239SOL     OW20157   1.413   3.031   1.428 -0.4937 -0.0734  0.6388
 6239SOL    HW120158   1.495   3.076   1.448 -0.5286 -0.5546  1.9100
 6239SOL    HW220159   1.423   3.005   1.336  0.9186 -0.4082  0.8568
 6240SOL     OW20160   4.637   6.420  10.712  0.0759  0.3611 -0.5492
 6240SOL    HW120161   4.587   6.494  10.678  0.1412  0.8498  0.3840
 6240SOL    HW220162   4.583   6.344  10.693 -1.3142  0.9160  0.9021
 6241SOL     OW20163   7.968   0.119   3.071  0.1125  0.0752 -0.1187
 6241SOL    HW120164   8.005   0.165   3.146  0.8670 -0.7503  0.0276
 6241SOL    HW220165   7.881   0.158   3.060 -0.8116 -1.0935  2.3814
 6242SOL     OW20166   3.562   5.718  12.122 -0.1768  0.6713  0.4190
 6242SOL    HW120167   3.546   5.698  12.030 -0.0882  0.0388  0.5328
 6242SOL    HW220168   3.477   5.743  12.156 -0.2775  0.5793  0.2390
 6243SOL     OW20169   5.172   1.590   5.128  0.0441 -0.5299 -0.0655
 6243SOL    HW120170   5.231   1.590   5.203 -1.8506  0.8439  1.5219
 6243SOL    HW220171   5.187   1.505   5.086  2.6322 -0.5126  0.6105
 6244SOL     OW20172   5.986   5.312   4.651 -0.6817  0.3240  0.5252
 6244SOL    HW120173   6.008   5.289   4.560  1.1531 -1.3958  1.3319
 6244SOL    HW220174   5.940   5.236   4.685  0.7462 -0.0457  1.7104
 6245SOL     OW20175   2.910   3.234   4.457 -0.8731 -0.0931 -0.0661
 6245SOL    HW120176   2.980   3.183   4.416 -1.1188  0.4265 -1.1826
 6245SOL    HW220177   2.915   3.212   4.550  1.3794  0.6212  0.0335
 6246SOL     OW20178   4.413   0.861   4.777 -0.0089  0.1648 -0.1839
 6246SOL    HW120179   4.358   0.919   4.725 -1.9943 -1.3265  0.1298
 6246SOL    HW220180   4.494   0.853   4.727 -0.9346  0.6683 -1.8210
 6247SOL     OW20181   0.701   2.040   9.445 -0.3606 -0.2188 -0.1927
 6247SOL    HW120182   0.683   1.977   9.376 -1.2274 -0.2668  0.0721
 6247SOL    HW220183   0.717   1.987   9.523 -1.3507 -0.1137  0.0902
 6248SOL     OW20184   0.704   7.166   0.728  0.3574 -0.2600  0.3413
 6248SOL    HW120185   0.768   7.104   0.764  1.8435  1.2396  0.3831
 6248SOL    HW220186   0.620   7.134   0.761  1.0673 -2.1870  0.4371
 6249SOL     OW20187   0.319   3.106   2.044 -0.1457  0.1498 -0.3533
 6249SOL    HW120188   0.278   3.147   1.968 -2.9446  0.7307  1.3404
 6249SOL    HW220189   0.312   3.172   2.114 -0.8573 -1.5912  1.3049
 6250SOL     OW20190   3.464   6.814   4.020 -0.5639  0.7169  0.3025
 6250SOL    HW120191   3.410   6.770   4.085 -1.7298  1.2224 -0.2983
 6250SOL    HW220192   3.403   6.839   3.951  0.6420  0.1371 -1.0296
 6251SOL     OW20193   2.848   3.618   9.692  0.4241  0.0388 -0.0894
 6251SOL    HW120194   2.939   3.589   9.683  0.5325  0.2308  0.3532
 6251SOL    HW220195   2.846   3.666   9.775  0.1271  0.8402 -0.5468
 6252SOL     OW20196   7.880   3.113  11.032  0.6156  0.2752  0.1814
 6252SOL    HW120197   7.804   3.067  11.067  0.3290  1.9439  1.9613
 6252SOL    HW220198   7.852   3.144  10.946  0.4230 -1.7996 -0.5389
 6253SOL     OW20199   2.403   4.924  12.286  0.0418 -0.3978  0.2891
 6253SOL    HW120200   2.443   4.855  12.233 -0.1252 -0.5335  0.3396
 6253SOL    HW220201   2.476   4.968  12.328  0.3414  0.8908 -1.4773
 6254SOL     OW20202   0.044   3.439   8.095  0.4510  0.1313 -0.3801
 6254SOL    HW120203   0.139   3.435   8.102  0.9496  0.4758 -4.3906
 6254SOL    HW220204   0.018   3.349   8.077  0.0918  0.1329  0.1246
 6255SOL     OW20205   1.667   5.545   1.251  0.1819 -0.2520 -0.0969
 6255SOL    HW120206   1.676   5.558   1.156  0.6460 -1.7606 -0.2848
 6255SOL    HW220207   1.757   5.544   1.283  0.0031  0.8633  0.4609
 6256SOL     OW20208   3.657   5.985   5.979 -0.2693 -0.3513  0.4299
 6256SOL    HW120209   3.566   5.969   5.953 -0.4134  0.7638  0.1988
 6256SOL    HW220210   3.674   5.920   6.047 -0.7703 -1.5187 -0.5119
 6257SOL     OW20211   7.569   7.543   2.875 -0.6090  0.4400 -0.0720
 6257SOL    HW120212   7.576   7.530   2.970 -1.8755  0.3742  0.0379
 6257SOL    HW220213   7.509   7.617   2.866 -0.7194  0.2636 -0.8295
 6258SOL     OW20214   4.371   1.945   0.871  0.0631  0.1862 -0.0529
 6258SOL    HW120215   4.370   1.929   0.776 -1.9699 -0.5060  0.0545
 6258SOL    HW220216   4.406   1.865   0.909  0.8563  0.4551 -0.1805
 6259SOL     OW20217   3.288   4.599   3.605 -0.6429  0.0621 -0.4658
 6259SOL    HW120218   3.220   4.656   3.569  0.1716 -0.1674 -2.4300
 6259SOL    HW220219   3.367   4.653   3.607 -0.8232  0.3849  1.9759
 6260SOL     OW20220   5.510   0.485  10.001  0.5100 -0.1646 -0.0979
 6260SOL    HW120221   5.476   0.417  10.059 -1.2683 -0.9081 -1.8747
 6260SOL    HW220222   5.443   0.553  10.004  0.0319 -0.5215 -1.7464
 6261SOL     OW20223   1.067   6.206   0.811 -0.5718  1.0355 -0.1120
 6261SOL    HW120224   1.087   6.112   0.811 -0.5140  1.0430  0.3472
 6261SOL    HW220225   1.038   6.225   0.722 -3.6074 -0.0458  0.5553
 6262SOL     OW20226   0.432   7.291  10.959  0.1660 -0.2952  0.3437
 6262SOL    HW120227   0.415   7.198  10.944 -0.3512 -0.0623 -0.5837
 6262SOL    HW220228   0.502   7.313  10.898  0.1992 -0.0496  0.4684
 6263SOL     OW20229   2.613   5.278  11.623 -0.1284 -0.1295 -0.1807
 6263SOL    HW120230   2.585   5.225  11.548  2.3284 -0.9966 -0.5735
 6263SOL    HW220231   2.541   5.341  11.635 -1.6192 -1.3901 -1.8178
 6264SOL     OW20232   4.335   2.203  12.279 -0.1001 -0.3806 -0.3165
 6264SOL    HW120233   4.249   2.181  12.244  0.6178 -2.0097 -1.1565
 6264SOL    HW220234   4.330   2.297  12.297 -1.9929 -0.4149 -0.4556
 6265SOL     OW20235   4.405   1.729   6.230  0.3625  0.5569 -0.9053
 6265SOL    HW120236   4.493   1.738   6.267 -0.3853  1.0648  0.8211
 6265SOL    HW220237   4.365   1.815   6.240 -0.5239  0.1911 -1.1931
 6266SOL     OW20238   2.540   1.969  10.314  0.0285 -0.0678  0.1509
 6266SOL    HW120239   2.536   2.057  10.276  1.6902 -0.9819 -2.4177
 6266SOL    HW220240   2.625   1.964  10.356 -0.2549 -0.3062  0.7083
 6267SOL     OW20241   1.569   7.943   6.387  0.4226 -0.0059  0.1331
 6267SOL    HW120242   1.543   8.012   6.326  0.1390 -1.3294 -1.3269
 6267SOL    HW220243   1.501   7.876   6.378  0.2598 -0.1473  2.1080
 6268SOL     OW20244   6.915   0.130   3.165 -0.4596  0.5134  0.0486
 6268SOL    HW120245   6.824   0.153   3.184 -0.9705 -0.4493 -1.1226
 6268SOL    HW220246   6.945   0.196   3.102 -1.1926 -0.6281 -1.5461
 6269SOL     OW20247   7.873   3.170   4.545 -0.2784  0.1820 -0.4335
 6269SOL    HW120248   7.869   3.192   4.638  1.4982  1.9598 -0.7204
 6269SOL    HW220249   7.798   3.214   4.506  0.0853  1.0776 -0.1322
 6270SOL     OW20250   0.689   2.956   6.261  0.2542 -0.1667 -0.1044
 6270SOL    HW120251   0.676   3.016   6.187  2.5100 -1.7197 -1.9401
 6270SOL    HW220252   0.630   2.882   6.242 -0.4168  0.1882  0.5880
 6271SOL     OW20253   6.239   7.833  10.572  0.3017  0.2739  0.2030
 6271SOL    HW120254   6.191   7.787  10.640  1.0064 -1.7252 -0.5958
 6271SOL    HW220255   6.304   7.770  10.541  1.9874  2.1289 -0.2816
 6272SOL     OW20256   7.898   6.888   5.269  0.0381 -0.5201 -0.1839
 6272SOL    HW120257   7.914   6.927   5.183 -1.0562 -1.3440 -0.7824
 6272SOL    HW220258   7.871   6.799   5.250  1.6112 -1.3330  1.1169
 6273SOL     OW20259   5.961   7.327   3.665  0.2720 -0.6812  0.7172
 6273SOL    HW120260   5.919   7.348   3.582  0.1181 -0.7970  0.7655
 6273SOL    HW220261   5.972   7.232   3.662  0.0116 -0.7195  0.9490
 6274SOL     OW20262   3.794   2.141   3.093  0.4215 -0.2482  0.1410
 6274SOL    HW120263   3.771   2.105   3.007  0.6952 -0.5853  0.2071
 6274SOL    HW220264   3.789   2.065   3.152  0.8799 -0.1492  0.3048
 6275SOL     OW20265   5.622   3.693   6.124 -0.1694 -0.0917  0.3486
 6275SOL    HW120266   5.621   3.608   6.081 -0.1148 -0.2330  0.6208
 6275SOL    HW220267   5.548   3.689   6.185 -1.0140  0.5708 -0.6206
 6276SOL     OW20268   0.614   3.294   2.446  0.1767  0.4408 -0.1582
 6276SOL    HW120269   0.551   3.366   2.439 -1.9744 -1.3476 -0.1943
 6276SOL    HW220270   0.665   3.300   2.365  0.5031  2.2754  0.1260
 6277SOL     OW20271   5.114   7.441   1.985 -0.2970  0.4995  0.4684
 6277SOL    HW120272   5.040   7.402   1.938  0.2936  0.2324 -0.2666
 6277SOL    HW220273   5.157   7.497   1.920 -1.0741  2.3739  1.4656
 6278SOL     OW20274   5.838   2.758   5.427  0.4793 -0.3243  0.4024
 6278SOL    HW120275   5.821   2.848   5.454  0.5724 -0.0790 -0.3221
 6278SOL    HW220276   5.854   2.710   5.508  1.8553  0.6172  0.7305
 6279SOL     OW20277   6.280   0.149   9.194  0.2190 -0.0813 -0.0178
 6279SOL    HW120278   6.336   0.092   9.247 -0.5040  0.3361  1.2476
 6279SOL    HW220279   6.202   0.162   9.248 -0.2599  0.9154 -0.9181
 6280SOL     OW20280   1.921   2.725   5.322  0.3040 -0.0057 -0.2203
 6280SOL    HW120281   1.991   2.692   5.265  0.9333  1.4557 -0.3346
 6280SOL    HW220282   1.945   2.816   5.338  1.1563 -0.7404  3.8540
 6281SOL     OW20283   4.705   1.792   6.034  0.3899  0.0450  0.0924
 6281SOL    HW120284   4.720   1.883   6.057 -0.1356  0.3518 -0.7363
 6281SOL    HW220285   4.731   1.786   5.942 -1.3410 -0.1849 -0.4169
 6282SOL     OW20286   7.470   2.376   3.580  0.1394  0.3150 -0.1394
 6282SOL    HW120287   7.538   2.310   3.570  1.3658  1.3491  1.0436
 6282SOL    HW220288   7.475   2.403   3.672 -0.2263  2.1404 -0.6080
 6283SOL     OW20289   2.955   1.730   3.747 -0.3396 -0.2239  0.2746
 6283SOL    HW120290   3.007   1.657   3.783 -0.6413 -2.1060 -2.7826
 6283SOL    HW220291   3.020   1.796   3.723  0.0919 -0.2075  1.3964
 6284SOL     OW20292   4.075   1.973   8.967  0.0764  0.4635  0.2241
 6284SOL    HW120293   4.040   1.943   8.883 -0.6396  1.3217  0.2085
 6284SOL    HW220294   4.051   1.903   9.028 -1.6291  0.9843  0.1996
 6285SOL     OW20295   1.487   7.119   5.700  0.2944  0.5258  0.5519
 6285SOL    HW120296   1.512   7.073   5.780  0.3548  0.4187  0.4731
 6285SOL    HW220297   1.431   7.191   5.729 -0.3684 -0.0087  0.6228
 6286SOL     OW20298   0.527   0.632  10.356  0.0449  0.1330  0.0940
 6286SOL    HW120299   0.493   0.721  10.344 -1.3345 -0.3717  0.0410
 6286SOL    HW220300   0.491   0.604  10.440 -1.9261 -1.3578 -1.1484
 6287SOL     OW20301   7.423   7.028  10.128 -0.6102 -0.0503  0.2920
 6287SOL    HW120302   7.514   7.054  10.144 -0.5503 -0.2471  0.2645
 6287SOL    HW220303   7.425   6.933  10.123 -0.8998 -0.0831  0.7822
 6288SOL     OW20304   2.627   2.607   6.537  0.2255  0.4219 -0.1906
 6288SOL    HW120305   2.655   2.519   6.562 -0.2617  0.0657 -0.8811
 6288SOL    HW220306   2.560   2.630   6.601 -0.2304 -0.0439 -0.4939
 6289SOL     OW20307   5.120   1.941   6.121 -0.7636  0.0183 -0.2927
 6289SOL    HW120308   5.066   1.992   6.181 -0.8970  1.2377 -1.4212
 6289SOL    HW220309   5.121   1.991   6.040  1.0025 -0.6327 -0.7187
 6290SOL     OW20310   5.780   2.564   7.141  0.1367 -0.0879  0.2806
 6290SOL    HW120311   5.702   2.567   7.086 -0.0974 -2.7002  0.3214
 6290SOL    HW220312   5.853   2.569   7.080 -0.1198 -2.8442 -0.4201
 6291SOL     OW20313   3.464   2.704   9.715  0.5410 -0.6027 -0.0481
 6291SOL    HW120314   3.533   2.667   9.659 -0.0387  0.5181 -1.5427
 6291SOL    HW220315   3.412   2.759   9.657 -0.2024  0.4739  1.5662
 6292SOL     OW20316   6.848   4.330   0.803 -0.2037  0.0699 -0.2459
 6292SOL    HW120317   6.786   4.393   0.839  0.6054  0.5124  0.4004
 6292SOL    HW220318   6.818   4.245   0.836 -0.6982  0.2257 -0.2819
 6293SOL     OW20319   0.852   5.245   2.524 -0.1795 -0.2133 -0.5301
 6293SOL    HW120320   0.916   5.214   2.460 -0.6674 -0.5250 -0.8770
 6293SOL    HW220321   0.878   5.335   2.543  0.0858 -0.1854 -1.0186
 6294SOL     OW20322   7.616   6.163   9.491 -0.2839  0.2525  0.1337
 6294SOL    HW120323   7.586   6.168   9.400  1.6689 -2.1941 -0.7495
 6294SOL    HW220324   7.536   6.149   9.542 -1.3315  0.8495 -1.2768
 6295SOL     OW20325   3.521   2.195   1.266  0.1502  0.4079  0.2086
 6295SOL    HW120326   3.434   2.225   1.239  0.1392 -0.3462 -0.6676
 6295SOL    HW220327   3.578   2.222   1.194  0.8897  1.9949  1.3399
 6296SOL     OW20328   1.606   4.162  11.992 -0.3240 -0.5913 -0.7911
 6296SOL    HW120329   1.680   4.120  12.035 -0.2927 -0.2867 -0.5468
 6296SOL    HW220330   1.631   4.166  11.900  0.4446  0.5053 -0.5553
 6297SOL     OW20331   4.362   6.918   0.070 -0.0614 -0.4548  0.4432
 6297SOL    HW120332   4.360   6.985   0.138 -1.2222 -1.3307  1.3167
 6297SOL    HW220333   4.281   6.869   0.083 -0.3773 -0.5533 -1.6836
 6298SOL     OW20334   6.922   7.246   0.515 -0.0068  0.2906 -0.0271
 6298SOL    HW120335   6.990   7.313   0.506  1.5042 -1.2541 -0.7455
 6298SOL    HW220336   6.860   7.283   0.577 -0.0244  2.9482 -1.4564
 6299SOL     OW20337   4.430   6.081   2.091  0.9318  0.0490 -0.7007
 6299SOL    HW120338   4.364   6.137   2.131  0.8982 -1.8430  2.1913
 6299SOL    HW220339   4.453   6.126   2.010 -2.6340  1.6657 -1.0394
 6300SOL     OW20340   4.460   7.069   7.986 -0.2181 -0.4728  0.4218
 6300SOL    HW120341   4.473   6.983   8.024  0.1066 -0.5429  0.1561
 6300SOL    HW220342   4.372   7.095   8.014 -0.4093 -0.9869  0.3126
 6301SOL     OW20343   0.631   4.019   7.473 -0.4231 -0.0655  0.1764
 6301SOL    HW120344   0.612   3.998   7.565 -0.5211 -0.2921  0.1043
 6301SOL    HW220345   0.559   3.980   7.424 -1.5263  1.8588  0.1654
 6302SOL     OW20346   3.433   1.550  11.352 -0.2975  0.0524 -0.3494
 6302SOL    HW120347   3.496   1.478  11.344 -0.0295  0.0554  1.4652
 6302SOL    HW220348   3.486   1.629  11.340 -0.2205  0.0166 -0.2420
 6303SOL     OW20349   3.761   3.986   9.312  0.6340 -0.4930  0.1626
 6303SOL    HW120350   3.721   3.919   9.257  2.8368  0.0981 -2.3775
 6303SOL    HW220351   3.728   4.069   9.277  0.0805 -0.1256  1.4784
 6304SOL     OW20352   7.036   6.785  12.219 -0.5424  0.3438  0.3781
 6304SOL    HW120353   7.071   6.704  12.181 -0.6887 -0.6105  2.2128
 6304SOL    HW220354   7.034   6.846  12.145  0.3824 -1.0480 -0.8602
 6305SOL     OW20355   2.598   2.091   5.363 -0.3406 -0.0591 -0.1175
 6305SOL    HW120356   2.609   2.052   5.276  0.3380 -0.5474  0.1813
 6305SOL    HW220357   2.639   2.028   5.423 -0.7275  0.3110  0.5527
 6306SOL     OW20358   6.960   1.112   9.574  0.4340  0.4569  0.1225
 6306SOL    HW120359   6.952   1.141   9.483  2.6932  1.5966  0.2220
 6306SOL    HW220360   6.901   1.169   9.623  1.3858  1.8563 -0.2920
 6307SOL     OW20361   0.497   2.732   6.283  0.0321 -0.2141  0.0462
 6307SOL    HW120362   0.534   2.654   6.243 -0.7812 -0.8112  0.4175
 6307SOL    HW220363   0.452   2.700   6.362 -0.6517  0.5660 -0.0046
 6308SOL     OW20364   5.450   7.407   2.935 -0.6722  0.0114 -0.3072
 6308SOL    HW120365   5.462   7.314   2.954 -3.4599 -0.4200 -0.2079
 6308SOL    HW220366   5.437   7.411   2.840 -1.4632  0.1356 -0.2043
 6309SOL     OW20367   3.093   2.779  11.114  0.3539  0.5981  0.1580
 6309SOL    HW120368   3.021   2.827  11.154 -0.4662  0.9957 -1.6824
 6309SOL    HW220369   3.155   2.846  11.085 -1.1246  0.7636 -3.0551
 6310SOL     OW20370   5.678   1.145   4.089  0.3046 -0.1417 -0.4138
 6310SOL    HW120371   5.623   1.174   4.161  2.1275  1.0053  0.6033
 6310SOL    HW220372   5.741   1.216   4.077  1.7605 -1.5123 -1.2913
 6311SOL     OW20373   2.232   0.081   3.218  0.3899  0.2893 -0.1771
 6311SOL    HW120374   2.151   0.050   3.178 -0.2391 -0.2917  1.4774
 6311SOL    HW220375   2.279   0.124   3.146 -1.0259 -0.0230 -1.3381
 6312SOL     OW20376   7.327   1.073   0.609 -0.3568 -0.9847  0.1476
 6312SOL    HW120377   7.269   1.096   0.536  0.3491  0.5487  0.0180
 6312SOL    HW220378   7.348   1.157   0.650  1.1158 -1.5814  0.6806
 6313SOL     OW20379   3.480   4.508   9.046 -0.4261  0.0497  0.2346
 6313SOL    HW120380   3.450   4.542   9.131 -1.2947 -2.7981  1.1825
 6313SOL    HW220381   3.570   4.478   9.063 -0.0808  0.7572 -0.2806
 6314SOL     OW20382   3.767   6.310   4.179  0.2615  0.2962 -0.0167
 6314SOL    HW120383   3.789   6.280   4.091 -0.3286 -0.0120 -0.0660
 6314SOL    HW220384   3.682   6.270   4.197 -0.0633  1.1122  0.3253
 6315SOL     OW20385   0.049   2.679   7.053 -0.0978  0.3601 -0.5555
 6315SOL    HW120386   0.040   2.587   7.079  0.1525  0.6645  0.6517
 6315SOL    HW220387   0.107   2.718   7.118 -0.0469  1.3398 -1.1577
 6316SOL     OW20388   7.140   1.685  10.668 -0.0281  0.1495  0.1111
 6316SOL    HW120389   7.078   1.744  10.624 -0.6101 -0.6947 -0.2120
 6316SOL    HW220390   7.190   1.743  10.726 -0.5024  0.9864 -0.2914
 6317SOL     OW20391   3.295   2.017   3.408 -0.5235  0.2324 -0.6457
 6317SOL    HW120392   3.364   1.954   3.430 -0.6454  0.0457 -0.7911
 6317SOL    HW220393   3.332   2.102   3.430 -0.6553  0.0542  0.3383
 6318SOL     OW20394   5.216   3.671   2.150 -0.2840 -0.1009  0.1392
 6318SOL    HW120395   5.242   3.618   2.075  0.2112 -0.1291  0.3205
 6318SOL    HW220396   5.286   3.736   2.159 -1.5870  1.5507 -0.9670
 6319SOL     OW20397   4.502   0.381   6.656  0.8596 -0.0169 -0.3952
 6319SOL    HW120398   4.505   0.311   6.721  1.9336 -0.8359 -1.2624
 6319SOL    HW220399   4.410   0.405   6.650  0.6233 -0.5791  0.7316
 6320SOL     OW20400   6.739   2.539   0.283 -0.0065 -0.5603  0.0517
 6320SOL    HW120401   6.670   2.585   0.329  0.1345 -1.0312  0.7597
 6320SOL    HW220402   6.739   2.576   0.195 -1.2146 -0.6150  0.0132
 6321SOL     OW20403   7.042   3.221   5.077 -0.1239  0.3001  0.0564
 6321SOL    HW120404   6.990   3.261   5.007  0.3745  1.7411  0.4822
 6321SOL    HW220405   7.128   3.207   5.038 -0.1918 -0.0370  0.0216
 6322SOL     OW20406   0.519   1.055   1.731 -0.5282  0.0799 -0.2810
 6322SOL    HW120407   0.602   1.097   1.752 -2.0312  1.9771  2.4330
 6322SOL    HW220408   0.544   0.979   1.678  2.7613  1.3685 -0.8573
 6323SOL     OW20409   3.293   2.487   6.434  0.1148  0.6197  0.1498
 6323SOL    HW120410   3.249   2.496   6.350  0.7399 -1.2084 -0.4268
 6323SOL    HW220411   3.360   2.556   6.434  0.8571 -0.0424 -1.3872
 6324SOL     OW20412   3.759   4.937   6.474  0.1910 -0.7386 -0.0407
 6324SOL    HW120413   3.780   4.955   6.565  2.2576  0.1398 -0.6275
 6324SOL    HW220414   3.810   4.859   6.452 -1.1044 -1.5666 -0.1900
 6325SOL     OW20415   2.225   7.586   3.663 -0.4262 -0.5621 -0.3427
 6325SOL    HW120416   2.168   7.514   3.690 -2.1086 -0.6846 -3.7321
 6325SOL    HW220417   2.262   7.557   3.579  1.6194  1.1323 -0.1046
 6326SOL     OW20418   7.538   7.591   7.769  0.1015 -0.3937  0.1166
 6326SOL    HW120419   7.541   7.572   7.863 -1.7413 -0.5803  0.1807
 6326SOL    HW220420   7.464   7.539   7.737  0.2625  0.2129 -1.3021
 6327SOL     OW20421   0.174   6.588   4.469  0.3524  0.6466 -0.1131
 6327SOL    HW120422   0.262   6.608   4.437  0.4548  0.9657  0.3555
 6327SOL    HW220423   0.136   6.673   4.489 -0.0825  0.5125 -0.3524
 6328SOL     OW20424   4.218   6.908   7.937 -0.6097 -0.0504  0.2998
 6328SOL    HW120425   4.181   6.995   7.950 -0.0821  0.0115  1.5465
 6328SOL    HW220426   4.203   6.863   8.021 -0.6491 -1.0714 -0.2358
 6329SOL     OW20427   2.318   4.091   3.136  0.1973 -0.0461 -0.3068
 6329SOL    HW120428   2.321   4.079   3.230  0.8193 -0.3347 -0.3579
 6329SOL    HW220429   2.303   4.003   3.101 -0.3455  0.1029 -0.4699
 6330SOL     OW20430   1.841   4.229   9.981 -0.5604 -0.2473 -0.0772
 6330SOL    HW120431   1.823   4.198  10.070 -3.8080 -0.9048 -0.8602
 6330SOL    HW220432   1.799   4.314   9.976  0.3292  0.1708 -0.7879
 6331SOL     OW20433   1.370   1.313  12.371  0.3453  0.3540  0.2884
 6331SOL    HW120434   1.301   1.270  12.321  0.7578 -0.1183  0.1080
 6331SOL    HW220435   1.392   1.250  12.440  0.0319  0.8490  0.8445
 6332SOL     OW20436   0.215   7.973  10.271  0.4223  0.0945  0.0064
 6332SOL    HW120437   0.253   8.016  10.348  0.1103 -0.2474  0.3590
 6332SOL    HW220438   0.271   8.000  10.198  1.9004 -1.1069  0.6357
 6333SOL     OW20439   1.253   3.910   6.315 -0.2999  0.0282 -0.2991
 6333SOL    HW120440   1.245   3.815   6.307  1.0297 -0.0313 -1.1459
 6333SOL    HW220441   1.284   3.939   6.230  0.6420  1.0641  0.3638
 6334SOL     OW20442   2.380   4.325   9.632 -1.1588 -0.0687 -0.2442
 6334SOL    HW120443   2.438   4.354   9.562 -1.6997 -1.3304 -1.2479
 6334SOL    HW220444   2.386   4.229   9.631 -2.9453 -0.2223 -0.1393
 6335SOL     OW20445   4.852   1.515   1.316 -0.1163  0.3630 -0.3087
 6335SOL    HW120446   4.783   1.460   1.278  0.5363 -0.6889 -0.0036
 6335SOL    HW220447   4.806   1.593   1.346 -0.9755  0.2618 -1.2998
 6336SOL     OW20448   0.982   2.965   2.991  0.5293 -0.4540  0.0102
 6336SOL    HW120449   0.985   2.876   2.955 -1.3720 -0.4388 -0.3021
 6336SOL    HW220450   0.904   2.964   3.047  1.1155  0.7171  0.8733
 6337SOL     OW20451   4.958   1.513   6.021 -0.5278 -0.0203 -0.0975
 6337SOL    HW120452   5.017   1.470   5.960 -1.1267  1.2752 -1.6644
 6337SOL    HW220453   4.950   1.603   5.988 -1.8896  0.3623  1.1372
 6338SOL     OW20454   5.868   5.720   1.397  0.0052  0.5005 -0.2894
 6338SOL    HW120455   5.794   5.774   1.369 -0.2970  0.2879  0.0739
 6338SOL    HW220456   5.915   5.700   1.317 -0.0380  1.0674 -0.4614
 6339SOL     OW20457   2.603   4.053   7.648 -0.8158  0.6565 -0.6577
 6339SOL    HW120458   2.600   4.022   7.557 -0.9897  0.9186 -0.7417
 6339SOL    HW220459   2.695   4.074   7.663 -0.7098  0.1892 -0.6299
 6340SOL     OW20460   1.522   6.557   1.107 -0.4255  0.0017  0.5975
 6340SOL    HW120461   1.548   6.501   1.033 -0.8791  0.1130  0.3508
 6340SOL    HW220462   1.583   6.631   1.103  0.3309 -0.5761  1.0652
 6341SOL     OW20463   3.584   6.326   5.885  0.0492 -0.2604  0.5772
 6341SOL    HW120464   3.629   6.326   5.969 -0.8310  0.1278  1.0568
 6341SOL    HW220465   3.649   6.292   5.823  0.4648 -1.2454  1.5251
 6342SOL     OW20466   4.814   6.881   4.251 -0.2019  0.5844 -0.5148
 6342SOL    HW120467   4.777   6.799   4.218 -1.0078  0.8499 -0.3132
 6342SOL    HW220468   4.833   6.864   4.343 -1.7872  1.0515 -0.0668
 6343SOL     OW20469   2.959   2.950  11.304  0.2406 -1.0355 -0.0495
 6343SOL    HW120470   2.930   3.030  11.348  1.0312  0.5020 -2.2051
 6343SOL    HW220471   2.927   2.879  11.361  2.4033  0.7334  3.8227
 6344SOL     OW20472   4.831   2.588   7.398  0.3103  0.1015 -0.0135
 6344SOL    HW120473   4.811   2.495   7.383 -0.0449  0.2873 -0.7465
 6344SOL    HW220474   4.826   2.599   7.493  0.7509 -0.7166  0.1205
 6345SOL     OW20475   1.402   1.018   1.453 -0.0908 -0.2321  0.5200
 6345SOL    HW120476   1.320   1.012   1.502 -1.9176 -2.4145 -2.4040
 6345SOL    HW220477   1.462   0.960   1.499 -2.0367 -2.9933 -0.1093
 6346SOL     OW20478   5.731   2.240   7.544  0.2519 -0.2255  0.1048
 6346SOL    HW120479   5.803   2.274   7.491  0.4055 -1.8126 -0.7475
 6346SOL    HW220480   5.689   2.174   7.489 -1.1864 -0.1075  1.0023
 6347SOL     OW20481   5.714   2.741   0.739  0.0892 -0.7051 -0.2282
 6347SOL    HW120482   5.725   2.647   0.730 -1.0636 -0.9462  0.6878
 6347SOL    HW220483   5.622   2.757   0.719  0.6109  0.4637 -2.0115
 6348SOL     OW20484   0.176   4.619  10.424  0.0193 -0.7119 -0.0499
 6348SOL    HW120485   0.176   4.630  10.519  0.3627 -0.3948 -0.0872
 6348SOL    HW220486   0.166   4.707  10.389 -0.6504 -0.8824 -0.3043
 6349SOL     OW20487   2.447   7.797   7.047  0.0478 -1.0585  0.8463
 6349SOL    HW120488   2.491   7.881   7.059 -0.0874 -0.9623  0.6880
 6349SOL    HW220489   2.382   7.815   6.979  0.1201 -1.3289  0.7056
 6350SOL     OW20490   1.619   3.790   6.307  0.2240  0.4682 -0.0994
 6350SOL    HW120491   1.574   3.708   6.288  1.2648 -0.2914  0.6375
 6350SOL    HW220492   1.623   3.795   6.402  0.6103  1.1196 -0.1397
 6351SOL     OW20493   6.491   0.922   3.008 -0.5843 -0.3851 -0.2659
 6351SOL    HW120494   6.576   0.879   3.018 -0.8000 -1.0769 -1.3098
 6351SOL    HW220495   6.501   1.004   3.056  1.5037  0.6681 -2.2928
 6352SOL     OW20496   3.375   0.348   2.625 -0.8225  0.1307 -0.1319
 6352SOL    HW120497   3.360   0.420   2.564 -1.2311  1.5552  1.5570
 6352SOL    HW220498   3.441   0.382   2.686 -0.1346 -1.3838 -0.0020
 6353SOL     OW20499   7.879   5.944   2.353 -0.2221  0.3689  0.2910
 6353SOL    HW120500   7.850   5.891   2.427 -2.1335  0.5423 -0.2981
 6353SOL    HW220501   7.884   5.884   2.280 -1.9792  0.8695 -0.2790
 6354SOL     OW20502   3.084   1.256   8.119  1.1149  0.0190 -0.6411
 6354SOL    HW120503   3.056   1.326   8.061  0.3874  0.1976 -0.0832
 6354SOL    HW220504   3.147   1.298   8.178  0.6084  0.2290 -0.2465
 6355SOL     OW20505   6.764   7.114   4.106  0.0494  0.5473  0.5694
 6355SOL    HW120506   6.679   7.078   4.079  0.1448  0.0605  0.9042
 6355SOL    HW220507   6.809   7.132   4.023  0.3751 -1.0156  0.3628
 6356SOL     OW20508   0.434   0.832   0.400  0.4723  0.2049  0.1347
 6356SOL    HW120509   0.468   0.764   0.342 -0.0567  1.4379 -1.7219
 6356SOL    HW220510   0.511   0.878   0.432  0.7530 -0.1335 -0.0550
 6357SOL     OW20511   5.663   1.980   6.250 -0.4288  0.0537 -0.1052
 6357SOL    HW120512   5.606   2.048   6.214  0.1346  1.5406  1.6441
 6357SOL    HW220513   5.622   1.957   6.333  0.6370 -0.0516  0.4026
 6358SOL     OW20514   4.537   1.486  10.910  0.3149 -0.3200 -0.4935
 6358SOL    HW120515   4.548   1.577  10.939  0.5312 -1.0332  1.9198
 6358SOL    HW220516   4.626   1.457  10.888  0.4596 -0.3411  0.0951
 6359SOL     OW20517   7.258   3.978  10.854  0.0069  0.4049  0.0379
 6359SOL    HW120518   7.201   3.928  10.913 -1.4791  0.7664 -1.0332
 6359SOL    HW220519   7.339   3.928  10.851 -1.2660 -1.7517 -0.6738
 6360SOL     OW20520   7.073   3.057   2.865  0.2122  0.0435  0.4342
 6360SOL    HW120521   7.059   3.004   2.786 -1.1429  0.2548  0.5079
 6360SOL    HW220522   7.052   2.997   2.937 -0.6756  0.4681  0.5412
 6361SOL     OW20523   3.583   3.660   3.030  0.1646  0.4817 -0.1160
 6361SOL    HW120524   3.506   3.606   3.045  0.5731 -0.5891 -1.5517
 6361SOL    HW220525   3.555   3.723   2.963 -0.0357  1.4478  0.8612
 6362SOL     OW20526   5.737   6.322   0.416 -0.5327  0.1341  0.5232
 6362SOL    HW120527   5.702   6.332   0.504 -0.4588  0.5883  0.5017
 6362SOL    HW220528   5.737   6.411   0.380  0.8257  0.1796  0.5832
 6363SOL     OW20529   5.056   7.369  11.503  0.1265 -0.3778  0.6630
 6363SOL    HW120530   5.106   7.390  11.425  0.3089 -0.5984  0.7214
 6363SOL    HW220531   5.033   7.277  11.493  1.5473 -0.8738  1.6305
 6364SOL     OW20532   7.289   6.621   3.216  1.1422  0.3273 -0.0903
 6364SOL    HW120533   7.212   6.662   3.255  1.0779  1.2939 -1.1776
 6364SOL    HW220534   7.268   6.528   3.213  1.0675  0.2331  1.9443
 6365SOL     OW20535   3.157   6.692   6.018  0.5971  0.3348  0.3006
 6365SOL    HW120536   3.187   6.695   5.927 -0.5329  0.8200 -0.0750
 6365SOL    HW220537   3.186   6.775   6.056  0.0973  0.6367  0.0435
 6366SOL     OW20538   6.201   3.175   3.366 -0.3802 -0.0773 -0.1280
 6366SOL    HW120539   6.179   3.254   3.316  0.1718  0.1751  0.0085
 6366SOL    HW220540   6.211   3.206   3.456  0.8802 -0.0832 -0.2400
 6367SOL     OW20541   4.224   6.418   1.671 -0.0906 -0.4818 -0.4979
 6367SOL    HW120542   4.187   6.410   1.759  0.5452 -0.3972 -0.2169
 6367SOL    HW220543   4.269   6.502   1.672  1.0296 -1.0723 -0.4762
 6368SOL     OW20544   3.727   0.879   7.361  0.6690  0.4457 -0.0142
 6368SOL    HW120545   3.707   0.898   7.269  0.6806 -2.0636 -0.6125
 6368SOL    HW220546   3.650   0.832   7.393  1.1568  0.2633  0.9215
 6369SOL     OW20547   6.653   7.356   4.984 -0.2465 -0.1870  0.1824
 6369SOL    HW120548   6.736   7.310   4.971 -0.7291 -1.1168  0.2850
 6369SOL    HW220549   6.586   7.293   4.958 -1.0041 -0.1728  1.9185
 6370SOL     OW20550   0.737   4.010  12.172 -0.5968 -0.0156  0.0206
 6370SOL    HW120551   0.790   4.018  12.252 -0.2904  0.6691 -0.2442
 6370SOL    HW220552   0.656   4.056  12.192  0.0917  1.5461 -0.5705
 6371SOL     OW20553   7.797   7.566   4.703  0.0034  0.1112  0.0093
 6371SOL    HW120554   7.874   7.578   4.647 -0.6513 -0.2705 -1.0097
 6371SOL    HW220555   7.758   7.485   4.672  0.4991 -1.0119  2.1214
 6372SOL     OW20556   2.153   1.097  11.989  0.3991  0.0461  0.2122
 6372SOL    HW120557   2.134   1.097  12.083 -0.9239  1.4678 -0.0167
 6372SOL    HW220558   2.216   1.169  11.977  0.9124 -0.4183  0.0486
 6373SOL     OW20559   7.271   3.700  11.037  0.2947  0.3083  0.2121
 6373SOL    HW120560   7.300   3.778  11.085 -0.0680  0.7801 -0.3112
 6373SOL    HW220561   7.194   3.670  11.086  0.2509  0.4683  0.2450
 6374SOL     OW20562   1.843   2.109   3.653 -0.3831 -1.1487 -0.1517
 6374SOL    HW120563   1.903   2.131   3.582 -0.4013  1.4335  0.4946
 6374SOL    HW220564   1.775   2.057   3.612  0.4855 -1.1593 -1.6616
 6375SOL     OW20565   0.128   1.132   2.035 -0.2559  0.2822 -0.2490
 6375SOL    HW120566   0.175   1.165   1.958 -1.9611  0.5006 -1.2328
 6375SOL    HW220567   0.173   1.050   2.057  0.0876  0.0814 -1.6395
 6376SOL     OW20568   1.330   0.001   2.279  0.0055 -0.6849  0.0480
 6376SOL    HW120569   1.234   0.008   2.276 -0.0311 -1.3476 -0.5603
 6376SOL    HW220570   1.355   0.049   2.359 -0.8180 -0.3992  0.1447
 6377SOL     OW20571   5.762   3.033   4.802  0.2345 -0.5942  0.0026
 6377SOL    HW120572   5.687   2.993   4.757 -1.4020  1.6585  0.6012
 6377SOL    HW220573   5.798   2.962   4.856  0.1526 -2.4152 -2.1633
 6378SOL     OW20574   2.359   2.977  11.022  0.1243  0.1869 -0.3925
 6378SOL    HW120575   2.330   2.949  11.109 -1.5367 -0.0633 -0.9893
 6378SOL    HW220576   2.289   3.034  10.991  0.5159 -0.0243 -1.7222
 6379SOL     OW20577   7.295   1.440   5.513 -0.7341  0.2758 -0.3940
 6379SOL    HW120578   7.305   1.492   5.593 -0.6899  0.3616 -0.4544
 6379SOL    HW220579   7.370   1.381   5.513 -1.7211 -1.0391  0.5944
 6380SOL     OW20580   2.160   0.291   8.602  0.5086 -0.8507 -0.3233
 6380SOL    HW120581   2.251   0.312   8.622  0.5203 -0.4186 -0.8174
 6380SOL    HW220582   2.161   0.267   8.509 -0.0631  0.2916 -0.6365
 6381SOL     OW20583   4.804   5.589   4.075  0.4109  0.2907 -0.2536
 6381SOL    HW120584   4.753   5.644   4.016 -0.3030  0.6955  0.6970
 6381SOL    HW220585   4.824   5.647   4.149  1.4751 -0.1308 -0.1993
 6382SOL     OW20586   3.369   4.808  10.337  0.5660 -0.1913 -0.1932
 6382SOL    HW120587   3.305   4.738  10.349  0.0912 -0.0276 -1.6145
 6382SOL    HW220588   3.319   4.889  10.352  0.5593 -0.0882 -0.7289
 6383SOL     OW20589   2.946   1.321  10.297  0.4359  0.6752 -0.2157
 6383SOL    HW120590   2.951   1.398  10.353  0.3332  0.4905  0.0494
 6383SOL    HW220591   2.928   1.248  10.357 -3.8247  0.9934 -0.7865
 6384SOL     OW20592   7.331   6.795  11.284 -0.4045 -0.0931 -0.1464
 6384SOL    HW120593   7.286   6.716  11.251 -0.5822 -0.6683  1.4138
 6384SOL    HW220594   7.355   6.773  11.374  4.6372 -0.5270 -1.3063
 6385SOL     OW20595   7.308   5.042   3.053  0.4789  0.5995  0.4719
 6385SOL    HW120596   7.261   5.120   3.026  1.4613  0.6916 -1.0862
 6385SOL    HW220597   7.345   5.006   2.972  3.1656  0.6077  1.5860
 6386SOL     OW20598   7.370   1.483   3.861  0.4813  0.8884 -0.0088
 6386SOL    HW120599   7.386   1.394   3.891 -1.7825  0.8980  1.5177
 6386SOL    HW220600   7.373   1.477   3.765  1.9465 -0.4507  0.0814
 6387SOL     OW20601   1.029   4.926   1.317  0.2235  0.0829 -0.3732
 6387SOL    HW120602   0.984   4.918   1.401  0.4484  0.6609 -0.1931
 6387SOL    HW220603   1.046   4.836   1.290  0.5085 -0.0978  0.3876
 6388SOL     OW20604   2.393   2.897   7.755  0.0706 -0.2804 -0.2644
 6388SOL    HW120605   2.384   2.954   7.831  1.0901 -0.5252  0.0629
 6388SOL    HW220606   2.481   2.916   7.722  0.3161 -1.4496 -0.3153
 6389SOL     OW20607   3.190   0.091  10.841 -0.0737  0.1250 -0.5418
 6389SOL    HW120608   3.206   0.011  10.792 -0.2410  0.1214 -0.5889
 6389SOL    HW220609   3.237   0.078  10.924  2.8574  1.3410 -1.8474
 6390SOL     OW20610   7.721   3.158   3.401 -0.7368 -0.2830 -0.1563
 6390SOL    HW120611   7.641   3.205   3.378 -0.1992 -0.2568 -2.0970
 6390SOL    HW220612   7.745   3.110   3.322  1.5987  0.3466  0.0901
 6391SOL     OW20613   3.433   0.321   5.196 -0.0706 -0.6335 -0.0537
 6391SOL    HW120614   3.343   0.332   5.227 -0.3975 -0.1374 -1.1475
 6391SOL    HW220615   3.440   0.227   5.175 -0.8674 -0.3966 -1.5146
 6392SOL     OW20616   3.139   2.403   8.396  0.3630  0.4803 -0.3124
 6392SOL    HW120617   3.100   2.341   8.335  1.3538  0.5955 -1.0959
 6392SOL    HW220618   3.065   2.443   8.442 -0.2953 -1.5141  0.4663
 6393SOL     OW20619   0.565   4.708   0.086  0.1968 -0.0293  0.1696
 6393SOL    HW120620   0.473   4.692   0.069  0.3797 -1.0381  0.0842
 6393SOL    HW220621   0.568   4.797   0.122 -0.7289  0.2472 -0.4180
 6394SOL     OW20622   0.789   5.620   6.917  0.6846  0.0088 -0.7737
 6394SOL    HW120623   0.839   5.554   6.869  0.1957 -1.5207  0.7034
 6394SOL    HW220624   0.747   5.571   6.987 -0.4583  1.7682 -0.1667
 6395SOL     OW20625   5.329   6.238   5.144  0.5955  0.5156  0.3380
 6395SOL    HW120626   5.278   6.317   5.160 -2.7425 -0.9732 -1.6833
 6395SOL    HW220627   5.325   6.190   5.227  0.3927  1.3070  0.7964
 6396SOL     OW20628   0.470   0.796   6.439  0.0488 -0.0617 -0.3290
 6396SOL    HW120629   0.450   0.815   6.531  1.6959  1.0959 -0.1570
 6396SOL    HW220630   0.476   0.700   6.435 -3.1677 -0.3829  0.0130
 6397SOL     OW20631   7.114   4.408   5.007 -0.3578  0.3978  0.0459
 6397SOL    HW120632   7.112   4.358   4.926  1.1533 -1.0498  0.8409
 6397SOL    HW220633   7.024   4.438   5.019 -1.3857 -2.2130 -0.4506
 6398SOL     OW20634   3.987   5.838   8.017  0.6821 -0.0881 -0.0326
 6398SOL    HW120635   3.994   5.933   8.005 -0.9672  0.0746  0.0213
 6398SOL    HW220636   3.913   5.813   7.961 -0.5968 -0.9084  1.9244
 6399SOL     OW20637   0.914   1.312  11.575  0.3123 -0.5104  0.3710
 6399SOL    HW120638   1.006   1.338  11.564 -0.4810  1.5682 -2.8022
 6399SOL    HW220639   0.888   1.280  11.489 -1.6225 -2.5550  1.6006
 6400SOL     OW20640   0.775   4.224   1.495  0.3819 -0.0648 -0.0453
 6400SOL    HW120641   0.857   4.235   1.447 -0.2573 -0.8827 -1.3826
 6400SOL    HW220642   0.721   4.168   1.439 -1.9619  2.2084 -0.2972
 6401SOL     OW20643   3.914   7.847   6.360 -0.1608 -0.0669  0.0068
 6401SOL    HW120644   3.952   7.922   6.315 -0.3878 -0.2050 -0.4164
 6401SOL    HW220645   3.984   7.816   6.418  0.1017  0.1641 -0.1862
 6402SOL     OW20646   1.397   5.389   6.146 -0.3395  0.3377  0.2903
 6402SOL    HW120647   1.486   5.399   6.179 -0.4382  2.0166  0.1414
 6402SOL    HW220648   1.407   5.355   6.057  0.1912  0.8886  0.1334
 6403SOL     OW20649   1.289   4.996   5.527 -0.7887  0.4725  0.1469
 6403SOL    HW120650   1.242   5.074   5.558 -1.5618 -0.2896  0.9646
 6403SOL    HW220651   1.319   4.953   5.607 -2.1362 -1.1346 -0.1511
 6404SOL     OW20652   0.588   7.025  11.894  0.4342 -0.2070 -0.1156
 6404SOL    HW120653   0.611   6.973  11.817  0.9645 -0.3797  0.1548
 6404SOL    HW220654   0.671   7.059  11.926 -0.0935  2.8967 -1.6954
 6405SOL     OW20655   3.203   7.629   3.348 -0.5685 -0.0093 -0.0023
 6405SOL    HW120656   3.173   7.720   3.354 -1.6516 -0.3937  0.6611
 6405SOL    HW220657   3.126   7.581   3.319  0.0722 -0.6889 -0.6077
 6406SOL     OW20658   6.803   5.936   5.044  0.4058 -0.1604 -0.1459
 6406SOL    HW120659   6.888   5.940   5.088  0.6394  0.5835 -0.6337
 6406SOL    HW220660   6.813   5.867   4.979 -0.3128 -2.0712  1.6702
 6407SOL     OW20661   3.711   2.286   5.959  0.0895  0.4118  0.5663
 6407SOL    HW120662   3.661   2.230   6.018  2.3123 -1.5690  0.7008
 6407SOL    HW220663   3.659   2.290   5.879 -0.7133 -0.8188  1.0064
 6408SOL     OW20664   6.562   6.453   7.875 -0.0583 -0.2191  0.7604
 6408SOL    HW120665   6.634   6.511   7.852  1.3038 -2.0132  0.2916
 6408SOL    HW220666   6.603   6.369   7.893 -1.8489 -0.8001  2.5313
 6409SOL     OW20667   4.211   5.599  10.693 -0.1740  0.6543 -0.1628
 6409SOL    HW120668   4.173   5.533  10.636  0.9336 -0.1438  0.0004
 6409SOL    HW220669   4.263   5.654  10.635  0.5023  0.1771 -0.0218
 6410SOL     OW20670   7.713   0.577   1.128  0.5003  0.8081 -0.0092
 6410SOL    HW120671   7.728   0.550   1.219  1.3354 -0.1599 -0.4169
 6410SOL    HW220672   7.660   0.657   1.135  0.9706  1.0267  1.3442
 6411SOL     OW20673   3.183   1.550   1.189  0.5893  0.2278  0.0129
 6411SOL    HW120674   3.104   1.562   1.242 -0.0467  0.7573 -0.9965
 6411SOL    HW220675   3.235   1.486   1.236 -0.6322 -0.4294  0.5201
 6412SOL     OW20676   1.330   2.833   8.110 -0.4910 -0.0781 -0.4210
 6412SOL    HW120677   1.394   2.762   8.114 -1.2023 -0.6606  1.5252
 6412SOL    HW220678   1.379   2.911   8.137 -0.4958 -0.4696  0.7813
 6413SOL     OW20679   7.519   5.602  11.277 -0.1876 -0.3235  0.8166
 6413SOL    HW120680   7.487   5.684  11.241 -1.3940 -0.4505  1.5223
 6413SOL    HW220681   7.532   5.620  11.370 -1.0232 -1.0603  1.0979
 6414SOL     OW20682   6.687   5.619  10.628 -0.2961  0.0907 -0.4985
 6414SOL    HW120683   6.728   5.644  10.545  0.9703 -0.3446 -0.0299
 6414SOL    HW220684   6.639   5.696  10.655 -0.2953  0.4164 -1.3862
 6415SOL     OW20685   7.922   2.505  11.257  0.2490  0.1427  0.1939
 6415SOL    HW120686   7.963   2.479  11.340  0.5101  0.0839  0.0485
 6415SOL    HW220687   7.877   2.587  11.278  0.7319  0.3922  0.2769
 6416SOL     OW20688   5.256   4.489   0.360  0.0496  0.2816  0.5487
 6416SOL    HW120689   5.325   4.472   0.296 -1.0100 -0.7827 -0.3765
 6416SOL    HW220690   5.187   4.426   0.338 -0.4552  0.0380  2.6211
 6417SOL     OW20691   4.538   7.738   0.326  0.1758 -0.4282  0.3471
 6417SOL    HW120692   4.477   7.719   0.255 -0.4450 -3.3680  1.5160
 6417SOL    HW220693   4.486   7.781   0.393 -0.1698 -1.1769  0.5638
 6418SOL     OW20694   4.391   5.933   3.948 -0.0634 -0.0540  0.3880
 6418SOL    HW120695   4.371   6.024   3.971 -3.2365 -0.4457 -0.3753
 6418SOL    HW220696   4.435   5.939   3.864 -0.7476  0.7922  0.0717
 6419SOL     OW20697   3.376   2.455   8.918  0.8023  0.3521 -0.0744
 6419SOL    HW120698   3.331   2.374   8.895 -1.1908  0.8823  1.6314
 6419SOL    HW220699   3.455   2.427   8.964  0.0481 -0.6533  0.6501
 6420SOL     OW20700   4.299   7.513   1.505  0.0505  0.0491 -0.2175
 6420SOL    HW120701   4.324   7.421   1.510 -0.0469  0.0443  0.1609
 6420SOL    HW220702   4.203   7.512   1.502  0.0711  0.0607 -1.8186
 6421SOL     OW20703   4.462   4.442   1.524 -0.0684 -0.2643 -0.3438
 6421SOL    HW120704   4.452   4.412   1.433  0.9875  0.1650 -0.6108
 6421SOL    HW220705   4.404   4.385   1.574 -0.2598 -0.8582 -1.2126
 6422SOL     OW20706   0.884   6.052   6.929  0.2812  0.1337 -0.2891
 6422SOL    HW120707   0.794   6.069   6.955 -0.0956 -1.2196 -0.6523
 6422SOL    HW220708   0.921   6.139   6.915 -1.2091  0.7035 -0.9494
 6423SOL     OW20709   6.321   5.197   5.464 -0.1788  0.1905  0.1055
 6423SOL    HW120710   6.263   5.238   5.527 -0.5173 -0.6308  0.3418
 6423SOL    HW220711   6.306   5.245   5.382 -1.4015 -0.1921  0.0949
 6424SOL     OW20712   5.212   3.217   9.938  0.2308 -0.1947  0.4425
 6424SOL    HW120713   5.138   3.241   9.882  0.6135  0.3409  0.1538
 6424SOL    HW220714   5.240   3.299   9.977  2.5239  0.1587 -1.7323
 6425SOL     OW20715   1.991   3.151   0.958  0.1266 -0.0396 -0.5252
 6425SOL    HW120716   1.997   3.246   0.970 -1.8778  0.2261 -1.2703
 6425SOL    HW220717   2.059   3.116   1.016  1.1423  1.8456 -0.4904
 6426SOL     OW20718   5.774   7.355  10.278  0.5511  0.3539 -0.3293
 6426SOL    HW120719   5.823   7.325  10.202 -0.4542  0.3974 -1.0087
 6426SOL    HW220720   5.739   7.440  10.253 -0.0266  0.2430  0.0745
 6427SOL     OW20721   1.767   0.682   4.712  0.8343  0.1076  0.3966
 6427SOL    HW120722   1.792   0.774   4.714  0.9076  0.0743  1.3828
 6427SOL    HW220723   1.672   0.683   4.708  0.8107  0.2289  0.9444
 6428SOL     OW20724   5.208   4.587   6.684  0.3546  0.7940  0.1464
 6428SOL    HW120725   5.304   4.582   6.677  0.4264  1.1149  0.8370
 6428SOL    HW220726   5.176   4.556   6.599  1.0801  0.9700 -0.1973
 6429SOL     OW20727   4.470   6.213   9.629 -0.3127  0.6056 -0.1124
 6429SOL    HW120728   4.537   6.167   9.679  0.2323  3.1841  1.7124
 6429SOL    HW220729   4.399   6.228   9.691 -1.1707  0.8193 -1.1066
 6430SOL     OW20730   4.405   0.124   5.538  0.4548 -0.7003  0.7707
 6430SOL    HW120731   4.370   0.120   5.626  1.3819  2.0947  1.3920
 6430SOL    HW220732   4.328   0.135   5.482 -0.0348  2.3455  1.8082
 6431SOL     OW20733   6.057   3.039   0.833 -0.4444 -0.1481  0.0450
 6431SOL    HW120734   6.074   3.123   0.875 -1.0730  0.6092 -1.1923
 6431SOL    HW220735   5.988   2.999   0.886  0.6544 -0.4360  1.3245
 6432SOL     OW20736   4.369   5.432   7.195 -0.1817 -0.3271  0.0989
 6432SOL    HW120737   4.464   5.438   7.207 -0.0972 -0.8754 -0.2614
 6432SOL    HW220738   4.344   5.353   7.245 -0.4435 -0.2043  0.1624
 6433SOL     OW20739   0.169   1.775   0.021 -0.2094  0.1087  0.2335
 6433SOL    HW120740   0.261   1.799   0.029 -0.6330  1.1971  2.7148
 6433SOL    HW220741   0.141   1.757   0.111 -2.5482  0.2955 -0.3927
 6434SOL     OW20742   1.888   4.760   9.071  0.4139  0.5304 -0.7092
 6434SOL    HW120743   1.888   4.734   8.979 -2.1319  1.7259 -1.1478
 6434SOL    HW220744   1.923   4.685   9.118 -0.7126 -1.1650 -2.4389
 6435SOL     OW20745   5.316   3.163  10.243 -0.7377  0.1216 -0.6725
 6435SOL    HW120746   5.305   3.248  10.285 -0.0239  0.9639 -2.1045
 6435SOL    HW220747   5.297   3.180  10.150  1.8776 -0.6775 -1.4324
 6436SOL     OW20748   1.129   6.046   9.370 -0.0332 -0.2949  0.2366
 6436SOL    HW120749   1.166   6.131   9.395 -0.3610  0.1671 -0.7931
 6436SOL    HW220750   1.134   6.045   9.275  1.6044 -2.1882  0.2671
 6437SOL     OW20751   6.396   1.661   5.113 -0.6793  0.5638 -0.5281
 6437SOL    HW120752   6.468   1.717   5.142  0.6460 -1.2757 -0.0597
 6437SOL    HW220753   6.318   1.699   5.155  0.5651  0.5008  2.0746
 6438SOL     OW20754   4.614   5.762   4.784  0.0359  0.3119 -0.1447
 6438SOL    HW120755   4.541   5.749   4.844  0.7000 -0.7767  0.4654
 6438SOL    HW220756   4.678   5.695   4.809  1.6686  1.8445 -0.0248
 6439SOL     OW20757   5.528   6.699   5.639 -0.5861 -0.4024  0.0322
 6439SOL    HW120758   5.435   6.683   5.652 -0.1642 -2.1105  1.3292
 6439SOL    HW220759   5.532   6.756   5.562 -2.9254  3.2616  2.2577
 6440SOL     OW20760   4.668   0.958   1.188 -0.3025 -0.2731  0.4531
 6440SOL    HW120761   4.592   0.927   1.237 -0.1206  0.3477  1.1392
 6440SOL    HW220762   4.742   0.942   1.245  0.1104 -0.9412 -0.2435
 6441SOL     OW20763   7.949   3.718   5.024  0.2773 -0.1752  0.2025
 6441SOL    HW120764   7.894   3.728   5.102 -3.2184  0.1646 -2.0944
 6441SOL    HW220765   7.966   3.807   4.995 -1.0297 -0.2886 -1.0111
 6442SOL     OW20766   1.662   3.764   6.595  0.2298 -0.0605  0.5153
 6442SOL    HW120767   1.651   3.852   6.629 -1.1015 -0.1096  0.2585
 6442SOL    HW220768   1.611   3.709   6.655 -0.5882 -0.3837 -0.4558
 6443SOL     OW20769   3.561   2.851  11.814 -0.1414  0.1286  0.6261
 6443SOL    HW120770   3.615   2.855  11.894  0.2904  1.8742  0.2919
 6443SOL    HW220771   3.612   2.899  11.749 -0.8865 -0.5399 -0.4727
 6444SOL     OW20772   3.623   6.590   7.918  0.5955  0.0018  0.1307
 6444SOL    HW120773   3.585   6.503   7.930 -1.4690  0.9195  0.6289
 6444SOL    HW220774   3.633   6.599   7.824 -3.1582  0.7015 -0.3761
 6445SOL     OW20775   0.085   0.124   6.083 -0.3582  0.2496 -0.4378
 6445SOL    HW120776   0.076   0.043   6.033  1.0087 -0.8097  0.9153
 6445SOL    HW220777   0.053   0.102   6.171 -0.3251  1.2962 -0.1477
 6446SOL     OW20778   4.487   6.769   5.874  0.1378  0.0375  0.1024
 6446SOL    HW120779   4.439   6.775   5.792  1.2669 -1.6829 -0.7606
 6446SOL    HW220780   4.567   6.721   5.851  1.0054  0.4812  1.9940
 6447SOL     OW20781   5.376   1.897  11.198  0.0704  0.0081 -0.1793
 6447SOL    HW120782   5.350   1.855  11.116 -3.3079 -0.2842  0.9293
 6447SOL    HW220783   5.344   1.987  11.190  2.9049  1.1025 -0.5214
 6448SOL     OW20784   7.146   0.868   6.713  0.7274 -0.1979  0.0416
 6448SOL    HW120785   7.079   0.827   6.658  0.4756 -1.7195  1.3961
 6448SOL    HW220786   7.174   0.945   6.664  0.7134 -1.6153 -2.3375
 6449SOL     OW20787   6.772   6.319   2.896  0.0509 -0.3094  0.9310
 6449SOL    HW120788   6.688   6.274   2.905  0.0239 -0.0923  1.8481
 6449SOL    HW220789   6.807   6.287   2.813 -1.6347  0.7677 -0.2781
 6450SOL     OW20790   1.751   1.618   7.894  0.1964  0.1154 -0.2839
 6450SOL    HW120791   1.837   1.584   7.868  0.5906 -0.7376  1.8830
 6450SOL    HW220792   1.689   1.552   7.866  0.3281  0.3611 -1.1657
 6451SOL     OW20793   7.238   5.305   5.896  0.3151  0.0476 -0.3533
 6451SOL    HW120794   7.317   5.358   5.906  0.7029 -0.4883 -0.5617
 6451SOL    HW220795   7.219   5.274   5.985 -1.2726  2.4214  0.2457
 6452SOL     OW20796   4.658   5.369   1.642  0.2216  0.4577 -0.4217
 6452SOL    HW120797   4.640   5.460   1.665  1.7367  0.4961  0.8247
 6452SOL    HW220798   4.685   5.372   1.550 -2.1713  0.8645 -1.1915
 6453SOL     OW20799   7.372   3.143   5.387  0.4183 -0.3668 -0.1518
 6453SOL    HW120800   7.314   3.074   5.354  0.5137 -0.4178 -0.2146
 6453SOL    HW220801   7.395   3.115   5.476 -0.2074  0.0021  0.1285
 6454SOL     OW20802   1.208   3.923  11.045 -0.1720  0.4618  0.1393
 6454SOL    HW120803   1.302   3.926  11.022 -0.3795  2.2245 -0.6718
 6454SOL    HW220804   1.196   3.836  11.083  1.8257  0.2348  0.4076
 6455SOL     OW20805   4.400   3.604  11.150 -0.1842 -0.2058  0.1385
 6455SOL    HW120806   4.390   3.633  11.241 -1.0583 -2.5978  0.8929
 6455SOL    HW220807   4.313   3.575  11.124  0.3769 -1.0717 -0.8635
 6456SOL     OW20808   6.002   4.965   1.021  0.3509 -0.1740 -0.0750
 6456SOL    HW120809   6.005   4.870   1.011 -2.7435 -0.3863 -0.0339
 6456SOL    HW220810   5.990   4.998   0.932  0.3908  0.0830  0.0143
 6457SOL     OW20811   7.516   2.318   8.387  0.0212  0.2547  0.3309
 6457SOL    HW120812   7.433   2.271   8.376  0.3034 -0.2408  0.2578
 6457SOL    HW220813   7.572   2.257   8.436 -0.8736  2.0334  3.8604
 6458SOL     OW20814   3.213   0.312   4.465 -0.2954  0.0670 -0.2748
 6458SOL    HW120815   3.274   0.254   4.511 -0.4477  1.0084  1.1669
 6458SOL    HW220816   3.129   0.266   4.467 -0.4617  0.3980  1.0324
 6459SOL     OW20817   0.122   5.158   9.140 -0.1546 -0.0438 -0.1079
 6459SOL    HW120818   0.141   5.241   9.183 -1.6327 -0.8127  2.2410
 6459SOL    HW220819   0.026   5.154   9.138 -0.1613 -2.3014  1.2535
 6460SOL     OW20820   0.275   2.673   7.597 -0.1044  0.4034 -0.3150
 6460SOL    HW120821   0.313   2.749   7.552 -0.7110  1.1630  0.4151
 6460SOL    HW220822   0.232   2.710   7.674 -2.1895 -0.4235 -1.0107
 6461SOL     OW20823   2.792   2.454   3.165  0.5464  1.0137  0.6607
 6461SOL    HW120824   2.766   2.392   3.097 -0.4524  1.4869  0.5974
 6461SOL    HW220825   2.879   2.424   3.193 -0.2033 -0.8363  1.1426
 6462SOL     OW20826   1.942   6.943   3.052 -0.4091  0.7449 -0.3069
 6462SOL    HW120827   1.913   6.875   2.992  0.7410  0.1000 -0.1571
 6462SOL    HW220828   1.952   7.021   2.997 -1.1310  0.6408 -0.5954
 6463SOL     OW20829   0.551   7.812   7.707 -0.0918  0.2919 -0.4419
 6463SOL    HW120830   0.628   7.867   7.712  2.0930 -2.3997 -1.5920
 6463SOL    HW220831   0.530   7.790   7.797  1.8671 -0.6142 -0.1628
 6464SOL     OW20832   7.354   5.938  12.406 -0.0124  0.1015 -0.2119
 6464SOL    HW120833   7.312   5.856  12.379  0.1518 -0.1383  0.2515
 6464SOL    HW220834   7.286   6.005  12.396 -0.5985 -0.3186  0.7757
 6465SOL     OW20835   6.614   2.152   2.281  0.2546 -0.0034  0.2589
 6465SOL    HW120836   6.689   2.189   2.328 -0.1496 -0.2230  1.0895
 6465SOL    HW220837   6.635   2.059   2.272 -0.1767 -0.1819  1.0195
 6466SOL     OW20838   3.621   1.674   8.172 -0.6418 -0.2259 -0.5770
 6466SOL    HW120839   3.606   1.762   8.207  0.1903 -0.3630  0.1841
 6466SOL    HW220840   3.655   1.625   8.247 -1.6845 -1.3710 -0.8352
 6467SOL     OW20841   3.319   2.617   5.877  0.1048  0.4118  0.0447
 6467SOL    HW120842   3.384   2.687   5.877 -0.2183  0.7105  0.5518
 6467SOL    HW220843   3.252   2.645   5.939  0.2596 -0.6053  0.6973
 6468SOL     OW20844   2.730   3.267   2.997 -0.0157 -0.4698 -0.0211
 6468SOL    HW120845   2.819   3.262   2.961 -0.0793  0.0713 -0.2554
 6468SOL    HW220846   2.730   3.346   3.051 -0.7355  0.2818 -1.0824
 6469SOL     OW20847   6.328   6.238   2.370 -0.0012 -0.3673  0.2080
 6469SOL    HW120848   6.309   6.145   2.385  0.6202 -0.4404  0.5682
 6469SOL    HW220849   6.242   6.280   2.367 -0.2860 -0.9648 -0.0281
 6470SOL     OW20850   5.341   3.665   7.371  0.1648  0.0166  0.1764
 6470SOL    HW120851   5.355   3.580   7.413  2.6197  0.6410  0.7856
 6470SOL    HW220852   5.263   3.653   7.317 -0.3907 -2.1760  1.3604
 6471SOL     OW20853   7.234   0.692  12.412  0.2007  0.0914 -0.1644
 6471SOL    HW120854   7.327   0.706  12.431 -0.1223  1.5385  0.4441
 6471SOL    HW220855   7.211   0.612  12.458  1.2817 -0.5996 -0.7980
 6472SOL     OW20856   4.800   0.405   5.808  0.1046 -0.1841 -0.3591
 6472SOL    HW120857   4.846   0.475   5.762 -1.1701  1.7316  1.1095
 6472SOL    HW220858   4.708   0.416   5.782 -0.6699  0.9839  2.5046
 6473SOL     OW20859   2.773   5.386   4.427  0.4996 -0.1674 -0.2827
 6473SOL    HW120860   2.817   5.469   4.444 -0.4893  0.1925  0.5875
 6473SOL    HW220861   2.680   5.407   4.431  0.2204 -0.9329 -1.9938
 6474SOL     OW20862   5.935   7.226   1.160  0.1324  0.1719 -0.2041
 6474SOL    HW120863   5.988   7.163   1.113 -0.3268 -0.1012 -0.3658
 6474SOL    HW220864   5.856   7.236   1.106 -0.3186 -0.0073  0.4117
 6475SOL     OW20865   0.737   6.881   5.289 -0.8493 -0.6597  0.4456
 6475SOL    HW120866   0.662   6.855   5.236 -0.5938  0.3592 -0.4478
 6475SOL    HW220867   0.757   6.805   5.343 -1.0731 -1.7526 -0.9757
 6476SOL     OW20868   3.143   3.962   7.272  0.2580 -0.0901 -0.4345
 6476SOL    HW120869   3.209   3.979   7.339  0.2841  1.2532 -0.7726
 6476SOL    HW220870   3.191   3.971   7.189 -0.4001  1.2882 -0.6975
 6477SOL     OW20871   2.237   3.903   1.649  0.1960  0.1698  0.5168
 6477SOL    HW120872   2.233   3.809   1.667  0.7016 -0.0258 -0.3205
 6477SOL    HW220873   2.322   3.930   1.686 -0.0025  0.3236  0.8625
 6478SOL     OW20874   5.424   1.512   4.978 -0.2921 -0.3057  0.1524
 6478SOL    HW120875   5.340   1.495   4.935 -1.1432 -2.1710  2.3642
 6478SOL    HW220876   5.437   1.437   5.035  2.4535  0.4088  0.5944
 6479SOL     OW20877   7.171   1.511   4.558 -0.7182  1.4460 -0.1680
 6479SOL    HW120878   7.205   1.567   4.627 -1.0018  1.6080 -0.1583
 6479SOL    HW220879   7.076   1.521   4.564 -1.0280 -1.5015  1.9558
 6480SOL     OW20880   4.275   3.979   1.730 -0.0520  0.2449 -0.4398
 6480SOL    HW120881   4.350   3.939   1.774  0.8595  2.9087  0.6247
 6480SOL    HW220882   4.309   4.060   1.693 -2.1552  0.9645 -0.9264
 6481SOL     OW20883   5.694   0.362  11.161 -0.2581 -0.1947  0.0399
 6481SOL    HW120884   5.609   0.321  11.174 -0.0870 -0.3851  0.5875
 6481SOL    HW220885   5.701   0.426  11.231  0.1776 -0.3883  0.1763
 6482SOL     OW20886   4.617   1.921   3.066  0.3523 -0.0197 -0.3173
 6482SOL    HW120887   4.617   1.868   2.986  0.5643 -1.8272  0.8337
 6482SOL    HW220888   4.540   1.890   3.114  0.2146  1.0695  0.1852
 6483SOL     OW20889   5.847   1.990   5.305 -0.0149 -1.5628  0.9705
 6483SOL    HW120890   5.882   1.962   5.389  0.2222 -0.6163  1.2015
 6483SOL    HW220891   5.877   1.924   5.243  0.7341 -1.6778  1.4477
 6484SOL     OW20892   7.763   7.366   4.112 -0.0691 -0.1687 -0.8279
 6484SOL    HW120893   7.670   7.383   4.129 -0.3612  1.3480 -3.3522
 6484SOL    HW220894   7.764   7.284   4.064 -0.0096 -0.5235 -0.2337
 6485SOL     OW20895   4.065   3.673   6.786  0.0454  1.0040  0.0297
 6485SOL    HW120896   4.101   3.753   6.748  1.4194 -0.1467 -1.2228
 6485SOL    HW220897   4.142   3.624   6.817 -0.4588 -1.0163 -1.6853
 6486SOL     OW20898   1.922   3.510   0.956 -0.5971 -0.2429 -0.4440
 6486SOL    HW120899   1.940   3.556   0.874 -0.0889  0.8116  0.2336
 6486SOL    HW220900   1.867   3.571   1.006 -0.4268 -0.6251  0.2227
 6487SOL     OW20901   7.361   6.919   3.021 -0.2557  0.2372 -0.0922
 6487SOL    HW120902   7.331   6.957   2.938 -0.1326 -1.5261 -1.0039
 6487SOL    HW220903   7.379   6.828   2.999 -1.1401 -0.5174  2.1345
 6488SOL     OW20904   5.986   3.198   8.672  0.1216  0.8889  0.2173
 6488SOL    HW120905   6.018   3.278   8.630 -0.2990  0.3329 -1.2016
 6488SOL    HW220906   5.897   3.219   8.700 -0.6225  0.4144 -1.6876
 6489SOL     OW20907   7.068   6.645  11.479 -0.3149  0.0446 -0.2455
 6489SOL    HW120908   7.137   6.623  11.417  0.6230  0.2444  0.7031
 6489SOL    HW220909   7.001   6.690  11.426 -0.8758 -2.2838 -1.6349
 6490SOL     OW20910   1.627   3.107   2.309  0.7893 -0.5705 -0.8049
 6490SOL    HW120911   1.696   3.044   2.290  1.1368 -0.7852  0.9769
 6490SOL    HW220912   1.668   3.192   2.297  1.3176 -0.6992 -0.0468
 6491SOL     OW20913   3.607   5.524   4.621 -0.3032  0.5384  0.0434
 6491SOL    HW120914   3.553   5.594   4.658 -0.7559  0.1852  0.0595
 6491SOL    HW220915   3.688   5.526   4.673 -0.3578  0.9760  0.1153
 6492SOL     OW20916   6.604   5.468   1.845 -0.5520 -0.7423  0.1157
 6492SOL    HW120917   6.597   5.463   1.750  2.4009 -1.0509 -0.1640
 6492SOL    HW220918   6.651   5.549   1.862 -0.3095 -1.0994  1.2654
 6493SOL     OW20919   0.676   1.137  11.675  0.0562  0.6319 -0.1054
 6493SOL    HW120920   0.722   1.211  11.635 -1.7723  0.6522 -2.4455
 6493SOL    HW220921   0.645   1.171  11.759  0.8566  1.8919 -0.2818
 6494SOL     OW20922   3.990   4.450   8.065 -0.3750  0.8401  0.7542
 6494SOL    HW120923   3.936   4.373   8.084  1.0902 -0.3837  0.2006
 6494SOL    HW220924   3.955   4.519   8.121 -2.9573  0.3286 -0.1175
 6495SOL     OW20925   5.971   4.123   3.296 -0.2423 -0.1262 -0.9633
 6495SOL    HW120926   5.928   4.055   3.244  0.4238 -2.0960  0.9306
 6495SOL    HW220927   6.058   4.088   3.315  0.1238  1.2568  0.1097
 6496SOL     OW20928   5.702   7.786   2.203 -0.2309  0.5822  0.2160
 6496SOL    HW120929   5.704   7.807   2.296 -1.6766  1.3001  0.1212
 6496SOL    HW220930   5.719   7.870   2.159  0.7577  0.1925 -0.1877
 6497SOL     OW20931   3.918   2.246   1.335  0.1849 -0.1937 -0.1625
 6497SOL    HW120932   3.990   2.307   1.356  0.1341 -1.1905  3.8110
 6497SOL    HW220933   3.962   2.166   1.308  0.5592 -0.2801  0.6520
 6498SOL     OW20934   4.952   2.369   2.495 -0.1149  0.4167  0.0073
 6498SOL    HW120935   4.880   2.392   2.436  0.5914  1.0173 -0.6483
 6498SOL    HW220936   4.924   2.287   2.536 -1.1931  0.6703 -0.1850
 6499SOL     OW20937   0.778   6.606  10.030  0.0678  0.0297 -0.3610
 6499SOL    HW120938   0.740   6.668   9.967  1.0946 -1.4637 -2.5891
 6499SOL    HW220939   0.864   6.642  10.049  0.3401 -0.2643 -1.0062
 6500SOL     OW20940   1.858   0.498   5.858 -0.1084  0.5543 -0.2117
 6500SOL    HW120941   1.773   0.538   5.839 -0.2234  0.2592 -0.3276
 6500SOL    HW220942   1.864   0.424   5.797 -0.4456 -0.3626  0.8203
 6501SOL     OW20943   1.410   6.401   4.507 -0.0484  0.0103 -0.3718
 6501SOL    HW120944   1.419   6.360   4.421 -1.2132 -2.2410  0.4859
 6501SOL    HW220945   1.388   6.328   4.565  2.8928  1.0385  2.2956
 6502SOL     OW20946   1.028   0.554  12.116  0.1418  0.1391 -0.5571
 6502SOL    HW120947   1.116   0.524  12.137 -0.0569  0.3311  0.6648
 6502SOL    HW220948   0.997   0.494  12.049  1.5335  0.6309 -1.7024
 6503SOL     OW20949   0.575   1.686   6.682  0.6848  0.1531  0.4497
 6503SOL    HW120950   0.572   1.779   6.661 -0.0643  0.3735  1.4337
 6503SOL    HW220951   0.587   1.642   6.598  0.9925  1.1371 -0.0260
 6504SOL     OW20952   0.292   4.061   9.046  0.2146 -0.0033  0.4999
 6504SOL    HW120953   0.337   4.143   9.023  2.1858 -1.4343 -1.1169
 6504SOL    HW220954   0.202   4.075   9.018  0.1544  2.0511  1.4851
 6505SOL     OW20955   6.216   6.576   7.367  0.8009 -0.3433 -0.0168
 6505SOL    HW120956   6.230   6.670   7.363 -2.0829  0.2465  0.9796
 6505SOL    HW220957   6.296   6.541   7.408  1.3818  1.8409  0.8546
 6506SOL     OW20958   1.645   4.087   0.918 -1.0274  0.8312  0.5997
 6506SOL    HW120959   1.655   4.162   0.859 -1.1758 -0.9414 -1.8217
 6506SOL    HW220960   1.716   4.097   0.981 -0.0981  2.1971 -0.5843
 6507SOL     OW20961   0.990   4.035   1.570  0.3312  0.2328 -0.7261
 6507SOL    HW120962   1.025   3.960   1.618  1.0727  0.2707 -1.2073
 6507SOL    HW220963   0.989   4.106   1.635  1.6308  0.3701 -0.8325
 6508SOL     OW20964   2.404   6.135   5.058  0.3402 -0.5026 -0.2745
 6508SOL    HW120965   2.336   6.143   5.125  1.4389  0.4320  0.7888
 6508SOL    HW220966   2.386   6.208   4.998 -0.2764 -0.9636 -0.6597
 6509SOL     OW20967   7.096   7.857   5.175  0.1465  0.2350 -0.0379
 6509SOL    HW120968   7.073   7.804   5.251 -1.7995 -0.5531 -1.1143
 6509SOL    HW220969   7.014   7.865   5.126  1.4927  0.0547 -2.4585
 6510SOL     OW20970   3.940   1.602   2.034 -0.3026  0.1742  0.0001
 6510SOL    HW120971   3.899   1.519   2.056  1.3061 -0.6905 -0.1423
 6510SOL    HW220972   3.905   1.664   2.098  0.3386 -1.1479  1.7006
 6511SOL     OW20973   7.751   6.089  10.354  0.1623 -0.1842 -0.3609
 6511SOL    HW120974   7.691   6.050  10.291  1.3924  0.4148 -1.9570
 6511SOL    HW220975   7.828   6.031  10.352  0.6902  0.5083 -0.3182
 6512SOL     OW20976   2.157   1.448   2.301 -0.0141 -0.0748 -0.5623
 6512SOL    HW120977   2.246   1.418   2.279 -0.0399  0.8305 -2.0605
 6512SOL    HW220978   2.101   1.401   2.239 -0.4309  0.3457 -0.5047
 6513SOL     OW20979   3.479   0.729   0.094  0.1342 -0.0304 -0.1816
 6513SOL    HW120980   3.463   0.811   0.141  0.8955  0.6318 -1.0512
 6513SOL    HW220981   3.475   0.662   0.162  1.3344  0.9128  0.8694
 6514SOL     OW20982   1.158   3.778   8.471  0.1202 -0.5758 -0.1677
 6514SOL    HW120983   1.251   3.756   8.459 -0.3157 -1.4208 -2.4655
 6514SOL    HW220984   1.124   3.709   8.528  0.4207 -1.6346 -1.2321
 6515SOL     OW20985   6.309   4.056   1.092 -0.7630 -0.1241  0.3720
 6515SOL    HW120986   6.387   4.008   1.120 -1.5134 -1.0750  0.9022
 6515SOL    HW220987   6.327   4.147   1.116  0.7713 -0.0760 -0.8171
 6516SOL     OW20988   2.674   2.765   6.857  0.5979  0.5804  0.1372
 6516SOL    HW120989   2.731   2.834   6.891 -0.5735  2.0493 -0.7857
 6516SOL    HW220990   2.659   2.788   6.766  1.1102 -1.5545 -0.5549
 6517SOL     OW20991   0.755   1.816   9.612 -0.3132 -0.3913  0.2606
 6517SOL    HW120992   0.748   1.836   9.706 -1.2119 -1.1649  0.3713
 6517SOL    HW220993   0.698   1.741   9.599  1.3520 -1.5984 -0.5247
 6518SOL     OW20994   3.658   0.101   6.205  0.2986 -0.3096  0.3412
 6518SOL    HW120995   3.603   0.031   6.241 -0.4472  0.6256  1.0945
 6518SOL    HW220996   3.599   0.151   6.149  0.9785 -0.6134 -0.6707
 6519SOL     OW20997   7.483   3.082   8.509  0.7376 -0.2292  0.1058
 6519SOL    HW120998   7.424   3.020   8.466 -0.9218  2.7658 -2.3821
 6519SOL    HW220999   7.564   3.078   8.458 -0.1270  1.0472 -1.4710
 6520SOL     OW21000   6.258   0.703   1.035 -0.0264  0.1469 -0.3966
 6520SOL    HW121001   6.227   0.774   0.978  0.0631  0.1281 -0.4691
 6520SOL    HW221002   6.331   0.665   0.987  0.5795  0.6612  0.1060
 6521SOL     OW21003   2.224   0.475   4.157 -0.6169  0.5728  0.0336
 6521SOL    HW121004   2.254   0.458   4.067 -1.4981 -2.4272  0.1951
 6521SOL    HW221005   2.153   0.538   4.147 -0.3852  0.6520 -1.3160
 6522SOL     OW21006   2.284   0.707   7.699 -0.1343 -0.4439 -0.4987
 6522SOL    HW121007   2.231   0.712   7.620 -2.2689  1.4455  0.9267
 6522SOL    HW221008   2.291   0.797   7.730  1.9030 -0.9453  0.6939
 6523SOL     OW21009   7.384   1.672   6.236 -0.0662 -0.4474 -0.0793
 6523SOL    HW121010   7.341   1.610   6.295 -0.2762 -1.1366 -0.9332
 6523SOL    HW221011   7.400   1.750   6.290 -2.2318 -0.2248  0.3306
 6524SOL     OW21012   5.210   6.908   6.716  0.1705 -0.6376  0.0576
 6524SOL    HW121013   5.271   6.875   6.650  0.2983 -1.2451  0.4762
 6524SOL    HW221014   5.266   6.948   6.782 -0.0158  1.5239 -0.9946
 6525SOL     OW21015   5.395   1.541   3.238 -0.1702  0.1940 -0.1233
 6525SOL    HW121016   5.305   1.544   3.204 -0.3097  1.4263  0.3190
 6525SOL    HW221017   5.450   1.550   3.160 -0.4647  1.4397 -0.1966
 6526SOL     OW21018   2.284   2.158   8.094 -0.8076 -0.1223 -0.0365
 6526SOL    HW121019   2.220   2.222   8.064 -1.3071 -0.8251 -0.4963
 6526SOL    HW221020   2.302   2.184   8.185  0.1064  1.5287 -0.6416
 6527SOL     OW21021   6.738   4.185   2.494 -0.2052 -0.0007 -0.3745
 6527SOL    HW121022   6.668   4.242   2.525 -1.4229 -0.7850 -1.5791
 6527SOL    HW221023   6.749   4.208   2.402 -0.0154 -0.9876 -0.6144
 6528SOL     OW21024   1.444   6.659  10.952 -0.7423 -0.0143 -0.1715
 6528SOL    HW121025   1.380   6.618  11.011 -1.3885 -2.1189 -2.2040
 6528SOL    HW221026   1.404   6.742  10.927 -1.1630  0.1863  1.0689
 6529SOL     OW21027   4.052   7.431   6.049  0.6400 -0.5897 -0.0103
 6529SOL    HW121028   3.957   7.424   6.058  0.5734  1.4898  1.7911
 6529SOL    HW221029   4.065   7.478   5.966 -0.1635  2.0190  1.2164
 6530SOL     OW21030   2.064   7.000   6.492 -0.4416  0.5547  0.6805
 6530SOL    HW121031   2.137   6.990   6.431 -0.6098  1.0808  0.3890
 6530SOL    HW221032   2.013   6.920   6.481  0.5581 -0.2321  1.5373
 6531SOL     OW21033   6.573   1.476   2.084  0.2894 -0.8599  0.8415
 6531SOL    HW121034   6.601   1.411   2.019 -0.6251 -0.4081 -0.0450
 6531SOL    HW221035   6.573   1.559   2.036 -1.5787 -0.6925  1.0346
 6532SOL     OW21036   1.898   3.832   7.384  0.3197  0.0868  0.1220
 6532SOL    HW121037   1.842   3.817   7.309  1.3261  1.2582 -0.9143
 6532SOL    HW221038   1.897   3.749   7.432 -1.4291 -0.2418 -0.4148
 6533SOL     OW21039   6.878   6.864   3.169 -0.0061  0.3204  0.0539
 6533SOL    HW121040   6.911   6.816   3.092 -0.9644 -0.0374 -0.1471
 6533SOL    HW221041   6.793   6.823   3.188 -0.3259  1.2042  0.5703
 6534SOL     OW21042   2.889   4.192   7.586 -0.3086 -0.4219  0.1852
 6534SOL    HW121043   2.910   4.172   7.494  1.1165  1.5208  0.0334
 6534SOL    HW221044   2.916   4.114   7.634  2.4876 -0.0900 -0.6687
 6535SOL     OW21045   3.134   1.761   1.608 -0.7326 -0.1262  0.1384
 6535SOL    HW121046   3.226   1.743   1.625 -0.8646 -0.3796  0.5971
 6535SOL    HW221047   3.132   1.852   1.579 -0.1861 -0.5031 -1.1307
 6536SOL     OW21048   6.825   1.824   1.051 -0.2592 -0.2086  0.1698
 6536SOL    HW121049   6.730   1.831   1.057 -0.3423 -0.9117 -0.2316
 6536SOL    HW221050   6.856   1.914   1.063 -1.1112  0.4357 -1.9629
 6537SOL     OW21051   7.298   1.996   9.812  0.0192 -0.2287  0.6384
 6537SOL    HW121052   7.362   1.925   9.809 -0.8098 -1.0505 -3.2638
 6537SOL    HW221053   7.324   2.054   9.740 -1.3991  1.5511  1.4860
 6538SOL     OW21054   4.033   6.669  11.311  0.1760  0.4398  0.4684
 6538SOL    HW121055   4.105   6.710  11.263 -0.5307  0.1120 -0.9306
 6538SOL    HW221056   4.070   6.588  11.346  0.1406 -0.4645 -1.4932
 6539SOL     OW21057   4.703   4.336   2.985  0.2026 -0.4653 -0.0526
 6539SOL    HW121058   4.709   4.253   2.937 -1.3896  0.5047 -2.0838
 6539SOL    HW221059   4.693   4.310   3.076  2.0586 -2.4367 -0.2963
 6540SOL     OW21060   2.918   4.969   8.904 -0.2828  0.4573 -0.2046
 6540SOL    HW121061   2.910   4.959   8.998  0.9468  1.5940  0.0650
 6540SOL    HW221062   3.000   4.925   8.882 -1.1361 -0.8110 -0.9493
 6541SOL     OW21063   7.028   6.155   4.118 -0.3554 -0.5679  0.3946
 6541SOL    HW121064   6.960   6.151   4.050 -0.7284 -0.8219  0.7731
 6541SOL    HW221065   7.082   6.230   4.094  0.7532 -1.8339 -1.3208
 6542SOL     OW21066   5.573   0.470   6.862 -0.4607  0.4720 -0.8238
 6542SOL    HW121067   5.655   0.510   6.891 -0.9836  2.8022 -2.3348
 6542SOL    HW221068   5.506   0.513   6.915 -0.7483 -2.5883  1.6079
 6543SOL     OW21069   4.768   7.068  12.041 -0.0989 -0.4412 -0.1593
 6543SOL    HW121070   4.790   7.078  12.133  1.1132 -2.4157 -0.1814
 6543SOL    HW221071   4.672   7.077  12.038 -0.3505 -1.9965  1.5652
 6544SOL     OW21072   4.046   7.952   7.955 -1.1260  0.6572  0.9970
 6544SOL    HW121073   4.122   7.912   7.997 -1.8425 -0.0597  1.6289
 6544SOL    HW221074   4.068   8.045   7.949  0.5292  0.2316 -0.4163
 6545SOL     OW21075   2.100   4.139   1.477  0.1077 -0.0295  0.0180
 6545SOL    HW121076   2.086   4.196   1.553 -0.7521 -0.2236  0.0222
 6545SOL    HW221077   2.137   4.058   1.513  0.8069  0.3136  0.0797
 6546SOL     OW21078   0.006   2.967  10.481  0.3143 -0.2567 -0.3273
 6546SOL    HW121079  -0.027   2.962  10.392 -1.1749 -0.9379  0.2287
 6546SOL    HW221080   0.006   2.876  10.512 -0.5619  0.1036  0.8101
 6547SOL     OW21081   7.480   6.817   8.670 -0.1777  0.0628  0.1887
 6547SOL    HW121082   7.573   6.832   8.649 -0.4876 -1.0206 -2.2938
 6547SOL    HW221083   7.436   6.815   8.585 -2.4862  0.3777  1.2995
 6548SOL     OW21084   4.388   6.819   5.626 -0.0425 -0.2730  0.0215
 6548SOL    HW121085   4.324   6.752   5.652  1.4846 -1.7768  0.0946
 6548SOL    HW221086   4.362   6.844   5.537 -1.3772 -0.0143  0.4652
 6549SOL     OW21087   6.158   4.239   5.049 -0.2260  0.1879 -0.2257
 6549SOL    HW121088   6.147   4.169   5.113  1.3053 -0.0461 -0.1843
 6549SOL    HW221089   6.251   4.238   5.028 -0.3527  1.5699 -0.9744
 6550SOL     OW21090   5.390   0.588   7.342 -0.0234  0.2514  0.4679
 6550SOL    HW121091   5.307   0.624   7.372  0.3890  0.8678  0.8860
 6550SOL    HW221092   5.442   0.664   7.317 -0.0661 -0.1964 -1.1152
 6551SOL     OW21093   5.342   7.596   8.736 -0.5046  0.2636  0.2454
 6551SOL    HW121094   5.295   7.535   8.679 -1.0746 -0.3446  1.3187
 6551SOL    HW221095   5.423   7.551   8.758 -1.4034 -0.6460  1.9158
 6552SOL     OW21096   4.121   7.298   2.248 -0.2562 -0.3239 -0.5784
 6552SOL    HW121097   4.086   7.220   2.291  1.0372 -0.1545  0.9026
 6552SOL    HW221098   4.130   7.362   2.319  1.9139 -0.0071 -1.0731
 6553SOL     OW21099   6.505   1.793   9.944 -0.3847 -0.2799 -0.5651
 6553SOL    HW121100   6.479   1.709   9.904  0.2543 -0.0039 -1.6223
 6553SOL    HW221101   6.518   1.851   9.869 -0.5465  0.6885  0.1482
 6554SOL     OW21102   2.067   4.704   8.305 -0.3304  0.3043 -0.4869
 6554SOL    HW121103   2.105   4.674   8.388  1.4754 -0.2635 -1.4511
 6554SOL    HW221104   2.119   4.780   8.282 -1.3488  0.9391 -0.7289
 6555SOL     OW21105   4.455   1.728  11.455 -0.2354 -0.3473  0.1459
 6555SOL    HW121106   4.468   1.767  11.541  1.2626 -0.6935  0.1067
 6555SOL    HW221107   4.366   1.753  11.430 -0.6234 -0.0909  1.6998
 6556SOL     OW21108   2.732   3.313   4.979 -0.2550  0.2937 -0.0378
 6556SOL    HW121109   2.718   3.323   4.885 -3.3795 -1.2503  0.1761
 6556SOL    HW221110   2.727   3.219   4.995  1.8221  0.3672  1.5364
 6557SOL     OW21111   5.312   4.192   1.932  0.5961  0.5397  0.0400
 6557SOL    HW121112   5.353   4.276   1.911 -0.2658  1.4858  1.8887
 6557SOL    HW221113   5.237   4.215   1.987 -0.5852 -1.3506 -0.6865
 6558SOL     OW21114   7.621   5.942   4.894  0.3578  0.0969  0.3460
 6558SOL    HW121115   7.639   5.866   4.949  0.5736 -0.9806 -1.1568
 6558SOL    HW221116   7.705   5.986   4.886  0.7589 -0.8047 -0.6321
 6559SOL     OW21117   2.713   4.712   5.433 -0.1586 -0.3931  0.5789
 6559SOL    HW121118   2.725   4.695   5.340 -0.8892 -0.4326  0.4836
 6559SOL    HW221119   2.622   4.741   5.440  0.1085  0.3270  1.1772
 6560SOL     OW21120   3.861   3.714   5.081  0.2809 -0.3905 -0.2254
 6560SOL    HW121121   3.814   3.632   5.093  1.1318 -0.8931 -0.2230
 6560SOL    HW221122   3.798   3.772   5.039 -0.8460 -0.5201  1.2463
 6561SOL     OW21123   2.953   1.357   4.617 -0.6783 -0.4475 -0.1038
 6561SOL    HW121124   2.986   1.301   4.547  1.7480 -0.7812  1.1765
 6561SOL    HW221125   2.961   1.446   4.582 -1.5331 -0.7038 -0.9906
 6562SOL     OW21126   4.756   4.554   8.004 -0.3787 -0.7779 -0.0563
 6562SOL    HW121127   4.678   4.526   8.052 -0.0704 -0.9248  0.3566
 6562SOL    HW221128   4.815   4.587   8.071  0.0273 -0.9174 -0.3457
 6563SOL     OW21129   0.567   2.659   0.324 -0.5256 -0.2095  0.2386
 6563SOL    HW121130   0.584   2.750   0.350  0.2327 -0.5064  0.8261
 6563SOL    HW221131   0.475   2.645   0.346 -0.6573  0.4314  0.1077
 6564SOL     OW21132   4.734   2.270  10.100  0.1196  0.2906 -0.4242
 6564SOL    HW121133   4.779   2.206  10.046 -0.5596  1.3695 -2.3373
 6564SOL    HW221134   4.802   2.331  10.127  0.8491 -1.3227  1.7270
 6565SOL     OW21135   7.086   0.454   8.811 -0.1942  0.1018  0.5478
 6565SOL    HW121136   7.033   0.375   8.818 -1.8685  1.2081  1.0250
 6565SOL    HW221137   7.167   0.432   8.856 -0.8654 -1.1406  1.2216
 6566SOL     OW21138   1.713   4.452   3.614  0.1618 -0.2953 -0.9686
 6566SOL    HW121139   1.804   4.428   3.597  0.8418  2.0346 -1.0128
 6566SOL    HW221140   1.708   4.460   3.709  0.3064  0.5806 -1.0286
 6567SOL     OW21141   1.082   0.558   9.272 -0.3237 -0.1715  0.3528
 6567SOL    HW121142   0.987   0.573   9.276 -0.4143 -0.7710  0.6006
 6567SOL    HW221143   1.116   0.596   9.353 -0.0815  1.8125 -0.6381
 6568SOL     OW21144   2.179   3.504   8.042  0.4163 -0.4569  0.3276
 6568SOL    HW121145   2.142   3.535   7.959 -0.5150 -0.6217  0.6675
 6568SOL    HW221146   2.114   3.528   8.108  1.0812 -0.4554  0.9951
 6569SOL     OW21147   6.433   2.884  11.836  0.0700 -0.2668  0.3584
 6569SOL    HW121148   6.470   2.828  11.768  1.8910  2.0125 -0.6852
 6569SOL    HW221149   6.355   2.838  11.866 -0.4304 -1.7375 -2.7900
 6570SOL     OW21150   4.800   5.896   5.316 -0.3892 -0.2223 -0.2345
 6570SOL    HW121151   4.874   5.873   5.372  1.0060  2.7608 -0.6274
 6570SOL    HW221152   4.803   5.834   5.244  1.9128 -0.0508 -0.3439
 6571SOL     OW21153   4.218   7.881   1.349  0.1340  0.2880 -0.3324
 6571SOL    HW121154   4.292   7.943   1.352  0.8431 -0.5107 -0.7548
 6571SOL    HW221155   4.218   7.840   1.436  1.9121 -1.6075 -1.1266
 6572SOL     OW21156   6.980   0.071   9.751  0.0387 -0.1121 -0.1320
 6572SOL    HW121157   6.905   0.057   9.693 -0.0927  0.0003  0.0095
 6572SOL    HW221158   7.052   0.025   9.708 -0.7214 -2.6585  1.1090
 6573SOL     OW21159   4.442   1.823   6.626  0.3473 -0.0678  0.6610
 6573SOL    HW121160   4.443   1.861   6.714  2.1794 -0.2123  0.7392
 6573SOL    HW221161   4.476   1.734   6.639 -0.3386 -0.4418 -0.0532
 6574SOL     OW21162   3.490   0.298   7.955 -0.2745  0.0293  0.1027
 6574SOL    HW121163   3.417   0.322   8.012 -0.2991 -0.8698  0.4634
 6574SOL    HW221164   3.449   0.279   7.870 -0.3379  0.4961  0.0249
 6575SOL     OW21165   2.589   1.379  12.442  0.0280  0.1887 -0.0399
 6575SOL    HW121166   2.560   1.464  12.409 -0.7359  0.3011  0.8866
 6575SOL    HW221167   2.511   1.340  12.481  0.6881 -0.3413  0.7960
 6576SOL     OW21168   5.211   4.650   2.623 -0.3571 -0.4347 -0.0560
 6576SOL    HW121169   5.166   4.568   2.601 -1.4337 -0.1861  1.1009
 6576SOL    HW221170   5.297   4.622   2.656 -1.0648 -1.1950  1.2517
 6577SOL     OW21171   0.338   3.739   3.824  0.0414  0.6585 -0.4531
 6577SOL    HW121172   0.274   3.694   3.879 -0.4348  2.2643  0.3547
 6577SOL    HW221173   0.364   3.673   3.759  0.2875 -1.1606  1.3872
 6578SOL     OW21174   7.434   5.331  11.216  0.1628 -0.1824 -0.2658
 6578SOL    HW121175   7.372   5.353  11.285  0.0842  0.4814 -0.5467
 6578SOL    HW221176   7.471   5.415  11.188  2.4720 -0.6906  1.0734
 6579SOL     OW21177   6.519   0.191   8.223 -0.0583  0.1778 -0.4048
 6579SOL    HW121178   6.552   0.246   8.294 -0.2883 -0.3647  0.1285
 6579SOL    HW221179   6.464   0.126   8.266  0.5534 -0.7469 -0.9788
 6580SOL     OW21180   4.384   0.451   0.099  0.2453  0.4845  0.0310
 6580SOL    HW121181   4.452   0.465   0.164 -0.5672 -0.7413  1.2258
 6580SOL    HW221182   4.428   0.459   0.015  2.0162 -0.8288  0.7624
 6581SOL     OW21183   2.002   7.042   9.081  0.0411 -0.5456 -0.1110
 6581SOL    HW121184   1.912   7.017   9.104 -0.3676 -0.0632 -1.1429
 6581SOL    HW221185   2.027   7.107   9.147  0.0931 -1.5737  0.9123
 6582SOL     OW21186   0.422   4.593   4.456  0.2821 -0.0816  0.0551
 6582SOL    HW121187   0.386   4.586   4.368  2.4423 -0.1428 -0.8928
 6582SOL    HW221188   0.441   4.686   4.467  0.6896 -0.1747  0.1645
 6583SOL     OW21189   3.435   6.942   0.293  0.1157  0.4029  0.5033
 6583SOL    HW121190   3.435   6.900   0.379 -0.4496  0.9371  0.7639
 6583SOL    HW221191   3.354   6.992   0.290  0.5638  1.1225  0.0183
 6584SOL     OW21192   2.188   0.029   8.658  0.5237  0.2812  0.0286
 6584SOL    HW121193   2.254   0.027   8.727  0.1096  0.0271  0.4216
 6584SOL    HW221194   2.175   0.122   8.639  2.7524  0.3447 -1.7718
 6585SOL     OW21195   0.388   5.313  11.389  0.2632 -0.1613 -0.2636
 6585SOL    HW121196   0.350   5.279  11.470  1.5289  0.8216  0.8012
 6585SOL    HW221197   0.468   5.262  11.377  0.3922  0.1061 -0.5473
 6586SOL     OW21198   2.286   2.340   2.531  0.0635  0.1078 -0.0193
 6586SOL    HW121199   2.213   2.279   2.538  0.2938 -0.1914 -0.1612
 6586SOL    HW221200   2.247   2.424   2.509 -0.2030 -0.1405 -0.5017
 6587SOL     OW21201   0.418   2.970   6.144 -0.0583  0.0095  0.2843
 6587SOL    HW121202   0.439   2.938   6.056 -3.0285  0.8290 -0.8644
 6587SOL    HW221203   0.431   2.894   6.201  0.8577 -0.8659 -1.0398
 6588SOL     OW21204   1.412   2.078   6.751 -0.0713 -0.2720 -0.4196
 6588SOL    HW121205   1.411   2.105   6.659 -2.3795 -0.1860 -0.4243
 6588SOL    HW221206   1.324   2.096   6.782  1.2502  2.0279  2.5399
 6589SOL     OW21207   7.828   1.108   5.980  0.3213 -0.6877  0.2244
 6589SOL    HW121208   7.815   1.078   6.070 -0.2423 -0.1994  0.3108
 6589SOL    HW221209   7.875   1.190   5.988 -2.5102  1.0431  0.2783
 6590SOL     OW21210   7.785   0.491  11.261  0.4189 -0.0345 -0.1310
 6590SOL    HW121211   7.792   0.579  11.223  1.9077 -0.0954 -0.0418
 6590SOL    HW221212   7.825   0.433  11.196 -2.4460 -1.0128 -1.2048
 6591SOL     OW21213   0.681   4.495   1.573 -0.1595  0.0311  0.0405
 6591SOL    HW121214   0.718   4.418   1.530 -2.2833 -0.2791 -1.3397
 6591SOL    HW221215   0.623   4.461   1.640  0.9065  0.4957  1.2358
 6592SOL     OW21216   0.557   5.980   3.489 -0.3107  0.3325  0.4914
 6592SOL    HW121217   0.591   5.995   3.577  0.2836  2.8629 -0.1125
 6592SOL    HW221218   0.487   6.044   3.479  0.3350  0.8083 -1.2406
 6593SOL     OW21219   1.540   0.743   5.503 -0.0895  0.2769 -0.3948
 6593SOL    HW121220   1.506   0.731   5.415 -0.2135  1.4328 -0.5282
 6593SOL    HW221221   1.577   0.658   5.527  0.5910  0.1346 -1.8258
 6594SOL     OW21222   2.914   0.638   5.204 -0.1325  0.4343 -0.2240
 6594SOL    HW121223   2.859   0.566   5.173  0.0051 -0.0527  0.6178
 6594SOL    HW221224   3.002   0.617   5.172  0.4922 -1.3155  2.3403
 6595SOL     OW21225   2.367   5.648   2.708  0.1944 -0.0742  0.0756
 6595SOL    HW121226   2.347   5.693   2.625  1.3440  0.8919  0.2828
 6595SOL    HW221227   2.282   5.618   2.740 -0.4200  0.5622 -0.8831
 6596SOL     OW21228   5.354   7.867   1.474  0.0949 -0.1556  0.2593
 6596SOL    HW121229   5.315   7.892   1.558  1.1868  1.5271  0.3224
 6596SOL    HW221230   5.280   7.839   1.421 -0.7914  0.0071  1.3652
 6597SOL     OW21231   5.789   3.047   0.618  0.3145  0.0126 -0.3657
 6597SOL    HW121232   5.761   3.030   0.708  0.0493 -1.3644 -0.6886
 6597SOL    HW221233   5.871   3.095   0.628  1.0508 -1.3888  0.6359
 6598SOL     OW21234   3.294   5.084   2.120 -0.0543  0.2938  0.2318
 6598SOL    HW121235   3.262   5.018   2.181 -0.7466 -0.6816 -1.1340
 6598SOL    HW221236   3.371   5.043   2.079 -0.8026  0.0990 -1.0125
 6599SOL     OW21237   4.088   7.973   5.752 -0.0797  0.3530  0.4241
 6599SOL    HW121238   4.170   8.022   5.757  0.6571 -0.7337 -0.5269
 6599SOL    HW221239   4.078   7.952   5.660  0.9807 -3.4377  1.0225
 6600SOL     OW21240   0.150   1.446   6.562  0.2162  0.1196 -0.1449
 6600SOL    HW121241   0.234   1.468   6.522  0.7045 -0.1738  0.6902
 6600SOL    HW221242   0.147   1.351   6.563 -1.2347  0.0641 -2.3932
 6601SOL     OW21243   1.775   2.508   1.549  0.2856 -0.3982 -0.0375
 6601SOL    HW121244   1.772   2.557   1.467 -0.3836 -0.3220  0.0293
 6601SOL    HW221245   1.690   2.466   1.555  0.6071 -1.0291  0.2430
 6602SOL     OW21246   6.992   6.941   7.028 -0.3356 -0.5078 -0.1452
 6602SOL    HW121247   7.073   6.954   6.980  0.9674 -0.5182  1.9220
 6602SOL    HW221248   6.937   7.016   7.005  0.4276 -0.2435 -1.1735
 6603SOL     OW21249   5.032   2.958   6.310  0.2191  0.1440  0.2062
 6603SOL    HW121250   5.112   3.000   6.342  0.8249  0.8630 -2.0989
 6603SOL    HW221251   5.001   3.015   6.240 -0.8412 -1.5140 -0.7368
 6604SOL     OW21252   4.321   1.595   6.892  0.0690  0.4255  0.1542
 6604SOL    HW121253   4.346   1.688   6.897  2.4508 -0.2122  2.2306
 6604SOL    HW221254   4.398   1.548   6.924 -2.1741 -2.1277  2.2246
 6605SOL     OW21255   4.390   0.975   3.043 -0.5092 -0.5275 -0.1542
 6605SOL    HW121256   4.368   1.056   3.090  2.2745 -1.3894  3.0133
 6605SOL    HW221257   4.465   0.998   2.989  0.2380 -0.9312  0.6920
 6606SOL     OW21258   6.613   6.621   7.061  0.2117  0.0579  0.4723
 6606SOL    HW121259   6.585   6.688   7.123  0.5176  0.5298  0.1086
 6606SOL    HW221260   6.620   6.667   6.978 -2.0200 -0.9533 -0.3466
 6607SOL     OW21261   1.218   2.059   2.221  0.3709  0.6561 -0.0270
 6607SOL    HW121262   1.166   1.983   2.196  0.6024  0.8118 -1.0518
 6607SOL    HW221263   1.273   2.076   2.144 -0.8269  2.8308 -0.4795
 6608SOL     OW21264   0.022   1.773   6.386  1.0580 -0.2398 -0.7025
 6608SOL    HW121265  -0.008   1.826   6.459  1.5391 -1.5091  0.4710
 6608SOL    HW221266  -0.056   1.726   6.357  0.7163  0.7890 -1.4866
 6609SOL     OW21267   6.530   2.693  10.780  0.4701  0.4583 -0.3088
 6609SOL    HW121268   6.532   2.618  10.721 -1.3899  0.7631 -0.8067
 6609SOL    HW221269   6.471   2.668  10.850 -0.6339  1.6460 -0.7795
 6610SOL     OW21270   2.630   6.586   7.185  0.3654  0.9213  0.1396
 6610SOL    HW121271   2.694   6.560   7.119  1.0505  0.6485  0.8869
 6610SOL    HW221272   2.546   6.557   7.150  0.7287  0.7102 -0.5697
 6611SOL     OW21273   2.275   6.998   9.425 -0.7372 -0.4127  0.3187
 6611SOL    HW121274   2.335   6.934   9.462 -0.5583 -0.0716  0.6260
 6611SOL    HW221275   2.276   6.980   9.331  0.9316  0.4797  0.1190
 6612SOL     OW21276   5.127   2.451   7.992 -0.0610  0.2566  0.5075
 6612SOL    HW121277   5.164   2.490   7.913  0.4090 -0.2623  0.4634
 6612SOL    HW221278   5.035   2.478   7.992 -0.1647 -0.0592 -0.4158
 6613SOL     OW21279   7.317   4.486   9.084  0.6577 -0.2796  0.1819
 6613SOL    HW121280   7.399   4.535   9.088  0.7752 -0.5496  1.7718
 6613SOL    HW221281   7.292   4.474   9.175 -0.8915 -0.6566 -0.2610
 6614SOL     OW21282   7.492   5.443   4.399 -0.1462  0.0241 -0.3390
 6614SOL    HW121283   7.399   5.456   4.417 -0.6684  0.0862 -2.8008
 6614SOL    HW221284   7.507   5.350   4.417 -0.5487  0.1084  0.4968
 6615SOL     OW21285   6.415   4.750   7.151  0.3611 -0.4953  0.0090
 6615SOL    HW121286   6.328   4.719   7.125  0.2836 -1.2362  1.1108
 6615SOL    HW221287   6.456   4.675   7.194  0.4783  0.6446  2.0086
 6616SOL     OW21288   2.087   1.116   7.084 -0.0111  0.2953  0.6958
 6616SOL    HW121289   2.051   1.032   7.113  0.6331 -0.5330 -0.7666
 6616SOL    HW221290   2.121   1.157   7.163  0.4261 -1.2079  1.3184
 6617SOL     OW21291   7.344   3.432   0.458 -0.3696 -0.4938 -0.7763
 6617SOL    HW121292   7.258   3.391   0.448 -0.0002 -1.4879 -0.0336
 6617SOL    HW221293   7.375   3.402   0.543  0.5369  0.2009 -0.8463
 6618SOL     OW21294   5.132   1.983   8.521 -0.3811 -0.6479  0.2227
 6618SOL    HW121295   5.204   2.045   8.525 -0.7814 -0.2093  0.7411
 6618SOL    HW221296   5.056   2.031   8.553 -0.7776 -1.2894  0.2783
 6619SOL     OW21297   7.384   6.620   9.538 -0.1006  0.1486 -0.0744
 6619SOL    HW121298   7.336   6.703   9.541 -1.4527 -0.6409  1.0871
 6619SOL    HW221299   7.329   6.562   9.485 -1.5452 -1.3619  2.8412
 6620SOL     OW21300   4.729   0.930   9.075  0.0223  0.0382 -0.1610
 6620SOL    HW121301   4.698   0.951   8.987  0.9746 -0.8224 -0.7315
 6620SOL    HW221302   4.809   0.981   9.085  0.7382 -0.9812 -0.4127
 6621SOL     OW21303   4.638   4.898   2.911 -0.4621 -0.1097 -0.0206
 6621SOL    HW121304   4.656   4.951   2.989  0.4037 -0.7342  0.2144
 6621SOL    HW221305   4.563   4.941   2.870 -0.2763  0.8331  0.5961
 6622SOL     OW21306   0.085   7.813   8.794 -0.6903 -0.4763  0.1715
 6622SOL    HW121307   0.178   7.804   8.812 -0.7419  0.8775  1.2261
 6622SOL    HW221308   0.081   7.835   8.701  0.0881  0.1363  0.2780
 6623SOL     OW21309   6.118   2.476   2.077 -0.1819 -0.0834 -0.1601
 6623SOL    HW121310   6.141   2.561   2.114  0.7305 -0.5020  0.2637
 6623SOL    HW221311   6.028   2.460   2.107  0.1387  0.0914  0.9406
 6624SOL     OW21312   0.251   6.007   6.133  0.2671 -0.3256  0.4576
 6624SOL    HW121313   0.324   6.044   6.183  0.0410 -0.8606  1.2015
 6624SOL    HW221314   0.221   5.934   6.186  0.8650 -1.7588 -1.1085
 6625SOL     OW21315   0.064   4.258  11.282 -0.2500  0.1453  0.0499
 6625SOL    HW121316  -0.016   4.242  11.233  0.1031 -0.7973 -0.2371
 6625SOL    HW221317   0.035   4.283  11.370 -0.8555  0.3516 -0.2061
 6626SOL     OW21318   3.256   4.833   0.294 -0.4635  0.1101  0.1112
 6626SOL    HW121319   3.336   4.875   0.262 -1.4099  0.7151 -1.6205
 6626SOL    HW221320   3.285   4.777   0.365  1.5217  0.2174 -0.5446
 6627SOL     OW21321   3.205   2.039   0.369  0.3317 -0.5961  0.1462
 6627SOL    HW121322   3.285   2.067   0.324 -0.3601  0.1545 -0.6355
 6627SOL    HW221323   3.134   2.078   0.318 -0.6059 -2.3969  0.0182
 6628SOL     OW21324   6.558   1.912   4.541 -0.5359 -0.2374  0.5807
 6628SOL    HW121325   6.508   1.830   4.551 -0.5309 -0.0776  2.2731
 6628SOL    HW221326   6.605   1.901   4.459 -2.0619 -1.0977 -0.2272
 6629SOL     OW21327   7.219   4.883   8.273  0.1160 -0.4346  0.4047
 6629SOL    HW121328   7.169   4.945   8.220  0.1908 -0.4967  0.2613
 6629SOL    HW221329   7.310   4.914   8.267 -0.0511  0.3760  1.6190
 6630SOL     OW21330   2.947   1.244   2.482  0.6506  0.4185  0.2097
 6630SOL    HW121331   2.853   1.252   2.496  0.4528 -1.7287  0.3389
 6630SOL    HW221332   2.986   1.274   2.564 -0.0373 -0.7694  1.0077
 6631SOL     OW21333   3.186   2.465   6.981 -0.7018  0.4693  0.2102
 6631SOL    HW121334   3.245   2.427   6.916 -1.0380 -0.4648  0.4312
 6631SOL    HW221335   3.241   2.526   7.030  0.7133 -1.8541  1.7620
 6632SOL     OW21336   3.792   2.022   2.859  0.7817 -0.2133 -0.0631
 6632SOL    HW121337   3.823   2.104   2.820  1.9000  0.0183  1.2386
 6632SOL    HW221338   3.801   1.957   2.789  2.2852  0.2774 -0.3462
 6633SOL     OW21339   7.538   3.384   3.146  0.0474 -0.2175 -0.0785
 6633SOL    HW121340   7.521   3.292   3.167  0.6426 -0.2884  0.0909
 6633SOL    HW221341   7.574   3.382   3.057 -0.3400 -0.1045 -0.2440
 6634SOL     OW21342   0.479   4.425   0.773 -0.1137 -0.3387  0.8668
 6634SOL    HW121343   0.540   4.476   0.827  0.3875 -0.0492  0.0510
 6634SOL    HW221344   0.531   4.399   0.697 -1.6754  2.3114 -1.3009
 6635SOL     OW21345   5.360   3.962   5.345 -1.2298 -0.1709 -0.3992
 6635SOL    HW121346   5.319   3.915   5.273 -1.2010 -0.5251 -0.1838
 6635SOL    HW221347   5.292   3.966   5.412 -0.9602 -0.6428 -0.0921
 6636SOL     OW21348   6.660   4.747   5.742 -0.3526 -0.0431  0.2553
 6636SOL    HW121349   6.687   4.655   5.744  1.9677  0.6007  0.5618
 6636SOL    HW221350   6.647   4.771   5.833  0.3487  0.2796  0.2753
 6637SOL     OW21351   5.102   2.453   9.693  0.1138 -0.0294 -0.3622
 6637SOL    HW121352   5.127   2.484   9.606 -1.9090  1.3028 -0.5460
 6637SOL    HW221353   5.078   2.361   9.680  3.1203 -0.8998 -0.4571
 6638SOL     OW21354   3.159   4.837   9.978  0.2703  0.3516 -0.1439
 6638SOL    HW121355   3.227   4.904   9.982  0.4720  0.1318  0.1370
 6638SOL    HW221356   3.193   4.765  10.031  1.2051 -1.0043 -2.4261
 6639SOL     OW21357   5.279   0.722  11.227 -0.2534  0.4391 -0.7882
 6639SOL    HW121358   5.250   0.695  11.314  0.5885  1.9750  0.0209
 6639SOL    HW221359   5.204   0.705  11.170 -1.2889  0.5808  0.4853
 6640SOL     OW21360   4.182   0.549   8.599 -0.3266  0.2617 -0.3377
 6640SOL    HW121361   4.091   0.521   8.599 -0.5258  0.8406  0.8477
 6640SOL    HW221362   4.232   0.469   8.588 -0.9232 -0.3808  1.3836
 6641SOL     OW21363   3.825   1.923   0.927  0.6012 -0.1772  0.4969
 6641SOL    HW121364   3.820   1.846   0.871  2.7026 -0.2253  0.2801
 6641SOL    HW221365   3.905   1.968   0.898 -1.1536  2.7639 -0.2072
 6642SOL     OW21366   0.822   0.891   8.600  0.2520  0.3038 -0.7477
 6642SOL    HW121367   0.782   0.955   8.658  0.8477  0.5130 -0.5629
 6642SOL    HW221368   0.764   0.815   8.605  2.4281 -1.4251  3.5737
 6643SOL     OW21369   1.456   2.707   1.377 -0.1145 -0.3175  0.3128
 6643SOL    HW121370   1.424   2.793   1.348  0.1534 -1.0228 -2.3255
 6643SOL    HW221371   1.377   2.663   1.410 -0.1067  1.1746  2.5329
 6644SOL     OW21372   4.047   0.080   6.251 -0.2216 -0.0571  0.0236
 6644SOL    HW121373   4.126   0.086   6.304 -0.1387  0.2168 -0.1254
 6644SOL    HW221374   4.026   0.171   6.229 -0.6173 -0.1254  0.1205
 6645SOL     OW21375   3.062   6.663  11.912 -0.0975 -0.2531  0.5575
 6645SOL    HW121376   3.036   6.712  11.991 -1.4588 -0.3624  0.1870
 6645SOL    HW221377   3.061   6.729  11.842 -0.4948 -0.4998  0.3308
 6646SOL     OW21378   1.720   2.732   8.764  0.2635 -0.4227  0.3282
 6646SOL    HW121379   1.725   2.669   8.693  0.0458 -0.4717  0.3562
 6646SOL    HW221380   1.688   2.682   8.839 -1.0158 -0.0369  0.0533
 6647SOL     OW21381   6.840   0.100   9.987 -0.2340 -0.1864 -0.3320
 6647SOL    HW121382   6.899   0.108   9.913  0.2611 -1.3266 -0.0780
 6647SOL    HW221383   6.868   0.170  10.047  0.1906 -0.0668 -0.6621
 6648SOL     OW21384   4.949   7.966   7.990  0.5054  0.4807 -0.0156
 6648SOL    HW121385   4.981   7.998   8.075  2.2881 -2.3616  0.4978
 6648SOL    HW221386   5.028   7.953   7.938 -0.3392 -0.4571 -1.1139
 6649SOL     OW21387   2.741   5.707   3.459 -0.0535 -0.1417 -0.4315
 6649SOL    HW121388   2.666   5.766   3.453 -0.0703 -0.1120  0.0931
 6649SOL    HW221389   2.718   5.634   3.402 -0.1343  0.2408 -0.9017
 6650SOL     OW21390   7.936   6.746  10.442 -0.5304  0.4879 -0.2035
 6650SOL    HW121391   7.919   6.818  10.382 -0.7743  1.6521  1.1978
 6650SOL    HW221392   7.898   6.669  10.400 -0.5734  1.2338 -1.5731
 6651SOL     OW21393   7.612   0.252  11.836 -0.5762 -0.4071 -0.5217
 6651SOL    HW121394   7.572   0.270  11.752  1.4570 -0.1371 -1.4956
 6651SOL    HW221395   7.688   0.311  11.840 -0.1148 -1.0382  1.0965
 6652SOL     OW21396   6.561   5.131  10.312  0.3338  0.5474 -0.3224
 6652SOL    HW121397   6.539   5.163  10.224  0.2646  0.9903 -0.1497
 6652SOL    HW221398   6.614   5.202  10.350  0.8938  0.0877 -0.2320
 6653SOL     OW21399   0.328   5.473   0.512 -0.5631  0.3890  0.2374
 6653SOL    HW121400   0.310   5.505   0.601 -2.5027 -2.9536  1.1984
 6653SOL    HW221401   0.250   5.499   0.462 -0.0034  1.2153 -0.2323
 6654SOL     OW21402   0.568   1.586  12.407  0.2548 -0.1561  0.4234
 6654SOL    HW121403   0.599   1.498  12.427  1.1352 -0.6376 -2.5907
 6654SOL    HW221404   0.490   1.572  12.352  0.1824  0.9512  0.2241
 6655SOL     OW21405   2.071   4.908   2.349 -0.0317 -0.0472  0.5335
 6655SOL    HW121406   1.988   4.900   2.302  0.0989 -1.4970  0.5163
 6655SOL    HW221407   2.128   4.843   2.308  1.2017  1.0932  0.3856
 6656SOL     OW21408   5.268   6.687   5.731  0.3512  0.1309  0.3175
 6656SOL    HW121409   5.226   6.619   5.783  0.7183  1.1468  2.0065
 6656SOL    HW221410   5.200   6.718   5.672 -0.7567  0.4266  1.6890
 6657SOL     OW21411   1.642   7.250   4.103  0.2096  0.4472 -0.4942
 6657SOL    HW121412   1.654   7.213   4.190  0.2441 -0.9399 -1.0588
 6657SOL    HW221413   1.566   7.203   4.068 -0.0688  1.2983 -1.0482
 6658SOL     OW21414   3.995   0.860   1.138 -0.0469  0.2134  0.2951
 6658SOL    HW121415   4.063   0.814   1.188 -0.5859 -0.5843  0.2984
 6658SOL    HW221416   4.014   0.953   1.153  1.7172  0.0571 -0.5741
 6659SOL     OW21417   3.502   0.635   7.940 -0.5653 -0.3882  0.2781
 6659SOL    HW121418   3.452   0.605   8.016  0.0184  1.5460  1.5033
 6659SOL    HW221419   3.446   0.702   7.900  0.3687  0.7500  0.8063
 6660SOL     OW21420   7.335   4.686   6.066 -0.0310  0.4378  0.5346
 6660SOL    HW121421   7.266   4.730   6.116 -0.2810 -0.5442  1.0751
 6660SOL    HW221422   7.317   4.709   5.975 -0.2141  1.3607  0.7938
 6661SOL     OW21423   1.555   5.799   0.253  0.1754  0.0872 -0.0470
 6661SOL    HW121424   1.523   5.880   0.293 -0.2193  0.5714 -1.3140
 6661SOL    HW221425   1.477   5.756   0.218  0.5979  0.0142 -0.9054
 6662SOL     OW21426   0.586   7.602   4.844 -0.4574  0.1172  0.0075
 6662SOL    HW121427   0.593   7.580   4.937 -0.5538 -0.5283 -0.1279
 6662SOL    HW221428   0.493   7.623   4.831  0.2050  4.4521  0.9159
 6663SOL     OW21429   7.765   2.201   1.242 -0.4294 -0.5137  0.2449
 6663SOL    HW121430   7.780   2.107   1.230 -0.7049 -0.4845 -0.3376
 6663SOL    HW221431   7.815   2.222   1.321  0.2144 -1.0070 -0.0173
 6664SOL     OW21432   7.683   2.553   0.291  0.5643 -0.2343  0.5675
 6664SOL    HW121433   7.664   2.466   0.327  1.0581 -0.0708  1.2458
 6664SOL    HW221434   7.605   2.605   0.312 -1.7547 -1.5422 -3.6315
 6665SOL     OW21435   3.479   3.509   4.296 -0.2909 -0.3572 -0.1150
 6665SOL    HW121436   3.399   3.460   4.279  0.2101 -1.1910 -0.0783
 6665SOL    HW221437   3.470   3.540   4.386  0.3614 -2.2473  0.6277
 6666SOL     OW21438   2.885   3.580   4.868  0.0657  0.1666  0.0559
 6666SOL    HW121439   2.866   3.635   4.944  0.5819 -1.4511  1.4374
 6666SOL    HW221440   2.822   3.608   4.802  0.9492  3.0361  0.2905
 6667SOL     OW21441   1.233   6.397   0.467  0.1473 -0.2497 -0.5952
 6667SOL    HW121442   1.223   6.487   0.436  1.8569  0.0589 -0.3922
 6667SOL    HW221443   1.314   6.367   0.425  0.5268 -1.0750  0.6796
 6668SOL     OW21444   4.395   2.782   2.942  0.3177  0.1959 -0.2564
 6668SOL    HW121445   4.414   2.689   2.946 -0.3509  0.0808  0.4187
 6668SOL    HW221446   4.414   2.807   2.852  0.8208 -0.5196 -0.3510
 6669SOL     OW21447   1.342   1.590   8.200 -0.0594 -0.0761  0.0366
 6669SOL    HW121448   1.431   1.591   8.235  0.4717  0.8639 -1.2204
 6669SOL    HW221449   1.334   1.504   8.159 -0.3649 -0.8250  1.5907
 6670SOL     OW21450   5.812   3.533   9.249 -0.1863  0.4918 -0.7066
 6670SOL    HW121451   5.745   3.474   9.284  1.4455 -1.0306  0.0299
 6670SOL    HW221452   5.772   3.570   9.170 -1.7950 -0.5349 -0.4333
 6671SOL     OW21453   5.306   1.058   9.500 -0.2770 -0.0906 -0.1636
 6671SOL    HW121454   5.222   1.045   9.455 -1.1473  0.9960  1.0691
 6671SOL    HW221455   5.284   1.110   9.577  1.4122 -0.5116  0.6559
 6672SOL     OW21456   5.850   0.409   3.158 -0.0368 -0.0345  0.3497
 6672SOL    HW121457   5.818   0.343   3.219  0.3351 -1.9638 -1.4263
 6672SOL    HW221458   5.781   0.476   3.157 -1.4930 -1.4594  0.6303
 6673SOL     OW21459   6.058   5.915  10.071 -0.6702  0.3848 -0.2582
 6673SOL    HW121460   5.986   5.925  10.132 -0.2998 -2.1609  0.7011
 6673SOL    HW221461   6.027   5.852  10.006  0.7782 -1.1290  0.4441
 6674SOL     OW21462   4.901   4.515   2.868  0.0887  0.2776 -0.1708
 6674SOL    HW121463   4.831   4.457   2.898  0.1563  1.1261  1.8109
 6674SOL    HW221464   4.922   4.568   2.945  0.3793  2.5913 -1.7500
 6675SOL     OW21465   1.986   1.095  10.049  0.2187  0.2228  0.3840
 6675SOL    HW121466   2.040   1.133   9.980  0.6058  0.0211  0.5728
 6675SOL    HW221467   1.999   1.001  10.041 -0.3801  0.1528  0.2087
 6676SOL     OW21468   7.206   3.931   4.200 -0.1706 -0.1928  0.2514
 6676SOL    HW121469   7.142   4.002   4.187  0.0883  0.0227  0.1403
 6676SOL    HW221470   7.246   3.920   4.114 -1.3414 -1.5878 -0.1523
 6677SOL     OW21471   5.331   6.700   4.911  0.1120  0.1146 -0.1960
 6677SOL    HW121472   5.271   6.745   4.851 -0.9382  1.4146  1.7326
 6677SOL    HW221473   5.321   6.607   4.889 -0.2494  0.5424 -1.9884
 6678SOL     OW21474   0.547   6.865   6.785  0.0177  0.0606 -0.3520
 6678SOL    HW121475   0.526   6.852   6.693 -2.6666 -0.6114  0.2885
 6678SOL    HW221476   0.474   6.826   6.832  2.0535 -1.0755  2.1365
 6679SOL     OW21477   6.879   0.434  11.202  0.1576 -0.1017  0.1476
 6679SOL    HW121478   6.932   0.442  11.123 -0.2375  2.3218  0.0538
 6679SOL    HW221479   6.913   0.500  11.261  0.0021 -1.4206  1.7847
 6680SOL     OW21480   6.513   4.086  11.385 -0.1548  0.1871  0.1448
 6680SOL    HW121481   6.502   4.177  11.357  0.0718  0.0755 -0.3111
 6680SOL    HW221482   6.582   4.088  11.451 -1.2632  0.5700  1.3235
 6681SOL     OW21483   4.565   1.264   8.936 -0.2936  0.1002 -0.2159
 6681SOL    HW121484   4.603   1.216   8.862  0.1361  1.2541 -0.7691
 6681SOL    HW221485   4.488   1.213   8.960 -1.2636  0.4376 -2.3845
 6682SOL     OW21486   2.967   1.616   3.182  0.3923  0.3240 -0.3640
 6682SOL    HW121487   3.008   1.579   3.103  4.0650  0.9781  1.0161
 6682SOL    HW221488   2.933   1.701   3.153  2.0334  0.7391 -1.2514
 6683SOL     OW21489   5.657   2.903  10.337 -0.0130 -0.3961 -0.6604
 6683SOL    HW121490   5.685   2.972  10.397  0.6623 -0.8621 -0.4206
 6683SOL    HW221491   5.737   2.880  10.288 -0.2347 -0.9749 -0.7616
 6684SOL     OW21492   6.335   3.969   8.763 -0.2993  0.3040 -0.4153
 6684SOL    HW121493   6.371   3.883   8.742 -0.0852  0.8584 -2.4606
 6684SOL    HW221494   6.255   3.951   8.813 -0.0019 -1.0448 -0.4051
 6685SOL     OW21495   7.611   2.844   1.130 -0.1550 -0.4345 -0.3382
 6685SOL    HW121496   7.545   2.905   1.098  0.6799  0.1895 -0.9182
 6685SOL    HW221497   7.652   2.810   1.051  1.6531  0.8009  0.0031
 6686SOL     OW21498   0.993   2.499   2.879  0.0168 -0.7791 -0.5092
 6686SOL    HW121499   1.062   2.551   2.837 -0.5340  1.2498  0.9690
 6686SOL    HW221500   1.040   2.432   2.929  0.8797 -0.0814 -0.3659
 6687SOL     OW21501   2.205   4.898   0.670 -0.3224  0.9853 -0.5296
 6687SOL    HW121502   2.168   4.880   0.756 -0.3113  0.8875 -0.5456
 6687SOL    HW221503   2.299   4.895   0.684 -0.3202  1.1497 -0.5068
 6688SOL     OW21504   1.384   0.093  10.343 -0.5217  0.1902  0.0674
 6688SOL    HW121505   1.298   0.069  10.377 -1.3179  1.7735 -0.7285
 6688SOL    HW221506   1.377   0.084  10.248 -0.0732  1.0620 -0.0654
 6689SOL     OW21507   4.312   6.825   4.813  0.4297  0.2981  0.0158
 6689SOL    HW121508   4.314   6.812   4.908  0.2521 -0.9535 -0.1402
 6689SOL    HW221509   4.317   6.920   4.802 -1.0791  0.5715  1.3255
 6690SOL     OW21510   7.783   6.854   3.916  0.0218  0.2707  0.7021
 6690SOL    HW121511   7.694   6.885   3.897 -1.3706 -4.1983 -1.7302
 6690SOL    HW221512   7.772   6.793   3.989  0.2283 -2.6934 -1.5228
 6691SOL     OW21513   7.808   7.367  10.095  0.0030 -0.0835 -0.0245
 6691SOL    HW121514   7.894   7.325  10.095 -0.3030 -0.7258  0.7893
 6691SOL    HW221515   7.764   7.332  10.018  0.8468  1.0751 -1.0763
 6692SOL     OW21516   6.383   1.546  12.361 -0.5057  0.5955 -0.2664
 6692SOL    HW121517   6.307   1.581  12.407 -1.1649  0.2960 -1.1030
 6692SOL    HW221518   6.348   1.515  12.277  0.6464  1.0190 -0.9208
 6693SOL     OW21519   0.082   0.439   1.436 -0.0157  0.6129 -0.2659
 6693SOL    HW121520   0.022   0.388   1.490 -0.4347  2.0541  0.6691
 6693SOL    HW221521   0.032   0.516   1.411  0.2223  0.0732 -2.6331
 6694SOL     OW21522   3.664   7.817  10.671 -0.4172 -0.5327 -0.4296
 6694SOL    HW121523   3.614   7.737  10.683 -2.9704  1.0520  0.3703
 6694SOL    HW221524   3.610   7.871  10.613  1.5027  0.4425 -1.4375
 6695SOL     OW21525   6.673   2.903   6.788 -0.0227  0.2742 -0.5638
 6695SOL    HW121526   6.760   2.864   6.792  0.2920  0.9690 -0.3776
 6695SOL    HW221527   6.632   2.862   6.711  0.5904  0.1816 -0.8514
 6696SOL     OW21528   6.283   0.488  12.410 -0.0725  0.3682 -0.2890
 6696SOL    HW121529   6.273   0.487  12.314  1.4323 -0.1707 -0.4672
 6696SOL    HW221530   6.312   0.400  12.431  0.0199  0.6155  0.6274
 6697SOL     OW21531   5.188   6.138   8.686  0.4798  0.0975  0.6802
 6697SOL    HW121532   5.246   6.214   8.691  0.5949  0.2314 -1.6815
 6697SOL    HW221533   5.247   6.063   8.686  0.6662  0.2018 -0.7741
 6698SOL     OW21534   6.552   2.879   4.807  0.1879 -0.6320  0.0547
 6698SOL    HW121535   6.584   2.880   4.717 -1.1149  1.1900 -0.4633
 6698SOL    HW221536   6.607   2.943   4.852 -0.0511 -0.5233  0.1944
 6699SOL     OW21537   3.935   1.384   2.890  0.0611  0.1290  0.2976
 6699SOL    HW121538   3.871   1.405   2.821  1.5367 -0.1677 -1.2245
 6699SOL    HW221539   3.998   1.456   2.887  1.2272 -0.8746 -0.0430
 6700SOL     OW21540   5.247   6.969   6.148 -0.1103 -0.0085 -0.2890
 6700SOL    HW121541   5.251   6.960   6.053  1.6226 -1.7501 -0.1314
 6700SOL    HW221542   5.311   7.037   6.169 -0.4349  0.3191 -0.3546
 6701SOL     OW21543   5.340   1.140   4.857 -0.1237  0.3031  0.1289
 6701SOL    HW121544   5.251   1.119   4.831 -0.2117  0.0427  0.6263
 6701SOL    HW221545   5.336   1.150   4.952  0.0485  1.9077 -0.0036
 6702SOL     OW21546   4.382   1.431  10.109 -0.8475 -0.5180 -0.1107
 6702SOL    HW121547   4.337   1.350  10.134 -0.4743 -0.7620 -0.2199
 6702SOL    HW221548   4.401   1.420  10.016 -0.1525 -0.6200  0.0355
 6703SOL     OW21549   1.061   4.786   9.812 -0.2948  0.1727 -0.5949
 6703SOL    HW121550   0.986   4.791   9.753 -0.4507  1.6888 -0.3085
 6703SOL    HW221551   1.022   4.769   9.898 -0.1955 -0.4060 -0.6618
 6704SOL     OW21552   2.805   4.266   9.015 -0.0380 -0.2008  0.0317
 6704SOL    HW121553   2.847   4.193   8.969 -1.6671 -1.6102  0.7055
 6704SOL    HW221554   2.871   4.296   9.077  1.2128 -0.0475 -1.3100
 6705SOL     OW21555   7.013   4.828   4.186 -0.7498 -0.1556  0.3085
 6705SOL    HW121556   7.005   4.737   4.158 -1.9249  0.0076  0.0289
 6705SOL    HW221557   6.985   4.827   4.278  0.3199 -0.2433  0.6414
 6706SOL     OW21558   6.618   0.561   9.971  0.5333 -0.2305 -0.3057
 6706SOL    HW121559   6.566   0.492   9.930 -0.1512  0.3188 -0.3852
 6706SOL    HW221560   6.697   0.567   9.917 -0.3831  0.5264 -1.6149
 6707SOL     OW21561   0.719   1.861  12.378 -0.2616 -0.7813 -0.0369
 6707SOL    HW121562   0.725   1.769  12.353 -1.4392 -0.5234 -1.4048
 6707SOL    HW221563   0.626   1.879  12.385 -0.0558  0.3155  0.2084
 6708SOL     OW21564   6.786   0.877   0.993 -0.0985 -0.2889 -0.1199
 6708SOL    HW121565   6.768   0.804   1.052 -0.9208  0.2256  0.2733
 6708SOL    HW221566   6.826   0.836   0.916 -0.2413 -1.1148  0.2368
 6709SOL     OW21567   5.376   7.428   5.715 -0.3894  0.8176  0.4612
 6709SOL    HW121568   5.409   7.394   5.798  0.3848 -0.8210 -0.4505
 6709SOL    HW221569   5.294   7.380   5.700 -0.8680  1.5800  0.5685
 6710SOL     OW21570   6.543   7.956  12.108  0.4132 -0.0438 -0.0599
 6710SOL    HW121571   6.637   7.967  12.127  0.6836 -0.7408 -0.9130
 6710SOL    HW221572   6.514   8.043  12.080  1.1878 -0.1596 -1.2954
 6711SOL     OW21573   6.445   6.135  10.205  0.7591 -0.6890  0.2387
 6711SOL    HW121574   6.537   6.127  10.182  0.3662  0.5347 -2.0189
 6711SOL    HW221575   6.398   6.098  10.131 -0.6040 -1.1451  1.2841
 6712SOL     OW21576   2.201   3.120   7.990 -0.4371  0.3754  0.1296
 6712SOL    HW121577   2.296   3.123   7.985 -0.4822  0.7132 -0.6562
 6712SOL    HW221578   2.180   3.166   8.072  0.0536  0.8324  0.0066
 6713SOL     OW21579   3.051   6.622   9.067 -0.1428  0.6843 -0.4243
 6713SOL    HW121580   3.034   6.659   9.154 -2.1174 -0.4350 -0.2674
 6713SOL    HW221581   2.994   6.671   9.008  0.2248  0.5662 -0.8880
 6714SOL     OW21582   5.929   3.320   3.370  0.7328 -0.4148 -0.1151
 6714SOL    HW121583   5.962   3.270   3.296  0.8314 -1.0633  0.3629
 6714SOL    HW221584   5.906   3.255   3.436  1.3216  0.1874  0.7074
 6715SOL     OW21585   5.733   5.792   7.509  0.4286  0.1181 -0.2702
 6715SOL    HW121586   5.675   5.865   7.529 -0.0268  0.5931 -2.9516
 6715SOL    HW221587   5.781   5.776   7.590 -3.2304 -0.1498  2.0475
 6716SOL     OW21588   0.294   5.979   8.740  0.1048 -0.0781 -0.6200
 6716SOL    HW121589   0.309   5.889   8.711 -0.8703 -0.8593  1.1084
 6716SOL    HW221590   0.199   5.985   8.750  0.3396 -0.3047  3.3351
 6717SOL     OW21591   4.224   6.868   4.468 -0.3218  0.4009  0.6995
 6717SOL    HW121592   4.307   6.888   4.424 -1.5830  1.6807 -1.2087
 6717SOL    HW221593   4.230   6.914   4.552  0.7567  0.7491  0.4526
 6718SOL     OW21594   4.900   0.967   7.206  0.1011 -0.2006 -0.0260
 6718SOL    HW121595   4.973   0.944   7.264 -0.0431  0.4804  0.4438
 6718SOL    HW221596   4.878   1.057   7.231 -0.6919 -0.2893 -0.3846
 6719SOL     OW21597   4.940   3.153   3.375  0.0066 -0.0552  0.0373
 6719SOL    HW121598   4.851   3.129   3.403  0.3161 -0.0735  1.0737
 6719SOL    HW221599   4.928   3.217   3.306 -0.8273  0.6663  0.8257
 6720SOL     OW21600   4.799   2.034   9.958 -0.0243  0.1426  0.3569
 6720SOL    HW121601   4.787   1.942   9.982  2.0315 -0.4575 -0.7025
 6720SOL    HW221602   4.823   2.032   9.866 -0.9393  1.8506  0.0374
 6721SOL     OW21603   5.063   5.759  10.987 -0.5658  0.3242  0.1901
 6721SOL    HW121604   5.067   5.803  11.072  0.5966 -0.6946  0.6873
 6721SOL    HW221605   5.036   5.670  11.007 -1.9233  0.5045 -0.7103
 6722SOL     OW21606   2.664   6.484   3.257 -0.0824 -0.4978 -0.3292
 6722SOL    HW121607   2.585   6.435   3.234  0.2655 -1.5571  0.6361
 6722SOL    HW221608   2.718   6.480   3.179 -0.3103 -1.1670 -0.4598
 6723SOL     OW21609   6.855   2.806  10.168  0.0028  0.1157  0.0397
 6723SOL    HW121610   6.801   2.875  10.129  1.4869  0.6011 -1.2700
 6723SOL    HW221611   6.938   2.850  10.188  0.7821 -1.1583 -0.2935
 6724SOL     OW21612   2.061   7.376   9.463  0.6517  0.2459 -0.3433
 6724SOL    HW121613   2.148   7.400   9.497  0.5361 -0.6810  0.6479
 6724SOL    HW221614   2.037   7.297   9.511 -0.5292  0.1901 -0.9822
 6725SOL     OW21615   1.364   0.001   0.669  0.2533  0.6205  0.0779
 6725SOL    HW121616   1.459   0.013   0.669 -0.0377  3.8973 -0.6316
 6725SOL    HW221617   1.337   0.022   0.580 -1.0828 -1.6043 -0.1144
 6726SOL     OW21618   1.563   7.847   8.060  0.3298  0.1229 -0.3839
 6726SOL    HW121619   1.510   7.800   8.125 -0.2019  0.6714 -0.4153
 6726SOL    HW221620   1.513   7.927   8.042  1.7991  1.3140  0.5668
 6727SOL     OW21621   5.453   7.664   9.271 -0.1154  0.0414 -0.2705
 6727SOL    HW121622   5.414   7.591   9.222 -1.2009  0.2265  0.2648
 6727SOL    HW221623   5.381   7.695   9.326  1.3620 -0.9829  2.4129
 6728SOL     OW21624   5.929   0.971   4.299 -0.4590  0.0592  0.2867
 6728SOL    HW121625   5.874   1.011   4.367  1.2208  1.8860  0.6639
 6728SOL    HW221626   5.979   0.904   4.345  1.0632  1.6443  1.0850
 6729SOL     OW21627   4.291   5.620   5.568  0.0286 -0.0635 -0.2942
 6729SOL    HW121628   4.367   5.561   5.565 -1.6310 -2.3729  0.6231
 6729SOL    HW221629   4.299   5.672   5.488  2.2396 -0.6422 -0.5258
 6730SOL     OW21630   4.027   2.352   5.052 -0.1387  0.0533 -1.1091
 6730SOL    HW121631   3.954   2.414   5.048  0.2868  0.8224  1.2773
 6730SOL    HW221632   4.085   2.377   4.980 -1.6340  0.1595 -2.3312
 6731SOL     OW21633   1.202   1.112  12.161 -0.4718 -0.1002  0.0044
 6731SOL    HW121634   1.115   1.080  12.137 -0.8221  1.2165 -0.5840
 6731SOL    HW221635   1.207   1.199  12.121  0.9384  0.0340  0.4289
 6732SOL     OW21636   7.383   7.821  11.752  0.0632  0.6509 -0.2755
 6732SOL    HW121637   7.474   7.843  11.772 -0.2288  0.9883  0.7964
 6732SOL    HW221638   7.368   7.853  11.664  0.6068  1.8069  0.0396
 6733SOL     OW21639   4.970   2.441   6.939  0.3871 -0.1614  0.4033
 6733SOL    HW121640   4.892   2.458   6.991 -1.1232 -0.1586 -1.7322
 6733SOL    HW221641   4.984   2.522   6.889  1.7261 -0.2051  0.6468
 6734SOL     OW21642   3.674   4.620  11.535 -0.3373  0.0547 -0.0387
 6734SOL    HW121643   3.765   4.649  11.542  0.0934 -1.5392  2.2344
 6734SOL    HW221644   3.643   4.618  11.626 -1.5849 -2.5027 -0.4358
 6735SOL     OW21645   7.238   0.595  11.732  0.0362 -0.0972 -0.2582
 6735SOL    HW121646   7.190   0.623  11.655  1.5010  0.2109 -1.0992
 6735SOL    HW221647   7.325   0.635  11.723  0.9452 -1.7875  0.4478
 6736SOL     OW21648   7.566   5.744  10.177 -0.0231 -0.2463  0.5582
 6736SOL    HW121649   7.571   5.702  10.263 -1.3146 -1.3495  0.1309
 6736SOL    HW221650   7.591   5.676  10.115 -1.5262 -0.2309 -0.1067
 6737SOL     OW21651   2.749   1.311   6.776 -0.3976  0.6660 -0.1900
 6737SOL    HW121652   2.665   1.327   6.733 -0.0263 -1.7036 -1.9971
 6737SOL    HW221653   2.729   1.312   6.869 -2.0842  1.7815 -0.5274
 6738SOL     OW21654   5.998   3.909   4.629  0.0171 -0.2902  0.0068
 6738SOL    HW121655   5.916   3.955   4.615  0.0100 -0.0282  0.8096
 6738SOL    HW221656   6.012   3.859   4.550 -0.7525 -0.0828 -0.2683
 6739SOL     OW21657   3.350   5.330   3.740 -0.4003 -0.5702  0.2986
 6739SOL    HW121658   3.385   5.274   3.670 -2.6546 -1.1681 -0.4245
 6739SOL    HW221659   3.257   5.336   3.722 -1.0860 -0.7776  3.3080
 6740SOL     OW21660   5.952   5.205   1.190  0.2732 -0.4076  0.0843
 6740SOL    HW121661   5.989   5.146   1.256  1.5803 -0.0828 -0.3230
 6740SOL    HW221662   5.921   5.146   1.121  1.9419 -0.6610 -0.5053
 6741SOL     OW21663   1.997   6.114   6.621  1.1953  0.0665  0.1958
 6741SOL    HW121664   1.987   6.153   6.708 -0.8759 -0.1972  0.1328
 6741SOL    HW221665   1.936   6.041   6.620 -1.7692  2.2591 -2.6381
 6742SOL     OW21666   0.481   4.798   9.036 -0.5788  0.4063  0.1131
 6742SOL    HW121667   0.479   4.894   9.044 -2.6386  0.5075 -0.9340
 6742SOL    HW221668   0.389   4.772   9.045  0.1814 -1.7371  2.7065
 6743SOL     OW21669   0.156   7.019   6.210 -0.0218 -0.1234  0.0690
 6743SOL    HW121670   0.078   6.999   6.159 -1.2029  1.3465  1.2210
 6743SOL    HW221671   0.208   7.076   6.154  0.5980 -1.6401 -0.9634
 6744SOL     OW21672   2.099   2.603   7.009  0.6654 -0.2365  0.2183
 6744SOL    HW121673   2.046   2.524   7.015  0.3902  0.0511  2.1345
 6744SOL    HW221674   2.073   2.643   6.926 -0.9279 -0.9436  0.3423
 6745SOL     OW21675   5.897   7.041   2.635 -0.0106  0.3046  0.1104
 6745SOL    HW121676   5.832   7.110   2.646  1.0998  1.4045  0.0383
 6745SOL    HW221677   5.872   6.996   2.555 -1.5821 -0.3494  0.9140
 6746SOL     OW21678   4.080   5.105   5.322  0.1008  0.6160  0.0413
 6746SOL    HW121679   4.020   5.064   5.259  1.3846  0.9838 -1.4927
 6746SOL    HW221680   4.100   5.035   5.384  0.8841 -0.6439 -1.5260
 6747SOL     OW21681   4.321   7.925   2.981  0.1374 -0.1959 -0.1020
 6747SOL    HW121682   4.280   8.006   2.952  1.1829 -0.1495 -1.5276
 6747SOL    HW221683   4.323   7.869   2.903  1.1739 -0.8577  0.3683
 6748SOL     OW21684   6.813   1.092   7.737  0.1059  0.1976 -0.0935
 6748SOL    HW121685   6.752   1.108   7.809 -1.1005 -0.0896 -1.0213
 6748SOL    HW221686   6.770   1.027   7.682  1.1142  0.2123 -0.9496
 6749SOL     OW21687   1.801   6.451   7.402  0.8221  0.4979 -0.0685
 6749SOL    HW121688   1.710   6.481   7.403  0.3276 -0.9142 -0.3113
 6749SOL    HW221689   1.840   6.497   7.327 -0.2389 -0.3506 -1.1865
 6750SOL     OW21690   6.512   3.868  11.193 -0.3753 -0.2766 -0.9078
 6750SOL    HW121691   6.489   3.946  11.243  0.8407 -0.1670 -0.5053
 6750SOL    HW221692   6.508   3.896  11.102  0.4362  0.3696 -0.7539
 6751SOL     OW21693   5.204   2.606   3.753  0.0810 -0.2577  0.1527
 6751SOL    HW121694   5.117   2.615   3.714 -1.6897  0.4736  3.8416
 6751SOL    HW221695   5.234   2.696   3.767  0.8264 -0.5016  0.1730
 6752SOL     OW21696   5.582   4.727   8.023 -0.0750  0.1094 -0.3061
 6752SOL    HW121697   5.510   4.783   8.051 -0.5113  1.0591 -3.0267
 6752SOL    HW221698   5.661   4.779   8.040  0.1625 -1.1340  3.1596
 6753SOL     OW21699   1.101   1.598   6.456 -0.3322 -0.1992 -0.3985
 6753SOL    HW121700   1.147   1.554   6.384 -0.2160 -0.4117 -0.1946
 6753SOL    HW221701   1.168   1.651   6.499 -0.3638 -0.2046 -0.3423
 6754SOL     OW21702   6.986   0.570   9.083  0.2252 -0.2929  0.0751
 6754SOL    HW121703   6.965   0.516   9.007 -0.2982 -1.0391  0.7273
 6754SOL    HW221704   7.013   0.507   9.150  0.7307  0.3577  0.4916
 6755SOL     OW21705   0.063   7.115   4.041 -0.0804  0.3052  0.2675
 6755SOL    HW121706   0.051   7.054   3.969 -3.3413 -1.0216  1.7394
 6755SOL    HW221707   0.023   7.196   4.010 -0.1935  0.1875  0.1041
 6756SOL     OW21708   2.682   2.457  11.217 -0.0954 -0.2565  0.2832
 6756SOL    HW121709   2.777   2.469  11.223 -0.1233  1.8753 -2.1687
 6756SOL    HW221710   2.646   2.534  11.260 -0.7773 -1.1905  1.4432
 6757SOL     OW21711   4.813   4.062   1.199  0.7711  0.2348  0.0912
 6757SOL    HW121712   4.846   4.152   1.198 -0.4690  0.7720  1.8138
 6757SOL    HW221713   4.885   4.012   1.237  2.4484 -0.0400 -3.1203
 6758SOL     OW21714   6.677   5.667  11.089  0.4102  0.5773 -0.0182
 6758SOL    HW121715   6.589   5.631  11.087 -0.3782  2.3794 -1.7660
 6758SOL    HW221716   6.718   5.633  11.009  1.2763 -0.1426  0.7160
 6759SOL     OW21717   7.597   0.561  11.452  0.1060  0.6129  0.7885
 6759SOL    HW121718   7.603   0.573  11.546  0.9488 -0.1807  0.8484
 6759SOL    HW221719   7.674   0.509  11.429 -1.2945 -1.2530  0.0188
 6760SOL     OW21720   0.044   7.966   7.923  0.0250 -0.5167 -0.6193
 6760SOL    HW121721   0.063   7.976   8.016  0.7033 -0.7499 -0.7286
 6760SOL    HW221722  -0.017   7.893   7.919 -0.7886  0.1273 -0.2802
 6761SOL     OW21723   6.841   4.140   6.149  0.2487  0.1406 -0.0835
 6761SOL    HW121724   6.750   4.112   6.146  0.0095  0.9989 -2.3492
 6761SOL    HW221725   6.843   4.208   6.217 -0.5296 -0.6879  0.7858
 6762SOL     OW21726   6.739   3.714   5.919 -0.1897 -0.6370  0.1580
 6762SOL    HW121727   6.655   3.759   5.932 -0.3834 -0.4642 -1.4463
 6762SOL    HW221728   6.801   3.762   5.974 -0.7416  0.4940 -0.1816
 6763SOL     OW21729   2.557   1.593   1.146 -0.4667  0.4326  0.0837
 6763SOL    HW121730   2.587   1.660   1.208  0.2446 -0.6299  0.9183
 6763SOL    HW221731   2.634   1.573   1.093 -0.2479 -0.7838  0.8328
 6764SOL     OW21732   2.369   6.682   7.453 -0.5587 -0.0628 -0.3945
 6764SOL    HW121733   2.309   6.651   7.385  0.5286 -1.1568 -0.9155
 6764SOL    HW221734   2.346   6.773   7.466 -2.7308 -0.6120 -0.1056
 6765SOL     OW21735   0.943   7.141   9.627 -0.2939  0.6256  0.8464
 6765SOL    HW121736   0.902   7.212   9.578  1.1697  0.8441 -0.1112
 6765SOL    HW221737   0.940   7.171   9.718 -0.1916  1.6568  0.5222
 6766SOL     OW21738   2.808   0.777   5.422 -0.3290  0.1289 -0.1848
 6766SOL    HW121739   2.886   0.802   5.470 -0.8383 -0.4316  0.9881
 6766SOL    HW221740   2.839   0.713   5.357  0.0882 -0.7618  0.8460
 6767SOL     OW21741   6.733   5.060   8.553  0.5048  0.4555  0.5180
 6767SOL    HW121742   6.700   4.971   8.546 -1.8404  1.2444  0.6451
 6767SOL    HW221743   6.758   5.069   8.645  2.8964 -0.7014  0.0501
 6768SOL     OW21744   4.384   4.110   7.923 -0.0348  0.2709 -0.0555
 6768SOL    HW121745   4.430   4.029   7.901 -1.4592 -0.7998  0.7536
 6768SOL    HW221746   4.300   4.081   7.959 -1.1116  2.1382 -0.9150
 6769SOL     OW21747   5.742   4.546   9.968  0.6067 -0.5301  0.1598
 6769SOL    HW121748   5.730   4.638   9.993 -3.4509 -1.0332  0.7600
 6769SOL    HW221749   5.835   4.529   9.987  1.1480  2.9523  1.6112
 6770SOL     OW21750   7.867   1.368   2.417  0.7142 -0.0754 -0.3227
 6770SOL    HW121751   7.960   1.387   2.423  0.5627  0.5477  0.1652
 6770SOL    HW221752   7.833   1.432   2.354  0.9920 -1.7668 -2.3106
 6771SOL     OW21753   3.985   1.197   8.331  0.1381 -0.4093 -0.0793
 6771SOL    HW121754   3.916   1.237   8.278 -1.0255 -0.3517  1.4124
 6771SOL    HW221755   4.056   1.262   8.331 -0.5503  0.3517 -0.1192
 6772SOL     OW21756   3.720   7.956  10.945  1.2793  0.3692  0.2928
 6772SOL    HW121757   3.670   7.901  11.006  0.8576 -0.3809 -0.7062
 6772SOL    HW221758   3.714   7.910  10.861  0.2701  2.3137 -0.7692
 6773SOL     OW21759   1.929   0.961   4.244 -0.4504  0.1486 -0.1857
 6773SOL    HW121760   1.932   0.887   4.304 -0.1072 -0.8865 -1.4464
 6773SOL    HW221761   1.895   0.925   4.163  0.5820  1.1646 -1.1056
 6774SOL     OW21762   2.932   0.900   9.507 -0.3253 -0.7560  0.2200
 6774SOL    HW121763   2.952   0.966   9.573  2.4767 -1.9902  0.7440
 6774SOL    HW221764   2.913   0.821   9.558  1.7180 -1.6836 -0.3605
 6775SOL     OW21765   6.721   2.346   5.072  0.3274 -0.0930  0.1455
 6775SOL    HW121766   6.686   2.284   5.008 -1.8435  2.3309 -1.2194
 6775SOL    HW221767   6.773   2.407   5.021  1.4982 -0.1047  1.2788
 6776SOL     OW21768   1.185   0.934   2.913 -0.0905 -0.4552 -0.2694
 6776SOL    HW121769   1.181   0.862   2.976 -0.0577  0.5494  0.9283
 6776SOL    HW221770   1.230   0.897   2.837  1.3899 -1.2644  0.9319
 6777SOL     OW21771   6.732   0.260   5.773 -0.1932 -0.0472 -0.6836
 6777SOL    HW121772   6.790   0.329   5.807  1.2552 -1.6605  0.3026
 6777SOL    HW221773   6.651   0.271   5.822  0.5171  0.1005  0.5151
 6778SOL     OW21774   2.443   3.434   9.238  0.0319 -0.7305  0.3849
 6778SOL    HW121775   2.418   3.496   9.307  2.1942 -0.0688  0.6765
 6778SOL    HW221776   2.509   3.482   9.187 -0.1205 -1.9084 -0.9782
 6779SOL     OW21777   6.252   2.862   2.291  0.2617  0.5460  0.0647
 6779SOL    HW121778   6.277   2.893   2.204  0.5047 -0.4709 -0.2445
 6779SOL    HW221779   6.242   2.942   2.343 -1.0995  1.2456 -1.2027
 6780SOL     OW21780   2.682   4.640   4.852  0.1091  0.4376 -0.4718
 6780SOL    HW121781   2.770   4.604   4.865 -0.2726  0.1513  1.8347
 6780SOL    HW221782   2.625   4.579   4.900 -0.9656  2.2120  0.6074
 6781SOL     OW21783   3.321   1.862   1.315  0.0883  0.7470  0.1860
 6781SOL    HW121784   3.318   1.772   1.346 -0.4864  0.8780  0.5352
 6781SOL    HW221785   3.322   1.915   1.395 -0.5752  1.0719 -0.0146
 6782SOL     OW21786   7.675   7.883   7.246  0.0774  0.4326 -0.3348
 6782SOL    HW121787   7.678   7.804   7.300  1.7638 -0.2671 -1.3724
 6782SOL    HW221788   7.610   7.939   7.288 -0.7991 -1.3026  0.7042
 6783SOL     OW21789   3.297   6.766   4.611  0.0402 -0.3859  0.3767
 6783SOL    HW121790   3.236   6.794   4.679  0.7923  1.5672  0.3050
 6783SOL    HW221791   3.342   6.690   4.648 -1.4315 -1.0021  0.9681
 6784SOL     OW21792   7.893   0.052  11.056  0.1952  0.7126 -0.1058
 6784SOL    HW121793   7.852   0.009  10.981  0.5862 -1.2678  0.7555
 6784SOL    HW221794   7.972   0.002  11.072  0.4064  1.4487  1.2932
 6785SOL     OW21795   5.161   0.418   0.389  0.4742  0.2726 -0.8126
 6785SOL    HW121796   5.201   0.392   0.307 -1.6076 -0.5211 -1.6594
 6785SOL    HW221797   5.109   0.496   0.367  0.9081  0.8321  0.0631
 6786SOL     OW21798   2.788   5.969  10.977  0.0840  0.3664  0.4347
 6786SOL    HW121799   2.867   6.005  10.938  0.8818  0.1820  1.8053
 6786SOL    HW221800   2.751   5.911  10.910  1.6213 -0.2649  0.0912
 6787SOL     OW21801   5.841   4.609   6.911  0.1660 -0.3262 -0.6242
 6787SOL    HW121802   5.844   4.639   6.820 -0.4401 -1.3257 -0.9904
 6787SOL    HW221803   5.783   4.672   6.955  1.0270  0.5762 -0.7439
 6788SOL     OW21804   4.342   6.681   2.966 -0.0301 -0.0960  0.3842
 6788SOL    HW121805   4.306   6.617   3.028  0.9376  0.1396  1.2126
 6788SOL    HW221806   4.368   6.629   2.890  1.0084 -0.7530  1.1577
 6789SOL     OW21807   0.342   1.529  10.243 -0.1000  0.1567  0.1333
 6789SOL    HW121808   0.421   1.476  10.235 -0.1438  0.2867 -1.7119
 6789SOL    HW221809   0.370   1.618  10.220 -0.2593  0.7521  2.0833
 6790SOL     OW21810   6.201   1.372   1.598  0.1440  0.0409  0.3316
 6790SOL    HW121811   6.235   1.284   1.580 -4.4165 -1.7116 -1.1467
 6790SOL    HW221812   6.172   1.368   1.689  1.4794  0.7027  0.8165
 6791SOL     OW21813   5.406   0.285   4.453 -0.4041 -0.3749 -0.4792
 6791SOL    HW121814   5.489   0.323   4.421  0.5577 -1.4179  0.6880
 6791SOL    HW221815   5.373   0.349   4.516  0.0248 -0.3977 -0.2263
 6792SOL     OW21816   6.060   0.425   4.869 -0.4095 -0.4744 -0.0150
 6792SOL    HW121817   6.020   0.443   4.954 -0.5538  1.1645 -0.4025
 6792SOL    HW221818   6.021   0.490   4.810  2.0487  0.5574 -0.6308
 6793SOL     OW21819   7.473   2.962   7.150  0.5117  0.3423  0.4224
 6793SOL    HW121820   7.415   2.934   7.079  1.5711  1.1584 -0.8177
 6793SOL    HW221821   7.433   3.042   7.183  0.0657  0.0116  0.6978
 6794SOL     OW21822   7.561   3.690   2.552 -0.4202 -0.2337 -0.3717
 6794SOL    HW121823   7.580   3.783   2.538  0.1610 -0.0841  1.2236
 6794SOL    HW221824   7.563   3.679   2.647  0.2727 -2.0441 -0.5597
 6795SOL     OW21825   6.040   2.697   2.253  0.5119  0.5415 -0.6550
 6795SOL    HW121826   6.107   2.764   2.265 -0.0510  1.1176 -0.6250
 6795SOL    HW221827   5.958   2.743   2.272  0.2489 -0.6753  1.5236
 6796SOL     OW21828   1.695   7.537   8.215 -0.3859 -0.6213  0.0976
 6796SOL    HW121829   1.690   7.631   8.234 -0.1799 -0.8487  1.3330
 6796SOL    HW221830   1.705   7.533   8.120 -0.2332  0.6159  0.0405
 6797SOL     OW21831   2.441   3.286   2.944 -0.1837 -0.2614 -0.4096
 6797SOL    HW121832   2.522   3.277   2.994 -0.6844 -0.3940  0.3943
 6797SOL    HW221833   2.435   3.380   2.926 -0.6202 -0.0223  0.8731
 6798SOL     OW21834   6.111   6.299   8.299  0.0572  0.2855 -0.3416
 6798SOL    HW121835   6.113   6.377   8.244 -0.7008 -0.1257 -0.9807
 6798SOL    HW221836   6.203   6.271   8.305  0.4757  1.7854  0.7476
 6799SOL     OW21837   4.744   0.490   4.186  0.4307 -0.4405  0.3466
 6799SOL    HW121838   4.673   0.483   4.122  0.9473  0.3093 -0.3207
 6799SOL    HW221839   4.812   0.540   4.141  1.5865 -1.5541  0.8046
 6800SOL     OW21840   1.094   2.364   0.236  0.1177 -0.0983 -0.3054
 6800SOL    HW121841   1.108   2.270   0.222 -0.0012 -0.2857  0.7880
 6800SOL    HW221842   1.158   2.389   0.301  0.3886  0.6749 -0.8513
 6801SOL     OW21843   2.380   4.278   5.297  0.4151 -0.0559  0.0965
 6801SOL    HW121844   2.370   4.231   5.214  0.4845  0.4217 -0.1892
 6801SOL    HW221845   2.420   4.362   5.272 -0.1009  0.3284  0.5403
 6802SOL     OW21846   5.411   3.673  10.545  0.4424 -0.2750 -0.4885
 6802SOL    HW121847   5.370   3.755  10.569 -0.7218 -0.9175 -0.2205
 6802SOL    HW221848   5.456   3.692  10.462 -1.7857  0.0548 -1.7012
 6803SOL     OW21849   5.784   2.440   0.789 -0.4847  0.0951  0.1264
 6803SOL    HW121850   5.844   2.367   0.778  1.5047  1.5756  0.4593
 6803SOL    HW221851   5.821   2.490   0.862 -2.1522  1.0752  0.3475
 6804SOL     OW21852   0.918   7.641   2.713 -0.2577  0.4932 -0.2671
 6804SOL    HW121853   1.004   7.606   2.691  1.0497  3.2751  0.1185
 6804SOL    HW221854   0.926   7.668   2.805 -2.9317 -2.9763  1.2530
 6805SOL     OW21855   4.435   5.208   9.063  0.0860  0.1172 -0.3912
 6805SOL    HW121856   4.361   5.181   9.009 -0.7915 -0.3676  0.9892
 6805SOL    HW221857   4.477   5.126   9.089 -0.6259  0.1995  1.1511
 6806SOL     OW21858   6.438   6.379   2.780 -0.4763 -0.3260  0.1615
 6806SOL    HW121859   6.452   6.409   2.690  0.5054 -0.1023  0.3719
 6806SOL    HW221860   6.413   6.287   2.771 -1.1744 -0.0895 -0.3734
 6807SOL     OW21861   2.450   7.814   8.036 -0.0062  0.1743  0.4973
 6807SOL    HW121862   2.371   7.766   8.011  1.1897 -0.2679 -3.0830
 6807SOL    HW221863   2.507   7.747   8.074  0.4435 -0.7081 -1.5608
 6808SOL     OW21864   4.521   2.557  11.755 -0.0433 -0.2127 -0.0464
 6808SOL    HW121865   4.511   2.466  11.728  0.1461 -0.3622  0.3825
 6808SOL    HW221866   4.545   2.552  11.848 -0.6323  0.2858  0.1410
 6809SOL     OW21867   7.118   1.056   6.273  0.1436 -0.5179  0.6329
 6809SOL    HW121868   7.056   0.997   6.230  0.4959 -0.4775  0.0739
 6809SOL    HW221869   7.100   1.142   6.235  2.5481 -0.9736 -1.8045
 6810SOL     OW21870   7.384   6.762   1.339 -0.1595 -0.0636 -0.2682
 6810SOL    HW121871   7.446   6.810   1.395 -0.2639  0.1306 -0.3177
 6810SOL    HW221872   7.434   6.744   1.259 -0.6121  1.4142 -0.9241
 6811SOL     OW21873   6.541   0.599   6.096  0.1579  0.1221 -0.1057
 6811SOL    HW121874   6.538   0.529   6.161  0.4911 -0.7543 -1.0140
 6811SOL    HW221875   6.469   0.657   6.121  0.2351 -0.2251  0.9967
 6812SOL     OW21876   1.171   6.975   2.510 -0.2232  0.1335 -0.3962
 6812SOL    HW121877   1.221   6.980   2.428  2.7486  0.7862  1.3286
 6812SOL    HW221878   1.192   6.889   2.546 -1.8965 -0.3441 -0.4705
 6813SOL     OW21879   4.783   1.868   9.190 -0.3408 -0.2000  0.0833
 6813SOL    HW121880   4.815   1.957   9.205 -0.4426 -0.3816  1.4957
 6813SOL    HW221881   4.832   1.814   9.252 -0.0752 -1.1805 -0.9617
 6814SOL     OW21882   2.119   7.800   5.193 -0.6891  0.2504  0.2019
 6814SOL    HW121883   2.071   7.720   5.216  2.0907 -1.6842 -0.2120
 6814SOL    HW221884   2.122   7.799   5.097 -0.8842  1.0354  0.1823
 6815SOL     OW21885   3.337   7.092  11.410 -0.6582  0.1605  0.6095
 6815SOL    HW121886   3.337   7.032  11.485  0.3685 -1.0990 -0.3468
 6815SOL    HW221887   3.314   7.038  11.335 -0.9945  1.2545 -0.1070
 6816SOL     OW21888   5.670   0.155   5.695 -0.2962  0.9364 -0.2747
 6816SOL    HW121889   5.694   0.233   5.746 -3.6225  1.9466 -0.0038
 6816SOL    HW221890   5.674   0.083   5.759  0.5146  1.2864  0.0838
 6817SOL     OW21891   6.531   7.327  10.666 -0.0065 -0.4583 -0.2134
 6817SOL    HW121892   6.485   7.246  10.645  0.4804 -0.6310 -0.6043
 6817SOL    HW221893   6.610   7.325  10.614  0.6427 -0.3270  0.7409
 6818SOL     OW21894   3.732   6.195   3.713  0.6503 -0.0987  0.4141
 6818SOL    HW121895   3.797   6.218   3.646  0.6364  0.9484  0.7461
 6818SOL    HW221896   3.757   6.107   3.741  1.8638  0.2410  0.4631
 6819SOL     OW21897   7.342   1.097   7.633  0.4032 -0.0904 -0.2781
 6819SOL    HW121898   7.312   1.187   7.643 -2.6744 -0.8544 -1.5799
 6819SOL    HW221899   7.342   1.062   7.722 -1.9827  0.2188 -0.0914
 6820SOL     OW21900   7.654   4.247   0.050 -0.4938 -0.2852  0.1505
 6820SOL    HW121901   7.688   4.161   0.075  0.2657 -0.0806 -0.1444
 6820SOL    HW221902   7.600   4.274   0.125  0.3607 -0.4285  0.8346
 6821SOL     OW21903   7.031   0.191  11.815 -0.8666  0.4229 -1.1406
 6821SOL    HW121904   7.102   0.231  11.765  0.4279  0.0406  0.3332
 6821SOL    HW221905   7.026   0.101  11.783 -1.5351  0.7834 -2.0991
 6822SOL     OW21906   2.191   7.152   2.325 -0.1785 -0.1966  0.2068
 6822SOL    HW121907   2.199   7.139   2.230 -0.5837  0.3063  0.1004
 6822SOL    HW221908   2.276   7.188   2.351  0.0991 -0.7780  0.1156
 6823SOL     OW21909   4.682   6.036   3.993 -0.2085 -0.2672 -0.3422
 6823SOL    HW121910   4.745   5.969   3.967  1.6702  1.9701 -2.0365
 6823SOL    HW221911   4.649   6.071   3.910 -1.6471  0.4866  0.5050
 6824SOL     OW21912   4.998   4.362  12.177 -0.1084 -0.1961  0.7945
 6824SOL    HW121913   4.997   4.440  12.233  1.1004  0.0844  0.4502
 6824SOL    HW221914   4.918   4.314  12.202 -0.1345  0.4333  2.0239
 6825SOL     OW21915   6.102   6.973   8.212  0.1742  0.2389  0.0834
 6825SOL    HW121916   6.015   6.935   8.224 -0.5307  1.3338 -1.3032
 6825SOL    HW221917   6.149   6.910   8.157  0.4963 -0.6281  1.2971
 6826SOL     OW21918   5.638   0.696   3.475  0.3709  0.3533 -0.1947
 6826SOL    HW121919   5.702   0.739   3.531  0.2703  2.8912 -1.8422
 6826SOL    HW221920   5.555   0.704   3.522  0.3001  2.3738 -0.5660
 6827SOL     OW21921   1.358   7.059   9.700  0.2742 -0.0193  0.4615
 6827SOL    HW121922   1.291   7.054   9.632  0.0402 -1.0229  0.7463
 6827SOL    HW221923   1.370   6.968   9.728 -1.4356  0.5469  3.5018
 6828SOL     OW21924   6.241   0.755   0.459 -0.4356  0.1946 -0.0831
 6828SOL    HW121925   6.198   0.788   0.380  0.6924 -0.1709 -0.8720
 6828SOL    HW221926   6.333   0.745   0.434 -0.3258 -1.3230  0.8279
 6829SOL     OW21927   0.764   7.818   9.073 -0.3471 -0.1028  0.3924
 6829SOL    HW121928   0.828   7.792   9.007  0.1810  1.1743  0.3597
 6829SOL    HW221929   0.750   7.739   9.126  0.3835 -0.7179 -0.3096
 6830SOL     OW21930   4.475   5.251   6.958 -0.3307  0.2434  0.0248
 6830SOL    HW121931   4.529   5.204   7.022  1.0159  1.6716  0.0059
 6830SOL    HW221932   4.423   5.182   6.916  0.3507 -1.0029  1.1257
 6831SOL     OW21933   0.235   6.877   3.406  0.1622 -0.5781  0.2654
 6831SOL    HW121934   0.315   6.877   3.354  0.3291  3.8404  0.0817
 6831SOL    HW221935   0.165   6.856   3.345  0.6875  1.4264 -1.1277
 6832SOL     OW21936   6.793   5.762   8.805  0.2714 -0.2661 -0.0784
 6832SOL    HW121937   6.715   5.714   8.832  1.2362 -1.5399  0.5543
 6832SOL    HW221938   6.800   5.745   8.711 -0.7650  0.6981 -0.3378
 6833SOL     OW21939   2.685   4.014   9.140 -0.6785  0.3853 -0.5204
 6833SOL    HW121940   2.711   4.101   9.111 -1.2879 -0.0210 -2.3968
 6833SOL    HW221941   2.617   3.987   9.078 -0.5171 -1.4166  0.0341
 6834SOL     OW21942   2.945   2.287   0.823 -0.4738 -0.3053 -0.0512
 6834SOL    HW121943   2.878   2.222   0.803 -0.1871 -0.7435  0.4023
 6834SOL    HW221944   2.903   2.371   0.804 -1.0188 -0.5975 -0.1502
 6835SOL     OW21945   5.327   6.021  11.171  0.4854 -0.5386  0.0312
 6835SOL    HW121946   5.251   5.976  11.206  0.1240  0.3586  0.4356
 6835SOL    HW221947   5.291   6.086  11.110  1.0822 -1.8762 -1.8303
 6836SOL     OW21948   4.159   5.058   9.686 -0.2848 -0.0977  0.2288
 6836SOL    HW121949   4.227   5.122   9.661 -0.2278  0.5126  1.8518
 6836SOL    HW221950   4.118   5.034   9.603  2.2212 -0.8592 -0.8884
 6837SOL     OW21951   7.092   6.565   0.004  0.5724 -0.5962 -0.0437
 6837SOL    HW121952   7.065   6.650  -0.031  1.4780 -0.8012 -1.3059
 6837SOL    HW221953   7.031   6.502  -0.033  0.7793 -0.6637 -0.2737
 6838SOL     OW21954   5.523   1.631  10.187  0.0986  0.1536 -0.0469
 6838SOL    HW121955   5.618   1.622  10.188  0.0207 -0.7027  0.6606
 6838SOL    HW221956   5.508   1.724  10.201  0.8109 -0.0234  2.4409
 6839SOL     OW21957   6.569   7.638   9.688 -0.4113 -0.0224  0.4799
 6839SOL    HW121958   6.480   7.602   9.681  0.0953 -1.1380 -0.5193
 6839SOL    HW221959   6.623   7.563   9.710  0.4088  0.5008  0.2806
 6840SOL     OW21960   0.347   7.057   8.567  0.2377 -0.0951 -0.3718
 6840SOL    HW121961   0.433   7.032   8.533  1.6855  0.6955  2.3939
 6840SOL    HW221962   0.301   6.974   8.580  1.7903 -0.8004  0.9562
 6841SOL     OW21963   7.258   2.667  10.350 -0.5989 -0.2557 -0.0681
 6841SOL    HW121964   7.277   2.574  10.337 -1.6332 -0.4271 -0.5106
 6841SOL    HW221965   7.177   2.668  10.402  0.2113  0.4179  1.2298
 6842SOL     OW21966   6.149   5.732   0.225  0.2596 -0.2061 -0.8498
 6842SOL    HW121967   6.075   5.693   0.273  0.4073 -1.3018 -1.4783
 6842SOL    HW221968   6.135   5.826   0.232 -0.8426 -0.3850 -0.4023
 6843SOL     OW21969   1.844   2.985   3.140  0.0262 -0.1566 -0.2386
 6843SOL    HW121970   1.912   2.941   3.191 -1.0731 -0.9520  0.5918
 6843SOL    HW221971   1.771   2.923   3.139 -1.3786  1.4116  0.4719
 6844SOL     OW21972   7.593   1.959  12.397 -0.5830  0.0932 -0.6272
 6844SOL    HW121973   7.521   2.012  12.365 -1.2640 -0.0312  0.6567
 6844SOL    HW221974   7.557   1.871  12.406 -0.0497 -0.1410 -0.7007
 6845SOL     OW21975   3.987   7.232   8.837 -0.6614 -0.3803 -0.4481
 6845SOL    HW121976   3.920   7.168   8.811 -0.6499  0.1239 -1.8261
 6845SOL    HW221977   3.943   7.316   8.830  0.0507 -0.0572 -1.2075
 6846SOL     OW21978   4.488   4.824   1.002 -0.2363 -0.1659 -0.6676
 6846SOL    HW121979   4.430   4.751   0.980 -0.3884 -0.5223  0.8097
 6846SOL    HW221980   4.465   4.846   1.092  2.3427 -0.7432  0.2021
 6847SOL     OW21981   4.163   7.973  11.501 -0.1153 -0.0539  0.2660
 6847SOL    HW121982   4.124   7.895  11.462  0.2304  0.3610 -0.9307
 6847SOL    HW221983   4.109   7.990  11.578 -0.0856 -1.5685  0.6601
 6848SOL     OW21984   5.418   5.053   8.492  0.2361  0.1585  0.1438
 6848SOL    HW121985   5.432   5.124   8.430  0.4725 -0.9219 -1.0931
 6848SOL    HW221986   5.332   5.018   8.470  0.3183 -0.2352  0.4321
 6849SOL     OW21987   3.315   7.904   4.696  0.3190 -0.2285 -0.9309
 6849SOL    HW121988   3.313   7.851   4.617 -0.4100 -0.7618 -0.5609
 6849SOL    HW221989   3.226   7.938   4.706 -0.0382 -1.4819  0.5199
 6850SOL     OW21990   0.961   5.451   0.111 -0.2334  0.4953  0.3137
 6850SOL    HW121991   1.027   5.470   0.177  0.0085 -0.1097  0.2590
 6850SOL    HW221992   0.928   5.364   0.135 -2.2036  1.4393  1.3129
 6851SOL     OW21993   6.456   6.599   7.529  0.0554  0.2588 -0.7640
 6851SOL    HW121994   6.437   6.664   7.597 -1.2017 -0.1170 -0.7270
 6851SOL    HW221995   6.551   6.600   7.521  0.1277  1.4209 -0.0931
 6852SOL     OW21996   2.766   7.114   2.137  0.1048 -0.2499  0.0611
 6852SOL    HW121997   2.825   7.084   2.068 -0.7049  1.3579 -1.4162
 6852SOL    HW221998   2.750   7.206   2.116 -1.4472 -0.1514  1.4896
 6853SOL     OW21999   6.042   1.425  11.198 -0.7297  0.2917 -0.6561
 6853SOL    HW122000   5.970   1.434  11.260 -0.2986 -2.0830  0.3026
 6853SOL    HW222001   6.006   1.452  11.114 -2.3157  0.4293  0.0486
 6854SOL     OW22002   5.166   1.978  10.628 -0.5062 -0.3056  0.5598
 6854SOL    HW122003   5.150   2.062  10.670  0.4376 -0.4607  1.2650
 6854SOL    HW222004   5.079   1.939  10.616 -1.1683  1.6061 -1.6227
 6855SOL     OW22005   4.678   0.723  12.462  0.1496 -0.0858  0.4814
 6855SOL    HW122006   4.661   0.632  12.438  0.5284 -0.0811  0.1746
 6855SOL    HW222007   4.678   0.723  12.558  2.4166 -0.8698  0.5331
 6856SOL     OW22008   6.124   5.360   8.494  0.2708  0.7677 -0.3414
 6856SOL    HW122009   6.211   5.330   8.519  0.2804  0.0749 -1.1596
 6856SOL    HW222010   6.070   5.343   8.571  0.7469  0.7403 -0.0048
 6857SOL     OW22011   0.567   1.804   7.899  0.3259  0.0550 -0.5973
 6857SOL    HW122012   0.519   1.742   7.953  0.4271 -1.3896 -2.0654
 6857SOL    HW222013   0.503   1.872   7.876 -0.4145 -0.6725 -0.7320
 6858SOL     OW22014   5.008   6.857   6.887  1.1771  1.1279 -0.5361
 6858SOL    HW122015   5.067   6.872   6.813 -0.7575 -0.8477 -2.6475
 6858SOL    HW222016   5.040   6.777   6.928  0.8525  0.8752 -0.7677
 6859SOL     OW22017   2.617   3.007  10.570 -0.4924 -0.2664  0.0916
 6859SOL    HW122018   2.625   2.980  10.661  0.4933  0.9132  0.3752
 6859SOL    HW222019   2.605   3.102  10.573 -0.2020 -0.1735 -1.0089
 6860SOL     OW22020   4.516   1.040   9.819 -0.0517 -0.3598 -0.1435
 6860SOL    HW122021   4.428   1.029   9.783 -0.1365 -1.5374  0.3542
 6860SOL    HW222022   4.564   0.963   9.788  0.2723 -0.6656  1.0560
 6861SOL     OW22023   3.057   7.752   6.914  0.1342 -0.1443 -0.2116
 6861SOL    HW122024   3.141   7.744   6.958 -0.5503  1.0592  1.4102
 6861SOL    HW222025   3.015   7.667   6.926  0.5294 -0.2785  0.2487
 6862SOL     OW22026   0.253   7.695   4.509 -0.3322 -0.2016 -0.1888
 6862SOL    HW122027   0.253   7.639   4.586 -0.1219 -1.5423 -1.1134
 6862SOL    HW222028   0.325   7.662   4.456 -1.9071 -0.9045 -2.0291
 6863SOL     OW22029   0.294   3.960   4.390  0.1528 -0.5638 -0.3705
 6863SOL    HW122030   0.350   3.890   4.423 -1.7863 -1.9289  0.1948
 6863SOL    HW222031   0.289   3.945   4.296 -0.0242 -1.0408 -0.2898
 6864SOL     OW22032   3.478   1.512  10.001 -0.0450 -0.1751  0.5181
 6864SOL    HW122033   3.418   1.443   9.972 -0.1436  0.4862 -0.9437
 6864SOL    HW222034   3.440   1.593   9.967  0.8607  0.4327  0.9040
 6865SOL     OW22035   3.424   4.129   8.996  0.2925 -0.8235  0.4240
 6865SOL    HW122036   3.491   4.062   8.984  0.3714 -0.5567 -0.7886
 6865SOL    HW222037   3.439   4.191   8.924 -1.1504 -0.6775  0.2240
 6866SOL     OW22038   3.655   5.694   1.892 -0.3278  0.5251  0.3922
 6866SOL    HW122039   3.733   5.685   1.947 -0.2373 -0.1271  0.1641
 6866SOL    HW222040   3.640   5.606   1.857  0.1463  1.0919 -1.3563
 6867SOL     OW22041   5.042   0.781   8.362 -0.0966 -0.5588  0.4329
 6867SOL    HW122042   5.025   0.817   8.450  1.0189  3.0296 -0.6555
 6867SOL    HW222043   5.137   0.775   8.356 -0.0669  0.8013 -1.0220
 6868SOL     OW22044   0.129   1.191   6.587  0.5047 -0.0637 -0.4899
 6868SOL    HW122045   0.050   1.143   6.609  1.4325 -1.1084  0.6983
 6868SOL    HW222046   0.189   1.173   6.659  2.5027 -0.8556 -2.2381
 6869SOL     OW22047   7.781   5.829   6.711 -0.0769 -0.5105  0.1265
 6869SOL    HW122048   7.722   5.755   6.700  1.1045 -1.9012  2.3340
 6869SOL    HW222049   7.735   5.887   6.773 -1.0712  0.7755 -1.7191
 6870SOL     OW22050   2.737   6.854  12.307  0.3892 -0.0110 -0.4074
 6870SOL    HW122051   2.672   6.915  12.272 -0.0831 -0.4476 -0.3074
 6870SOL    HW222052   2.688   6.799  12.367  1.5351  2.0872  2.7147
 6871SOL     OW22053   5.138   3.678   4.008  0.0228  0.2491  0.0803
 6871SOL    HW122054   5.116   3.767   4.037 -3.0840 -0.2045 -0.5440
 6871SOL    HW222055   5.088   3.620   4.064  0.9034 -1.0793 -0.4355
 6872SOL     OW22056   3.697   0.874   7.081 -0.2928 -0.3549  0.0445
 6872SOL    HW122057   3.780   0.921   7.072 -0.7652  0.5670  0.3667
 6872SOL    HW222058   3.680   0.840   6.993  1.0311 -1.6498  0.2370
 6873SOL     OW22059   6.948   4.011   1.660 -0.0130 -0.3060  0.3434
 6873SOL    HW122060   7.015   4.073   1.630  0.1954 -1.3409 -1.4688
 6873SOL    HW222061   6.987   3.968   1.736  0.5346  0.5401  0.5545
 6874SOL     OW22062   6.685   4.058  11.635  0.0381  0.1844 -0.1440
 6874SOL    HW122063   6.643   3.972  11.641  2.1686 -0.8326  1.2302
 6874SOL    HW222064   6.647   4.108  11.707  1.1153 -0.7065  1.0603
 6875SOL     OW22065   4.808   4.334   3.962 -0.0967  0.4920 -0.3115
 6875SOL    HW122066   4.791   4.407   4.022  0.6146  0.2656  0.1728
 6875SOL    HW222067   4.759   4.261   3.999  1.1509  0.0761  0.5930
 6876SOL     OW22068   6.082   0.525   3.794  0.1842  0.6250 -0.3978
 6876SOL    HW122069   6.147   0.513   3.725 -0.3582 -1.4652 -0.6080
 6876SOL    HW222070   6.103   0.458   3.859  0.8412  2.7180  1.6725
 6877SOL     OW22071   6.399   4.419   1.525  0.4153 -0.0107  0.7133
 6877SOL    HW122072   6.363   4.503   1.554 -1.4827 -0.9880  1.3265
 6877SOL    HW222073   6.456   4.391   1.597 -1.3297 -0.6369  1.9110
 6878SOL     OW22074   3.932   3.065   4.615 -0.2359  0.4442 -0.1463
 6878SOL    HW122075   3.841   3.045   4.591  0.0853  0.4205 -1.4014
 6878SOL    HW222076   3.962   3.126   4.547  0.7209  0.3817  0.2093
 6879SOL     OW22077   5.402   7.397   7.330  0.2172 -0.0998 -0.3397
 6879SOL    HW122078   5.442   7.317   7.365 -0.0434 -0.3998 -0.7240
 6879SOL    HW222079   5.419   7.393   7.236  3.7661  2.2831  0.0316
 6880SOL     OW22080   3.040   1.959   4.617 -0.0850  0.0979 -0.2499
 6880SOL    HW122081   3.007   1.952   4.528 -2.3309 -1.6285  0.5990
 6880SOL    HW222082   2.999   2.038   4.652 -0.5685 -0.1526 -0.2447
 6881SOL     OW22083   1.768   4.205  12.269 -0.0897 -0.7449  0.1704
 6881SOL    HW122084   1.741   4.297  12.271 -1.0463 -0.9032 -2.1020
 6881SOL    HW222085   1.843   4.203  12.210 -1.2294 -1.6064 -1.3404
 6882SOL     OW22086   4.529   0.028   7.409 -0.4459  0.0694  0.2538
 6882SOL    HW122087   4.509  -0.036   7.477 -1.6285  0.1150 -0.0266
 6882SOL    HW222088   4.527  -0.022   7.327 -1.5221  0.4662  0.0184
 6883SOL     OW22089   2.208   0.639   2.921  0.1373  0.1709 -0.3563
 6883SOL    HW122090   2.135   0.701   2.921  0.2758  0.3532  0.6789
 6883SOL    HW222091   2.286   0.694   2.928  0.3828 -0.0237 -1.4773
 6884SOL     OW22092   3.678   2.033  11.530 -0.0855 -0.3446  0.0476
 6884SOL    HW122093   3.763   2.070  11.508  0.7318 -2.3972 -0.4690
 6884SOL    HW222094   3.615   2.092  11.488  1.1030  0.6441 -0.4180
 6885SOL     OW22095   7.757   0.834   5.570  0.0059 -0.6261 -0.3183
 6885SOL    HW122096   7.700   0.761   5.590 -0.1139 -0.5336 -0.3224
 6885SOL    HW222097   7.813   0.842   5.647  0.5121 -1.1871 -0.6198
 6886SOL     OW22098   5.102   0.674   5.890 -0.1589  0.2351 -0.7126
 6886SOL    HW122099   5.128   0.723   5.968  0.5050 -1.0644 -0.0886
 6886SOL    HW222100   5.172   0.690   5.827  0.3882 -0.4292 -0.2782
 6887SOL     OW22101   5.847   0.617  10.060  0.1412 -0.3731 -0.4276
 6887SOL    HW122102   5.815   0.650   9.976 -1.3876  4.4517  1.6960
 6887SOL    HW222103   5.942   0.622  10.052  0.0308  2.2176 -1.2872
 6888SOL     OW22104   3.351   4.157   2.021 -0.2939  0.4232 -0.0543
 6888SOL    HW122105   3.376   4.076   2.064  2.1053  1.3389  0.4145
 6888SOL    HW222106   3.373   4.226   2.083 -2.6871  1.4741 -0.2593
 6889SOL     OW22107   1.073   6.108   4.082  0.5043  0.5443 -0.0877
 6889SOL    HW122108   1.155   6.059   4.078 -0.2939 -0.8249 -0.4099
 6889SOL    HW222109   1.069   6.156   3.999  0.9848  0.6388 -0.0584
 6890SOL     OW22110   5.953   0.232   5.306 -0.4147 -0.2596 -0.5112
 6890SOL    HW122111   5.873   0.187   5.334  0.1658 -0.4385  0.9379
 6890SOL    HW222112   5.996   0.169   5.248 -1.0649 -0.3744 -0.8805
 6891SOL     OW22113   1.632   1.982   3.507 -0.5167 -0.1366 -0.2784
 6891SOL    HW122114   1.669   1.991   3.419 -3.5301  0.0241 -1.6547
 6891SOL    HW222115   1.586   1.899   3.506 -1.1290  0.1605  0.9429
 6892SOL     OW22116   4.723   4.057   4.672  0.2651  0.0750  0.2141
 6892SOL    HW122117   4.726   3.988   4.738  1.6669  0.0059  0.1181
 6892SOL    HW222118   4.697   4.013   4.591 -1.8149  0.2215  0.7430
 6893SOL     OW22119   1.049   0.123   0.065  0.1459  0.1799 -0.1396
 6893SOL    HW122120   1.048   0.095   0.156 -1.5629  0.1214 -0.1488
 6893SOL    HW222121   1.032   0.218   0.068 -1.5154 -0.0768 -0.4364
 6894SOL     OW22122   0.195   3.248   4.501 -0.2433 -0.1711  0.0557
 6894SOL    HW122123   0.176   3.337   4.531 -2.4922  0.5872 -3.1397
 6894SOL    HW222124   0.110   3.204   4.498  0.8054 -2.5301  1.5054
 6895SOL     OW22125   3.026   7.773   1.163 -0.0313 -0.7795  0.0870
 6895SOL    HW122126   3.056   7.856   1.126  0.8745 -1.6852 -1.3023
 6895SOL    HW222127   2.989   7.797   1.248  1.1142  0.9156  0.1656
 6896SOL     OW22128   7.081   1.590   5.444 -0.1136  0.9929  0.3445
 6896SOL    HW122129   7.075   1.665   5.504  1.2000  0.7392  0.8301
 6896SOL    HW222130   7.147   1.533   5.484 -0.4732 -0.0172 -0.4619
 6897SOL     OW22131   7.499   7.340   0.123 -0.8375 -0.0953  0.2158
 6897SOL    HW122132   7.407   7.341   0.094 -0.6200  0.2902 -0.5056
 6897SOL    HW222133   7.536   7.419   0.084 -0.2484 -0.1444  0.6757
 6898SOL     OW22134   3.216   4.499  11.687 -0.4031 -0.4353  0.2583
 6898SOL    HW122135   3.131   4.459  11.668  0.4695 -1.7840 -1.1045
 6898SOL    HW222136   3.228   4.563  11.616 -0.4713  0.0789  0.7077
 6899SOL     OW22137   6.633   6.753   2.144  0.0583  0.6620  0.7373
 6899SOL    HW122138   6.623   6.847   2.127  1.1887  0.5896 -0.4881
 6899SOL    HW222139   6.676   6.748   2.229  1.3769  1.3347  0.1386
 6900SOL     OW22140   3.524   3.368   6.369  0.0132 -0.1613  0.4305
 6900SOL    HW122141   3.506   3.462   6.366  0.5930 -0.0742 -1.0879
 6900SOL    HW222142   3.438   3.327   6.379 -0.5168  0.4539 -1.3620
 6901SOL     OW22143   6.713   4.355   5.583 -0.3638  0.5870 -0.7467
 6901SOL    HW122144   6.741   4.432   5.632  0.0930  0.5366 -0.9199
 6901SOL    HW222145   6.706   4.286   5.649 -0.2820  0.6552 -0.6656
 6902SOL     OW22146   7.850   4.459   0.120 -0.2418 -0.2340  0.3637
 6902SOL    HW122147   7.801   4.539   0.103  0.9419  0.3509 -0.4828
 6902SOL    HW222148   7.783   4.392   0.133 -1.2593  0.5606 -0.5520
 6903SOL     OW22149   0.770   4.531  11.808 -0.2967 -0.1678  0.6655
 6903SOL    HW122150   0.732   4.527  11.896 -0.3117 -0.8155  0.6337
 6903SOL    HW222151   0.703   4.572  11.755 -0.2192  0.3901  0.9905
 6904SOL     OW22152   0.099   7.900   7.226 -0.1315 -0.6377  0.1969
 6904SOL    HW122153   0.128   7.819   7.269 -0.0701 -0.3183  0.7765
 6904SOL    HW222154   0.006   7.885   7.207  0.2174 -1.3944 -1.0197
 6905SOL     OW22155   1.845   0.170   3.921  0.1066  0.0985  0.1406
 6905SOL    HW122156   1.924   0.124   3.895  0.5332  1.1665 -0.4850
 6905SOL    HW222157   1.794   0.179   3.840 -0.0162  0.6330  0.2729
 6906SOL     OW22158   4.153   4.791   5.242 -0.0392 -0.3618  0.2161
 6906SOL    HW122159   4.143   4.830   5.329  0.2164  2.1994 -0.8146
 6906SOL    HW222160   4.214   4.719   5.255  1.3197  1.0058  1.9231
 6907SOL     OW22161   2.808   0.452  11.362 -0.0310  0.1402  0.0911
 6907SOL    HW122162   2.889   0.503  11.359 -0.7252  1.2935  0.3112
 6907SOL    HW222163   2.833   0.369  11.404  1.6367 -0.7435 -2.4463
 6908SOL     OW22164   2.917   1.541   6.721  0.2610 -0.1364  0.7509
 6908SOL    HW122165   2.873   1.581   6.646  1.2561  0.6008  0.5371
 6908SOL    HW222166   2.867   1.461   6.738 -2.2231  1.4402  1.5818
 6909SOL     OW22167   7.940   1.294  10.472  0.0605 -0.2624 -0.1302
 6909SOL    HW122168   7.846   1.306  10.465  0.0820  0.0462  0.0762
 6909SOL    HW222169   7.977   1.381  10.458  0.3672 -0.5307 -1.0681
 6910SOL     OW22170   3.101   0.325   6.731 -0.6464  0.1966 -0.2549
 6910SOL    HW122171   3.122   0.265   6.802  0.6398  0.8525 -0.0427
 6910SOL    HW222172   3.082   0.408   6.774 -0.2053  0.5079 -0.6427
 6911SOL     OW22173   1.691   2.429   0.862  0.1136 -0.1594 -1.0778
 6911SOL    HW122174   1.726   2.511   0.828 -0.8021  1.2097  1.1117
 6911SOL    HW222175   1.752   2.362   0.830  0.6835  1.2813 -3.1986
 6912SOL     OW22176   3.076   7.207   1.403 -0.0284 -0.0537 -0.0827
 6912SOL    HW122177   3.148   7.269   1.414 -1.1068  1.4989 -1.3047
 6912SOL    HW222178   3.010   7.256   1.355 -1.6523 -1.6402  0.4406
 6913SOL     OW22179   3.145   1.409   8.879  0.1690  0.2415  0.1443
 6913SOL    HW122180   3.134   1.483   8.939 -2.6331 -1.2287  1.6423
 6913SOL    HW222181   3.224   1.365   8.911  0.2532  0.9874  1.0270
 6914SOL     OW22182   0.836   3.153   7.009 -0.2758  0.2535 -0.2994
 6914SOL    HW122183   0.922   3.131   6.973  0.7612  1.6861  1.1225
 6914SOL    HW222184   0.833   3.107   7.093 -0.7998  0.3946 -0.2369
 6915SOL     OW22185   1.349   3.783   1.255 -0.2844 -0.0367 -0.0384
 6915SOL    HW122186   1.399   3.826   1.186 -0.7037 -1.0182 -0.9807
 6915SOL    HW222187   1.369   3.690   1.245 -0.2013 -0.1884  1.2954
 6916SOL     OW22188   3.360   5.562   3.941 -0.0573 -0.3817 -0.2988
 6916SOL    HW122189   3.378   5.511   3.862 -0.5434 -0.3740 -0.4136
 6916SOL    HW222190   3.437   5.618   3.951  0.5432 -1.2195 -0.1053
 6917SOL     OW22191   5.448   6.099   4.102  0.1083  0.6747  0.5082
 6917SOL    HW122192   5.532   6.053   4.093  0.4475  1.4465 -0.4317
 6917SOL    HW222193   5.458   6.152   4.181  0.5470  0.8482  0.3389
 6918SOL     OW22194   3.471   6.823   8.432  0.1287  0.6928  0.2703
 6918SOL    HW122195   3.544   6.863   8.384  1.4349 -0.6226  1.0897
 6918SOL    HW222196   3.470   6.732   8.402 -0.3019  0.3592  1.2702
 6919SOL     OW22197   6.594   2.344   1.606 -1.0481  0.0659 -0.2933
 6919SOL    HW122198   6.633   2.370   1.523 -0.3311 -0.8929 -0.2723
 6919SOL    HW222199   6.569   2.426   1.648 -0.5432  0.6059 -1.0314
 6920SOL     OW22200   4.700   4.495   8.454 -0.1341  0.0192  0.6961
 6920SOL    HW122201   4.653   4.507   8.536 -2.7026  2.8583 -0.9812
 6920SOL    HW222202   4.737   4.581   8.434 -1.1626 -0.0453 -1.9185
 6921SOL     OW22203   5.068   4.416   8.283 -0.1171 -0.1902 -0.0114
 6921SOL    HW122204   5.103   4.344   8.335 -0.6687 -0.3277  0.1853
 6921SOL    HW222205   5.063   4.490   8.345  0.0747 -0.0986 -0.1065
 6922SOL     OW22206   3.001   3.159   8.428 -0.0942 -0.0405 -0.2333
 6922SOL    HW122207   3.001   3.129   8.519 -0.5516  1.5302  0.3285
 6922SOL    HW222208   3.093   3.158   8.401 -0.0227 -1.0848  0.0382
 6923SOL     OW22209   0.537   3.486  10.947 -0.6423  0.3509  0.1970
 6923SOL    HW122210   0.607   3.515  10.888  4.3089 -1.3765  4.4335
 6923SOL    HW222211   0.545   3.391  10.947 -3.8197 -0.0123  0.2507
 6924SOL     OW22212   5.416   5.909   9.662 -0.1338  0.5520 -0.0025
 6924SOL    HW122213   5.389   5.952   9.581  0.1499 -0.2408 -0.5323
 6924SOL    HW222214   5.427   5.817   9.638 -2.1412 -0.1373  1.4213
 6925SOL     OW22215   0.596   7.614   2.806 -0.1367 -0.2364  0.2974
 6925SOL    HW122216   0.562   7.598   2.718  0.7238  3.1621 -0.8355
 6925SOL    HW222217   0.690   7.599   2.799 -0.0471  0.1568  0.5689
 6926SOL     OW22218   6.901   1.039   9.866 -0.3230  0.4330  0.0713
 6926SOL    HW122219   6.935   1.095   9.796 -1.5487 -0.8001 -1.6066
 6926SOL    HW222220   6.807   1.037   9.852 -0.3470 -1.9394  0.1056
 6927SOL     OW22221   5.818   5.990   8.562 -0.1831 -0.2391  0.0125
 6927SOL    HW122222   5.855   6.016   8.477 -0.6129 -0.2714 -0.1862
 6927SOL    HW222223   5.892   5.953   8.610 -0.0869 -0.8823 -0.6179
 6928SOL     OW22224   0.496   4.711   4.783 -0.6249  0.0216 -0.3946
 6928SOL    HW122225   0.528   4.771   4.716  0.1670  1.7893  1.4615
 6928SOL    HW222226   0.426   4.759   4.827 -0.3746 -0.6188  0.7483
 6929SOL     OW22227   6.343   3.203   8.743  0.0003  0.3099  0.4980
 6929SOL    HW122228   6.335   3.292   8.708  0.1685 -0.1193 -0.6839
 6929SOL    HW222229   6.263   3.191   8.795 -0.4033  0.8754  0.0225
 6930SOL     OW22230   0.300   0.767   5.562 -0.7889  0.0979  0.2215
 6930SOL    HW122231   0.260   0.851   5.586  1.5428  1.0054  1.2038
 6930SOL    HW222232   0.360   0.790   5.490 -1.4421 -1.0963 -0.7462
 6931SOL     OW22233   6.186   0.364   2.166 -0.5182 -0.0960 -0.3390
 6931SOL    HW122234   6.159   0.273   2.155 -0.9667  0.0143 -0.1559
 6931SOL    HW222235   6.229   0.387   2.084  0.5032 -0.7870 -0.0138
 6932SOL     OW22236   0.859   2.160   2.244 -0.3972 -0.1188 -0.3387
 6932SOL    HW122237   0.783   2.142   2.300 -0.7433  1.3566 -0.2909
 6932SOL    HW222238   0.849   2.252   2.220  1.1429 -0.0263 -0.7065
 6933SOL     OW22239   2.391   6.442   3.140 -0.0477  1.1342  0.0397
 6933SOL    HW122240   2.316   6.388   3.115  1.6619 -0.4159 -2.1957
 6933SOL    HW222241   2.396   6.509   3.071  0.8640  0.9262 -0.1117
 6934SOL     OW22242   2.262   1.384   6.868  0.5467 -0.2143  0.2750
 6934SOL    HW122243   2.285   1.476   6.880 -3.1229  1.2685 -2.1487
 6934SOL    HW222244   2.291   1.363   6.779 -0.9883 -0.4891 -0.1877
 6935SOL     OW22245   2.884   5.062   6.881 -0.0636 -0.3365 -0.0673
 6935SOL    HW122246   2.880   5.037   6.973  3.0209 -0.3040  0.1752
 6935SOL    HW222247   2.954   5.009   6.844  0.3006  1.2588 -1.8390
 6936SOL     OW22248   2.612   6.079  10.561 -0.2975  0.4584  0.1387
 6936SOL    HW122249   2.521   6.051  10.560 -0.7053  1.6317 -2.2863
 6936SOL    HW222250   2.608   6.174  10.558  1.0554  0.6035  1.5282
 6937SOL     OW22251   0.181   7.667   8.364  0.2147  0.7045  0.0834
 6937SOL    HW122252   0.098   7.705   8.390 -0.0538  1.2649 -1.4650
 6937SOL    HW222253   0.176   7.576   8.393 -1.3706  0.4662 -0.8206
 6938SOL     OW22254   4.870   6.379   3.165 -0.6127 -0.1727 -0.4354
 6938SOL    HW122255   4.920   6.460   3.160  0.2006 -0.6911 -0.9018
 6938SOL    HW222256   4.779   6.407   3.174 -0.3616  0.7892 -0.8166
 6939SOL     OW22257   1.456   3.866   9.423 -0.5946  0.6744 -0.1905
 6939SOL    HW122258   1.392   3.874   9.353 -0.4843  0.1572 -0.3577
 6939SOL    HW222259   1.404   3.872   9.504 -0.8385  0.4267 -0.3242
 6940SOL     OW22260   2.264   2.220   8.367  0.2426  0.5160 -0.1913
 6940SOL    HW122261   2.183   2.257   8.401  1.3143  0.7583  2.2781
 6940SOL    HW222262   2.262   2.128   8.395  0.5890  0.3753 -0.6048
 6941SOL     OW22263   4.287   6.734   2.635 -0.0172 -0.7009 -0.3096
 6941SOL    HW122264   4.232   6.690   2.570  2.3473 -1.5243 -1.9035
 6941SOL    HW222265   4.340   6.664   2.672  0.7874  0.2030  0.2817
 6942SOL     OW22266   0.645   6.442   9.169  0.5546  0.1958 -0.7952
 6942SOL    HW122267   0.572   6.500   9.186 -1.1328 -1.5580 -1.6836
 6942SOL    HW222268   0.678   6.417   9.255 -0.1926  0.6369 -0.3762
 6943SOL     OW22269   7.368   7.716   7.226  0.3116  0.2015 -0.2696
 6943SOL    HW122270   7.351   7.640   7.282 -0.1595  0.8968  0.5450
 6943SOL    HW222271   7.396   7.784   7.287  1.5215  0.4621 -1.0786
 6944SOL     OW22272   1.679   0.536   6.608 -0.0644 -0.3883 -0.2267
 6944SOL    HW122273   1.754   0.536   6.548  0.5365 -1.0630  0.5050
 6944SOL    HW222274   1.605   0.508   6.555  0.4945 -1.1369 -0.6254
 6945SOL     OW22275   6.654   1.222   0.283  0.2732  0.2161 -0.0878
 6945SOL    HW122276   6.638   1.135   0.247 -1.1728 -0.7924  2.7135
 6945SOL    HW222277   6.622   1.282   0.215 -0.6570 -1.4821 -1.2244
 6946SOL     OW22278   0.735   3.309   7.998  0.4139 -0.1566  0.1133
 6946SOL    HW122279   0.748   3.246   8.069 -3.2316 -0.4053  0.7313
 6946SOL    HW222280   0.696   3.386   8.041 -0.1263  0.4211 -1.3431
 6947SOL     OW22281   4.343   2.448   3.213  0.1963  0.8106  0.0314
 6947SOL    HW122282   4.351   2.486   3.301  2.5204  1.0859 -0.2244
 6947SOL    HW222283   4.359   2.355   3.226 -1.8861  0.4209  0.1670
 6948SOL     OW22284   4.214   3.206   3.096 -0.8720 -0.6618  1.0049
 6948SOL    HW122285   4.281   3.239   3.155 -0.4625  0.2498  0.0573
 6948SOL    HW222286   4.147   3.168   3.154 -0.7698  0.7099  2.0709
 6949SOL     OW22287   3.359   3.298   4.031  0.4632  0.7014 -0.5749
 6949SOL    HW122288   3.365   3.388   3.999  2.2200  0.8530  0.0591
 6949SOL    HW222289   3.446   3.280   4.068  0.5126 -1.6262 -1.6602
 6950SOL     OW22290   4.517   0.760   1.435  0.0027 -0.1041 -0.3155
 6950SOL    HW122291   4.422   0.773   1.435  0.0355  0.4136  1.5819
 6950SOL    HW222292   4.541   0.760   1.527  1.7147 -1.3631 -0.7223
 6951SOL     OW22293   6.533   4.780  10.185 -0.6771  0.5329  0.4707
 6951SOL    HW122294   6.505   4.692  10.161  1.2745 -0.2156  0.7922
 6951SOL    HW222295   6.548   4.824  10.101  1.5506 -0.5555  0.2293
 6952SOL     OW22296   7.710   2.289   0.390  0.2081 -0.0857  0.0579
 6952SOL    HW122297   7.684   2.209   0.345  0.6261 -1.0568  1.4897
 6952SOL    HW222298   7.775   2.261   0.454  1.3157  1.6004 -0.2781
 6953SOL     OW22299   5.867   7.534  12.241  0.1592  0.0471 -0.3462
 6953SOL    HW122300   5.861   7.443  12.270 -0.9108 -0.4732 -2.0031
 6953SOL    HW222301   5.795   7.578  12.286  0.3760 -0.0405  0.0892
 6954SOL     OW22302   1.423   6.415  10.255 -0.3821 -0.0813 -0.4433
 6954SOL    HW122303   1.478   6.424  10.177  1.9458 -0.8546  1.0345
 6954SOL    HW222304   1.474   6.362  10.315 -2.1251  0.4658  1.6375
 6955SOL     OW22305   3.360   4.339   5.793  0.0105  0.4125 -0.3644
 6955SOL    HW122306   3.325   4.310   5.877 -2.1372  1.6611 -0.7640
 6955SOL    HW222307   3.431   4.398   5.816 -0.1812  0.2977  0.5632
 6956SOL     OW22308   6.894   0.109   4.430  0.4264 -0.3740 -0.1621
 6956SOL    HW122309   6.845   0.037   4.390  1.8303 -2.0065  0.9262
 6956SOL    HW222310   6.855   0.118   4.517 -2.0775  2.6172 -1.4188
 6957SOL     OW22311   6.665   7.861   1.567  0.0386 -0.4176 -0.2624
 6957SOL    HW122312   6.694   7.913   1.642 -0.0475 -0.2483 -0.3439
 6957SOL    HW222313   6.746   7.828   1.528  0.0741 -0.6818  0.0257
 6958SOL     OW22314   2.994   1.829   0.700 -0.2376  0.0501 -0.0851
 6958SOL    HW122315   2.959   1.888   0.632 -0.3299 -0.7363 -0.7432
 6958SOL    HW222316   3.054   1.884   0.751 -0.9199  0.9158 -0.1800
 6959SOL     OW22317   3.610   7.067   0.772  0.0082  0.2007 -0.1530
 6959SOL    HW122318   3.598   6.976   0.800 -0.2747  0.3245  0.1322
 6959SOL    HW222319   3.574   7.119   0.844 -0.0642  0.5363 -0.4291
 6960SOL     OW22320   1.290   1.124   0.924  0.8134  0.5112 -0.2385
 6960SOL    HW122321   1.371   1.121   0.873  0.9732  0.8602 -0.0103
 6960SOL    HW222322   1.303   1.196   0.985 -0.3143  1.6172 -1.2660
 6961SOL     OW22323   4.713   6.241  11.169  0.6081 -0.3228  0.2430
 6961SOL    HW122324   4.705   6.246  11.074  1.3059 -0.0443  0.1913
 6961SOL    HW222325   4.774   6.312  11.192  0.8529 -0.7147  0.8373
 6962SOL     OW22326   5.297   5.316   0.920 -0.7738  0.0454  0.5123
 6962SOL    HW122327   5.270   5.407   0.934  0.0208  0.2073  1.1441
 6962SOL    HW222328   5.393   5.319   0.928 -0.6151 -0.6136 -0.8897
 6963SOL     OW22329   4.714   7.465   1.842 -0.0871 -0.0712 -0.0330
 6963SOL    HW122330   4.758   7.399   1.788  0.1952 -0.5101  0.7163
 6963SOL    HW222331   4.755   7.548   1.817 -1.8183  0.1638 -2.4399
 6964SOL     OW22332   3.427   0.786  12.079 -0.3697 -0.0839  0.3883
 6964SOL    HW122333   3.435   0.784  12.175  1.4865 -1.4728  0.2661
 6964SOL    HW222334   3.515   0.810  12.049 -0.4098 -1.5656 -0.9943
 6965SOL     OW22335   7.500   3.467   7.109  0.5050 -0.4759  0.1569
 6965SOL    HW122336   7.553   3.491   7.185 -0.4426 -2.5472  1.5691
 6965SOL    HW222337   7.439   3.400   7.142 -0.1991 -1.1943 -2.3512
 6966SOL     OW22338   2.433   7.111   2.629 -0.2461  0.4748  0.0364
 6966SOL    HW122339   2.421   7.206   2.638  0.2809  0.4564  1.0640
 6966SOL    HW222340   2.399   7.091   2.541 -1.1411  1.4745  0.1353
 6967SOL     OW22341   5.562   3.580   3.710  0.3798 -0.3346  0.0005
 6967SOL    HW122342   5.613   3.542   3.639 -1.0314  1.4090 -2.0475
 6967SOL    HW222343   5.604   3.664   3.729 -0.4497  0.1476 -0.2278
 6968SOL     OW22344   1.373   7.356   6.440 -0.4645 -0.1121 -0.0465
 6968SOL    HW122345   1.333   7.312   6.365  0.1562 -0.1576 -0.3576
 6968SOL    HW222346   1.373   7.449   6.417  0.6186 -0.2183 -0.5486
 6969SOL     OW22347   2.676   6.925   4.332  0.4547  0.4413  0.2853
 6969SOL    HW122348   2.646   6.965   4.251 -0.3314 -0.9691 -0.1554
 6969SOL    HW222349   2.751   6.872   4.307  1.0189  1.0021  0.7312
 6970SOL     OW22350   0.958   4.720   3.253 -0.1151  0.5139  0.0930
 6970SOL    HW122351   0.983   4.762   3.336 -1.3757  0.9355  0.2870
 6970SOL    HW222352   0.964   4.789   3.188 -1.7855  0.9395  0.3395
 6971SOL     OW22353   4.078   1.803   1.690  0.0404  0.7784  0.3395
 6971SOL    HW122354   4.003   1.825   1.745 -0.9100 -1.4692  0.0663
 6971SOL    HW222355   4.096   1.711   1.710 -0.1763 -0.0794 -2.8334
 6972SOL     OW22356   3.044   6.368   7.004 -0.0607  0.0683  0.7947
 6972SOL    HW122357   3.081   6.288   6.965  1.0774  1.5103 -1.2780
 6972SOL    HW222358   3.096   6.383   7.082  1.1911 -0.0714  0.0190
 6973SOL     OW22359   1.902   5.850   4.591  0.4263  0.1875 -0.1576
 6973SOL    HW122360   1.949   5.934   4.591  1.7474 -0.5041  0.5289
 6973SOL    HW222361   1.817   5.869   4.553  1.4545  1.4169 -1.9864
 6974SOL     OW22362   0.035   3.883   2.451 -0.4146  0.2566 -0.3633
 6974SOL    HW122363  -0.054   3.882   2.414 -0.9349  1.1711  0.7713
 6974SOL    HW222364   0.024   3.924   2.537  0.6527 -2.1740  1.0446
 6975SOL     OW22365   1.226   7.662   1.506 -0.3176 -0.2652  0.3675
 6975SOL    HW122366   1.175   7.654   1.587  1.5098 -0.1333  1.5715
 6975SOL    HW222367   1.297   7.722   1.527  0.0750 -0.0190 -1.4275
 6976SOL     OW22368   4.156   3.967   7.895 -0.7641 -0.4291 -0.0064
 6976SOL    HW122369   4.213   3.948   7.820  0.6440  0.0256  0.8973
 6976SOL    HW222370   4.093   3.895   7.897 -2.0740  0.5084 -2.7422
 6977SOL     OW22371   6.833   3.094  12.150 -0.4979  0.0232 -0.4360
 6977SOL    HW122372   6.791   3.038  12.085  0.4848 -0.9604 -0.2585
 6977SOL    HW222373   6.762   3.145  12.188 -1.2310 -0.1302 -1.5451
 6978SOL     OW22374   0.853   1.379   5.476 -0.1430 -0.2093  0.5881
 6978SOL    HW122375   0.929   1.322   5.462  0.6233  1.2909 -1.8212
 6978SOL    HW222376   0.778   1.321   5.463  0.5825 -1.1360  0.4006
 6979SOL     OW22377   2.327   6.723   0.795 -0.1441 -0.0191  0.1561
 6979SOL    HW122378   2.248   6.707   0.847 -0.7882  1.0829 -0.4357
 6979SOL    HW222379   2.398   6.690   0.849 -1.0029 -1.0279  0.7130
 6980SOL     OW22380   2.081   3.752   9.605  0.5485  0.5078 -0.4117
 6980SOL    HW122381   2.083   3.743   9.510  1.0696  1.8200 -0.5427
 6980SOL    HW222382   2.110   3.842   9.622  0.4928  0.2921  0.9888
 6981SOL     OW22383   5.221   0.409   4.126 -0.4377 -0.5971 -0.0149
 6981SOL    HW122384   5.198   0.495   4.090 -1.6485 -0.7034  0.4668
 6981SOL    HW222385   5.303   0.386   4.083 -0.5400  0.4251 -0.7809
 6982SOL     OW22386   4.573   3.193   2.792 -0.8370  0.1196 -0.0887
 6982SOL    HW122387   4.484   3.160   2.801 -1.4664  1.4404 -1.1789
 6982SOL    HW222388   4.573   3.242   2.710  1.1611 -0.6797 -0.6367
 6983SOL     OW22389   6.531   5.647   7.653  0.2655 -0.1703  0.4047
 6983SOL    HW122390   6.493   5.626   7.738 -0.3827  0.2154  0.2125
 6983SOL    HW222391   6.464   5.698   7.608  0.8190  0.1059 -0.1254
 6984SOL     OW22392   1.285   7.185   5.941  0.2714  0.0833 -0.0844
 6984SOL    HW122393   1.260   7.115   6.001  0.3742  0.0946 -0.0299
 6984SOL    HW222394   1.231   7.169   5.863 -0.5457  0.6077  0.3560
 6985SOL     OW22395   2.418   2.078   9.397 -0.2348  0.2838  0.4619
 6985SOL    HW122396   2.357   2.006   9.410 -0.1543  0.1775  0.2559
 6985SOL    HW222397   2.490   2.040   9.346  1.0086 -0.1376  2.3957
 6986SOL     OW22398   5.255   3.205   2.870 -0.0925  0.7868 -0.1949
 6986SOL    HW122399   5.241   3.229   2.961  3.4551 -3.6489  1.9410
 6986SOL    HW222400   5.197   3.130   2.855 -0.7584  1.5550 -1.7004
 6987SOL     OW22401   2.871   1.329   9.491  0.4851 -0.7678  0.5169
 6987SOL    HW122402   2.890   1.380   9.570  1.7919  0.8413 -0.7633
 6987SOL    HW222403   2.945   1.270   9.483 -1.4224 -3.6792  2.4649
 6988SOL     OW22404   0.931   5.151   4.704 -0.6368  0.2264 -0.5744
 6988SOL    HW122405   0.993   5.181   4.770  1.5088  0.5398 -2.5942
 6988SOL    HW222406   0.845   5.162   4.745  0.5791 -0.4251  2.4367
 6989SOL     OW22407   1.809   6.282  11.191  0.5609  0.3737  0.0642
 6989SOL    HW122408   1.898   6.302  11.221  0.4492  2.0010 -0.5563
 6989SOL    HW222409   1.765   6.367  11.192 -1.0294 -0.4341  0.4625
 6990SOL     OW22410   4.266   3.726   9.412 -0.0224 -0.6365  0.3270
 6990SOL    HW122411   4.216   3.750   9.490 -0.8340  0.2036 -0.4253
 6990SOL    HW222412   4.348   3.774   9.420 -0.8298  0.9063 -0.1851
 6991SOL     OW22413   2.199   2.982   1.427 -0.2789  0.5573 -0.1103
 6991SOL    HW122414   2.190   2.929   1.348  0.1383  2.1844 -1.3061
 6991SOL    HW222415   2.248   2.927   1.487 -2.2315 -1.4472 -0.2297
 6992SOL     OW22416   0.361   4.956   9.338 -0.4837 -0.2361 -0.0699
 6992SOL    HW122417   0.294   4.905   9.384 -0.0562 -0.2875  0.5082
 6992SOL    HW222418   0.383   5.027   9.399  1.2494 -1.2202  0.5201
 6993SOL     OW22419   4.152   4.582   8.933 -0.0418 -0.1137  0.9866
 6993SOL    HW122420   4.075   4.593   8.989  0.9414  1.9173  2.0922
 6993SOL    HW222421   4.137   4.643   8.860  0.3794  0.1091  1.0818
 6994SOL     OW22422   7.371   7.165   1.599 -0.1299 -0.6821  0.0651
 6994SOL    HW122423   7.361   7.104   1.526 -1.4722 -1.4040  0.8168
 6994SOL    HW222424   7.422   7.238   1.563  1.6255 -2.2544 -0.8411
 6995SOL     OW22425   0.222   5.140  10.488  0.6258 -0.6837 -0.3236
 6995SOL    HW122426   0.225   5.196  10.565 -0.6098 -1.6455  0.4686
 6995SOL    HW222427   0.306   5.154  10.444  1.0026  0.5119  0.7310
 6996SOL     OW22428   7.107   1.259   5.407  0.3637 -0.1266  0.4392
 6996SOL    HW122429   7.013   1.268   5.423  0.4922  1.3756  0.4986
 6996SOL    HW222430   7.146   1.331   5.457  1.4547 -0.1075 -0.4151
 6997SOL     OW22431   1.976   5.004   1.964 -0.0638 -0.7760 -0.2166
 6997SOL    HW122432   2.047   4.957   1.921  0.4081 -1.7659  1.5318
 6997SOL    HW222433   2.012   5.090   1.984  0.1749 -0.7988 -0.5445
 6998SOL     OW22434   1.541   6.684   6.418  0.4621  0.3763 -0.5911
 6998SOL    HW122435   1.475   6.745   6.451  1.3992  0.8066  0.5750
 6998SOL    HW222436   1.529   6.605   6.470  0.8140  0.4339 -0.4177
 6999SOL     OW22437   1.282   2.497   0.017 -0.6713  0.2281  0.5930
 6999SOL    HW122438   1.286   2.422   0.077 -0.8382 -0.1160  0.1768
 6999SOL    HW222439   1.323   2.466  -0.063 -0.0251  0.8365  0.6760
 7000SOL     OW22440   2.970   4.048   6.119 -0.3069  0.0178 -0.6690
 7000SOL    HW122441   2.973   4.000   6.036 -2.6516 -0.6882 -0.4388
 7000SOL    HW222442   2.983   4.140   6.094  1.1175 -0.3741 -1.5112
 7001SOL     OW22443   5.503   6.264   6.544  0.2553 -0.4318  0.6348
 7001SOL    HW122444   5.579   6.258   6.602  0.7456  0.4124  0.0909
 7001SOL    HW222445   5.521   6.339   6.488 -0.2131 -1.2259 -0.6246
 7002SOL     OW22446   1.292   5.724   8.191 -0.5870  0.1579  0.4223
 7002SOL    HW122447   1.312   5.722   8.097 -2.2627  1.9064 -0.0399
 7002SOL    HW222448   1.215   5.667   8.199 -0.3012 -0.1771  0.7803
 7003SOL     OW22449   4.556   3.405  10.579  0.0664  0.2327  0.0514
 7003SOL    HW122450   4.525   3.414  10.669 -1.8512 -0.1655 -0.5366
 7003SOL    HW222451   4.528   3.486  10.536  1.6578  0.7697 -0.0373
 7004SOL     OW22452   5.818   2.253   4.645  0.0307  0.0913  0.2634
 7004SOL    HW122453   5.820   2.159   4.628 -0.4121  0.1322 -0.0341
 7004SOL    HW222454   5.829   2.261   4.740  1.1036 -0.2091  0.1709
 7005SOL     OW22455   3.737   3.581   5.609  0.1159  0.0899 -0.3349
 7005SOL    HW122456   3.668   3.628   5.656  0.0650 -0.4477  0.1402
 7005SOL    HW222457   3.772   3.645   5.547 -1.6903  0.0040 -1.5208
 7006SOL     OW22458   7.311   2.855   2.700  0.1672 -0.3292 -0.4451
 7006SOL    HW122459   7.313   2.845   2.604 -0.7299  1.1568 -0.6424
 7006SOL    HW222460   7.259   2.933   2.715 -1.1255 -1.4663  1.3630
 7007SOL     OW22461   4.374   7.566   7.183 -0.1745  0.1643 -0.1608
 7007SOL    HW122462   4.435   7.545   7.113  1.7899  1.7910  0.9509
 7007SOL    HW222463   4.325   7.642   7.151 -0.3395 -0.0168 -0.3406
 7008SOL     OW22464   6.616   2.751   4.448 -0.0131 -0.7201  0.1902
 7008SOL    HW122465   6.600   2.663   4.484  2.3821 -1.2425  0.1162
 7008SOL    HW222466   6.678   2.791   4.509 -1.4853  1.2012  0.5366
 7009SOL     OW22467   5.786   4.988  10.683  0.1825 -0.0884 -0.6119
 7009SOL    HW122468   5.754   4.944  10.604  0.9919  0.0451 -1.0323
 7009SOL    HW222469   5.802   5.078  10.655 -0.8100  0.3155  0.0647
 7010SOL     OW22470   1.539   6.112   0.012 -0.1471 -0.5309 -0.1927
 7010SOL    HW122471   1.563   6.187  -0.042 -0.4395  1.9098  2.8428
 7010SOL    HW222472   1.619   6.059   0.016  0.0541 -0.5070 -2.3981
 7011SOL     OW22473   2.862   1.916  11.717 -0.3650 -0.0166  0.0964
 7011SOL    HW122474   2.806   1.990  11.695  0.0769  0.2461 -0.1656
 7011SOL    HW222475   2.846   1.852  11.647 -0.8257 -0.2224  0.3797
 7012SOL     OW22476   3.038   4.861   2.022  0.5064 -0.1844  1.0736
 7012SOL    HW122477   3.046   4.889   1.931  1.6076 -0.2792  1.1174
 7012SOL    HW222478   3.127   4.834   2.046  0.0805 -0.8811  1.9421
 7013SOL     OW22479   7.298   2.994   3.898 -0.1622 -0.4567 -0.4853
 7013SOL    HW122480   7.316   2.921   3.840  1.6218 -0.0233 -0.5493
 7013SOL    HW222481   7.348   2.974   3.978  0.7885  0.8990 -0.7012
 7014SOL     OW22482   5.489   0.322   4.915 -0.0626  0.7141  0.0771
 7014SOL    HW122483   5.543   0.251   4.949  0.4848  0.2130 -1.6986
 7014SOL    HW222484   5.462   0.292   4.828 -2.8086  1.1709  0.6548
 7015SOL     OW22485   2.941   0.607   9.292 -0.2084  0.6619  0.1085
 7015SOL    HW122486   2.993   0.535   9.256 -0.9822  0.3743 -0.4376
 7015SOL    HW222487   2.915   0.576   9.379 -0.3299  0.3915 -0.0254
 7016SOL     OW22488   1.801   4.842   4.862  0.2393  0.4604 -0.3656
 7016SOL    HW122489   1.863   4.788   4.911  1.2198  0.3830 -1.6674
 7016SOL    HW222490   1.855   4.894   4.803 -0.7927  1.8669 -0.1237
 7017SOL     OW22491   0.706   0.551   3.609 -0.7881  0.7921 -0.5187
 7017SOL    HW122492   0.796   0.537   3.639 -1.2996 -1.3924  0.1974
 7017SOL    HW222493   0.715   0.595   3.524  0.8952  1.6215  0.0557
 7018SOL     OW22494   7.981   5.100  10.715 -0.0196  0.2320 -0.3554
 7018SOL    HW122495   7.990   5.018  10.764  1.4857  0.1899 -0.6511
 7018SOL    HW222496   8.061   5.105  10.662 -0.4405  1.5234 -0.9091
 7019SOL     OW22497   4.220   2.923  10.469 -0.2302  0.1694  0.2143
 7019SOL    HW122498   4.216   2.872  10.550  0.8428  0.8512  0.7261
 7019SOL    HW222499   4.313   2.947  10.461 -0.4549  0.7470 -0.8219
 7020SOL     OW22500   2.963   5.314   0.705 -0.4973 -0.0391 -0.2554
 7020SOL    HW122501   3.012   5.395   0.714  0.3770 -0.5517 -0.3010
 7020SOL    HW222502   2.960   5.298   0.611 -1.3953  0.3624 -0.3082
 7021SOL     OW22503   5.942   0.159   2.676  0.7446 -0.1289 -0.5516
 7021SOL    HW122504   5.878   0.126   2.739 -1.2486 -0.2698 -2.4913
 7021SOL    HW222505   5.892   0.221   2.622  2.7292  1.1091 -1.0734
 7022SOL     OW22506   5.507   0.915   6.871  0.2120 -0.2403 -0.6553
 7022SOL    HW122507   5.483   0.914   6.778 -0.7881 -0.5754 -0.4079
 7022SOL    HW222508   5.524   1.007   6.891  1.6020 -0.3054 -1.4469
 7023SOL     OW22509   7.423   1.971   9.212 -0.1705 -0.3791  0.0167
 7023SOL    HW122510   7.397   2.062   9.227  2.1012  0.0935  1.6670
 7023SOL    HW222511   7.341   1.922   9.212 -1.3171  1.4231  1.1687
 7024SOL     OW22512   6.669   4.030   3.296  0.4962 -0.1309 -0.5481
 7024SOL    HW122513   6.639   3.939   3.291 -0.9422  0.1719  1.4284
 7024SOL    HW222514   6.763   4.025   3.276  0.1822 -1.8308 -1.8454
 7025SOL     OW22515   2.006   2.872   1.097 -0.3206  0.2062 -0.0569
 7025SOL    HW122516   1.945   2.916   1.038  1.1044 -0.3115 -2.0243
 7025SOL    HW222517   1.996   2.779   1.077  1.5148  0.1433 -0.9413
 7026SOL     OW22518   5.677   5.559   9.785 -0.6099  0.6304 -0.1217
 7026SOL    HW122519   5.653   5.553   9.878  1.0199  0.8998  0.3451
 7026SOL    HW222520   5.709   5.648   9.774  0.7740  0.1007 -0.5283
 7027SOL     OW22521   4.400   7.495   2.357  0.2882 -0.1061  0.0889
 7027SOL    HW122522   4.410   7.427   2.291 -1.8356 -0.0563 -0.3793
 7027SOL    HW222523   4.327   7.465   2.412  0.1325  1.2003  0.6358
 7028SOL     OW22524   3.215   3.925   2.435  0.0903 -0.2324 -0.9229
 7028SOL    HW122525   3.275   3.925   2.510 -0.4385 -0.4655 -0.4874
 7028SOL    HW222526   3.271   3.940   2.359  0.4359  1.8558 -0.3127
 7029SOL     OW22527   0.350   3.580   2.087  0.8464 -0.2875  0.4850
 7029SOL    HW122528   0.381   3.618   2.005  1.2737  1.3129  1.3584
 7029SOL    HW222529   0.277   3.523   2.061 -0.2740  1.6567 -0.8346
 7030SOL     OW22530   4.445   5.699   4.981 -0.6200  0.3765 -0.0251
 7030SOL    HW122531   4.360   5.655   4.988 -0.8066  0.8775  1.2656
 7030SOL    HW222532   4.502   5.652   5.041 -0.6358  1.4187  0.8482
 7031SOL     OW22533   3.039   7.960   6.487  0.1698 -0.0113  0.1555
 7031SOL    HW122534   2.991   8.012   6.551  0.3585  0.6964 -0.2671
 7031SOL    HW222535   3.131   7.979   6.503  0.2289 -0.0057 -0.1691
 7032SOL     OW22536   0.447   4.102   7.064  0.0547  0.0139  0.4592
 7032SOL    HW122537   0.464   4.020   7.018  1.9763  1.5245 -1.7209
 7032SOL    HW222538   0.396   4.155   7.003  1.4329  1.5229  0.5212
 7033SOL     OW22539   2.736   5.301   5.281 -0.1080 -0.0126 -0.1423
 7033SOL    HW122540   2.743   5.289   5.186  0.1555  1.3536 -0.3160
 7033SOL    HW222541   2.711   5.215   5.314  0.5910 -0.7213 -1.3638
 7034SOL     OW22542   2.046   2.330   3.019 -0.3161  0.0089 -0.3570
 7034SOL    HW122543   2.134   2.314   2.985 -0.3726  1.3527 -1.2236
 7034SOL    HW222544   1.988   2.310   2.945 -0.8226 -1.6640  0.4624
 7035SOL     OW22545   5.235   0.063   2.508 -0.4440  0.2415 -0.0044
 7035SOL    HW122546   5.143   0.039   2.517 -0.8662  0.7669 -2.2435
 7035SOL    HW222547   5.233   0.152   2.471  0.9094 -0.0826 -0.9702
 7036SOL     OW22548   4.826   5.167   1.206  0.5618  0.3751 -0.3885
 7036SOL    HW122549   4.846   5.223   1.280 -0.6062 -2.3875  2.2095
 7036SOL    HW222550   4.910   5.132   1.178  0.7966 -1.3658  2.1628
 7037SOL     OW22551   5.551   3.209   5.893 -0.4519  0.0727  0.1623
 7037SOL    HW122552   5.617   3.224   5.825  0.5359 -0.8080  0.8868
 7037SOL    HW222553   5.519   3.120   5.876 -1.4754  0.4980 -0.1844
 7038SOL     OW22554   4.412   2.601  11.055  0.2586  0.8804 -0.4797
 7038SOL    HW122555   4.507   2.604  11.042  0.6473 -0.1964  1.6498
 7038SOL    HW222556   4.392   2.680  11.104  0.0371  1.1139 -0.9399
 7039SOL     OW22557   3.596   5.523   2.682 -0.2104  0.2130 -0.4886
 7039SOL    HW122558   3.675   5.557   2.725 -0.2239 -0.5451  0.1445
 7039SOL    HW222559   3.596   5.430   2.703 -1.4515  0.2681 -0.2058
 7040SOL     OW22560   7.435   7.175   6.802  0.0916 -0.0755  0.3068
 7040SOL    HW122561   7.463   7.226   6.878  1.0402 -3.7241  2.6557
 7040SOL    HW222562   7.359   7.125   6.833 -1.3119  0.3635 -2.1133
 7041SOL     OW22563   0.743   0.357  11.898 -0.2765  0.4082 -0.5178
 7041SOL    HW122564   0.768   0.287  11.838  2.1631  1.9796 -1.5177
 7041SOL    HW222565   0.689   0.415  11.846 -0.9388  0.1142 -0.1703
 7042SOL     OW22566   6.249   7.856   3.718 -0.4494  0.1733 -0.5261
 7042SOL    HW122567   6.213   7.905   3.644 -0.8201  1.3110  0.3823
 7042SOL    HW222568   6.225   7.907   3.795  3.2479  1.1508  0.1817
 7043SOL     OW22569   7.254   3.345   2.131  0.5225 -0.5781  0.6180
 7043SOL    HW122570   7.271   3.411   2.065  1.3473 -1.0834  0.3123
 7043SOL    HW222571   7.162   3.357   2.154  1.2219  2.2664  2.3548
 7044SOL     OW22572   3.942   1.540   5.153 -0.1954 -0.3052 -0.1285
 7044SOL    HW122573   3.860   1.586   5.172  0.4532  0.3132  1.3050
 7044SOL    HW222574   3.946   1.471   5.220 -0.3260 -1.3943 -1.2110
 7045SOL     OW22575   5.898   6.301   6.496 -0.5775  0.0686  0.0480
 7045SOL    HW122576   5.836   6.347   6.439 -0.5295  1.2141  0.8841
 7045SOL    HW222577   5.925   6.225   6.446 -2.5111 -0.3547 -0.4273
 7046SOL     OW22578   2.235   3.558   5.363  0.4154  0.2051 -0.1862
 7046SOL    HW122579   2.175   3.619   5.321 -1.1977 -0.5851  0.8513
 7046SOL    HW222580   2.285   3.612   5.425 -0.6912  0.5721  0.4124
 7047SOL     OW22581   2.847   5.006  11.786  0.9157  0.1586  0.4422
 7047SOL    HW122582   2.904   5.062  11.840  1.3713  1.6348 -1.4682
 7047SOL    HW222583   2.761   5.049  11.792  0.9519  0.2839  0.0690
 7048SOL     OW22584   1.788   3.829   5.085  0.2303  0.2878 -0.0223
 7048SOL    HW122585   1.824   3.743   5.106  0.2524  0.2185 -0.3349
 7048SOL    HW222586   1.721   3.811   5.019 -0.3922  0.4148  0.5720
 7049SOL     OW22587   5.658   7.304   0.275  0.3048 -0.2002  0.2402
 7049SOL    HW122588   5.668   7.342   0.362  0.7969 -1.7280  0.8873
 7049SOL    HW222589   5.582   7.246   0.282  0.8071 -0.9183 -0.1183
 7050SOL     OW22590   5.639   5.786   1.975  0.1573 -0.3537 -0.1654
 7050SOL    HW122591   5.544   5.770   1.976  0.2738 -1.2148  1.5923
 7050SOL    HW222592   5.677   5.703   1.946  0.3642  0.3435 -2.0000
 7051SOL     OW22593   0.701   3.566   5.930  0.5419 -0.4990  0.1654
 7051SOL    HW122594   0.783   3.585   5.885  0.7416 -0.5891  0.4886
 7051SOL    HW222595   0.672   3.483   5.893  0.2905 -0.1740 -0.3745
 7052SOL     OW22596   2.891   5.069   3.736  0.1209 -0.1919 -0.3261
 7052SOL    HW122597   2.882   4.975   3.722  0.3907 -0.1582 -0.7448
 7052SOL    HW222598   2.884   5.107   3.648  2.3733 -0.0064 -0.4671
 7053SOL     OW22599   0.471   6.303   0.661  1.0187 -0.0516  0.6534
 7053SOL    HW122600   0.460   6.321   0.754  0.8787  0.9477  0.4547
 7053SOL    HW222601   0.561   6.330   0.642  0.5194  1.3552  0.1600
 7054SOL     OW22602   1.174   3.130   8.369  0.5455  0.1589  0.5592
 7054SOL    HW122603   1.118   3.143   8.445 -0.9755 -0.6323 -0.3723
 7054SOL    HW222604   1.241   3.198   8.375 -0.8606  1.4969  1.4100
 7055SOL     OW22605   6.861   2.200   0.623 -0.5293  0.1317 -0.0145
 7055SOL    HW122606   6.890   2.232   0.538 -0.4188  0.1604  0.0347
 7055SOL    HW222607   6.841   2.107   0.608 -0.6431  0.1708 -0.1048
 7056SOL     OW22608   5.296   3.021   8.434  0.0453 -0.0654  0.4124
 7056SOL    HW122609   5.280   2.928   8.451 -0.9049  0.1660  0.8531
 7056SOL    HW222610   5.384   3.037   8.468 -0.6055 -0.3304  2.3852
 7057SOL     OW22611   7.732   7.916   8.179  0.0266 -0.7068 -0.8571
 7057SOL    HW122612   7.668   7.849   8.156 -0.6825 -0.2027 -0.3852
 7057SOL    HW222613   7.682   7.998   8.177 -0.1635 -0.6178  2.5772
 7058SOL     OW22614   0.924   5.349   2.146  0.3381  0.3300 -0.3088
 7058SOL    HW122615   0.946   5.412   2.215  1.1220  3.5602 -3.1789
 7058SOL    HW222616   1.001   5.291   2.141  1.1640  1.3375  0.2159
 7059SOL     OW22617   7.715   7.386   0.547  0.3973  0.2391  0.4330
 7059SOL    HW122618   7.623   7.375   0.525  0.0950  0.3054  1.6029
 7059SOL    HW222619   7.762   7.362   0.468 -0.6093 -0.2278 -0.0334
 7060SOL     OW22620   3.781   6.083   6.604  0.1065 -0.8007  0.0746
 7060SOL    HW122621   3.746   6.059   6.519  1.3429  1.7460 -1.2771
 7060SOL    HW222622   3.743   6.169   6.623  2.2417  0.1269  0.5274
 7061SOL     OW22623   2.371   4.534   3.132  0.1925 -0.0965  0.4356
 7061SOL    HW122624   2.410   4.621   3.130  1.3285 -0.5967 -1.4432
 7061SOL    HW222625   2.309   4.532   3.059 -0.7757 -0.4811  1.2310
 7062SOL     OW22626   0.438   6.355  10.135  0.0145  0.0078  0.1807
 7062SOL    HW122627   0.426   6.265  10.165 -2.1097  0.3086  0.4198
 7062SOL    HW222628   0.525   6.380  10.166  0.3884 -1.7609  0.6391
 7063SOL     OW22629   1.315   4.927   7.498  0.3160  0.2152  0.1809
 7063SOL    HW122630   1.361   4.955   7.418  2.6364 -0.8105  1.0568
 7063SOL    HW222631   1.346   4.989   7.565  0.4261 -0.4945  0.7955
 7064SOL     OW22632   2.498   0.900   8.757  0.9504  0.5241  0.4113
 7064SOL    HW122633   2.503   0.949   8.840  0.7556  2.0320 -0.4284
 7064SOL    HW222634   2.495   0.808   8.784 -2.8105  1.0034  2.3085
 7065SOL     OW22635   5.643   7.638   1.206 -1.1929  0.3045 -0.6352
 7065SOL    HW122636   5.624   7.686   1.287  2.5342 -2.0284  1.9650
 7065SOL    HW222637   5.604   7.551   1.220  1.2223 -0.8033 -0.2064
 7066SOL     OW22638   0.500   3.983   6.504  0.2137 -0.4049  0.3749
 7066SOL    HW122639   0.518   3.994   6.411 -0.7156  0.7552  0.3087
 7066SOL    HW222640   0.525   3.893   6.523  0.0015 -0.7993 -1.0971
 7067SOL     OW22641   6.868   7.516   1.859 -0.0929 -0.2147  0.7931
 7067SOL    HW122642   6.934   7.540   1.924  1.4043 -0.3947 -0.5726
 7067SOL    HW222643   6.904   7.437   1.818 -1.3107 -0.4715  0.1914
 7068SOL     OW22644   7.709   5.565   9.990  0.1597 -0.5466 -0.5085
 7068SOL    HW122645   7.746   5.522  10.067  2.3124  1.5190 -0.2859
 7068SOL    HW222646   7.758   5.527   9.916 -0.5317 -1.1068 -0.6904
 7069SOL     OW22647   4.846   1.233  10.173  0.3345  0.2139  0.1242
 7069SOL    HW122648   4.798   1.314  10.157  0.0126  0.1486  0.7449
 7069SOL    HW222649   4.781   1.164  10.162  0.6795  0.0064 -0.7263
 7070SOL     OW22650   2.519   7.436   7.264 -0.1484 -0.1357 -0.4188
 7070SOL    HW122651   2.568   7.355   7.276  0.3788  0.2485  0.0767
 7070SOL    HW222652   2.494   7.435   7.172  0.7853 -0.3464 -0.6779
 7071SOL     OW22653   1.923   1.274   4.490 -0.2259 -0.4376  0.0068
 7071SOL    HW122654   1.966   1.189   4.501 -0.9886 -0.6824  1.3426
 7071SOL    HW222655   1.848   1.270   4.548 -1.8530  0.1369 -1.9616
 7072SOL     OW22656   2.353   0.167   2.988 -0.2230  0.0140 -0.5278
 7072SOL    HW122657   2.337   0.250   2.944 -0.1018 -0.4081 -1.3755
 7072SOL    HW222658   2.365   0.103   2.918 -0.4253 -0.7484  0.1081
 7073SOL     OW22659   5.798   3.399   1.848  0.3275 -0.3948 -0.0869
 7073SOL    HW122660   5.893   3.385   1.840  0.1006 -1.9121 -0.4834
 7073SOL    HW222661   5.776   3.360   1.933  0.3730  1.9741  1.0743
 7074SOL     OW22662   6.216   4.458   6.208 -0.0476 -0.6395 -0.1902
 7074SOL    HW122663   6.290   4.414   6.252 -1.5859 -1.7918  1.3679
 7074SOL    HW222664   6.185   4.522   6.272 -0.4436 -0.2039 -0.8120
 7075SOL     OW22665   0.917   3.177  10.571 -0.5201  0.6467 -0.4021
 7075SOL    HW122666   0.863   3.237  10.519  0.6834  0.7025 -1.6627
 7075SOL    HW222667   0.862   3.101  10.585 -1.0353  0.8087 -1.4369
 7076SOL     OW22668   7.886   2.060   3.337 -0.7588  0.3171 -0.3056
 7076SOL    HW122669   7.815   1.996   3.345 -1.3067  0.6259 -2.1320
 7076SOL    HW222670   7.949   2.035   3.405 -2.5393 -0.0376  1.2799
 7077SOL     OW22671   0.407   5.254  10.294  0.0198 -0.4856 -0.1522
 7077SOL    HW122672   0.434   5.278  10.206  0.4032  2.9575  0.7663
 7077SOL    HW222673   0.480   5.283  10.350 -2.0363  1.6207  1.6420
 7078SOL     OW22674   2.159   7.830   0.190 -0.3984 -0.0173  0.3724
 7078SOL    HW122675   2.081   7.836   0.134 -0.0951 -1.4618 -0.2442
 7078SOL    HW222676   2.213   7.904   0.164  0.3107 -1.3392 -2.1860
 7079SOL     OW22677   6.837   3.334   4.889  0.1059 -0.1212  0.0359
 7079SOL    HW122678   6.844   3.368   4.800 -0.2989  0.5782  0.2600
 7079SOL    HW222679   6.794   3.404   4.938  0.5134 -0.4132  0.8300
 7080SOL     OW22680   0.611   2.181  11.163 -0.3518  0.3162 -0.4039
 7080SOL    HW122681   0.584   2.150  11.250 -0.7671  1.1044 -0.2425
 7080SOL    HW222682   0.554   2.256  11.146 -2.2075 -1.4515 -2.5472
 7081SOL     OW22683   7.659   5.967   0.826 -0.5155 -0.0370 -0.2864
 7081SOL    HW122684   7.642   6.013   0.908  1.6505 -0.4121  0.4477
 7081SOL    HW222685   7.652   6.034   0.758  2.0542  1.3727  0.7025
 7082SOL     OW22686   7.056   7.154   8.463  0.2702 -1.1373 -0.5662
 7082SOL    HW122687   7.117   7.147   8.536 -1.3992  1.0834  1.2254
 7082SOL    HW222688   7.060   7.246   8.437  1.6559 -2.0542 -4.2187
 7083SOL     OW22689   3.286   6.980   7.271 -0.1313 -0.3712  0.2761
 7083SOL    HW122690   3.277   6.995   7.365  1.0216 -1.0807  0.5158
 7083SOL    HW222691   3.196   6.969   7.240 -0.5114 -0.3362  1.3263
 7084SOL     OW22692   2.718   4.914   3.415  0.3615  0.4092  0.0920
 7084SOL    HW122693   2.735   4.823   3.437 -0.1869  0.3701  0.3764
 7084SOL    HW222694   2.784   4.936   3.349 -0.0192 -0.4421 -0.5928
 7085SOL     OW22695   0.646   2.718  11.655  0.0828 -0.2425 -0.0995
 7085SOL    HW122696   0.615   2.723  11.745  2.3651 -2.7571  0.9659
 7085SOL    HW222697   0.626   2.629  11.627  2.4725 -0.6478 -0.7712
 7086SOL     OW22698   2.643   5.113   6.571  0.4738 -0.0493 -0.2973
 7086SOL    HW122699   2.714   5.057   6.541 -0.0353 -2.1048  2.0365
 7086SOL    HW222700   2.572   5.052   6.592 -0.4098  1.5279  1.6092
 7087SOL     OW22701   6.906   6.501   1.157 -0.1449  0.1965  0.2749
 7087SOL    HW122702   6.900   6.506   1.062  0.6069  0.8684  0.2515
 7087SOL    HW222703   6.932   6.589   1.184  0.3910 -0.1880  1.0404
 7088SOL     OW22704   7.672   4.772   7.920 -0.0618  0.1481 -0.2749
 7088SOL    HW122705   7.644   4.681   7.929 -3.6973  1.0904 -0.6803
 7088SOL    HW222706   7.715   4.792   8.004 -1.8075 -1.1283  0.9907
 7089SOL     OW22707   7.877   5.411   6.712 -0.5728  0.2821  0.1547
 7089SOL    HW122708   7.920   5.483   6.757  1.0183 -0.0812 -0.7103
 7089SOL    HW222709   7.785   5.418   6.738 -0.4493  2.5326  0.1875
 7090SOL     OW22710   1.927   5.836  10.512 -0.0605  0.2829  0.3415
 7090SOL    HW122711   1.997   5.902  10.518  1.0939 -0.8980  0.3062
 7090SOL    HW222712   1.957   5.776  10.445 -0.3841 -1.0807  1.3716
 7091SOL     OW22713   7.344   2.246   8.084 -0.4011  0.1716 -0.0122
 7091SOL    HW122714   7.419   2.187   8.083  0.5387  1.3192  0.2194
 7091SOL    HW222715   7.382   2.334   8.076 -1.4530  1.0562  3.1167
 7092SOL     OW22716   7.016   2.943  10.529 -0.1384 -0.3902  0.1093
 7092SOL    HW122717   7.081   2.916  10.594  1.2016  0.1673 -0.9365
 7092SOL    HW222718   6.989   2.862  10.487  1.0651 -0.5060 -0.4873
 7093SOL     OW22719   7.785   0.898   7.446  0.5188 -0.6922  0.2096
 7093SOL    HW122720   7.727   0.901   7.370  0.6545 -0.0722  0.1232
 7093SOL    HW222721   7.847   0.969   7.432  2.2253 -2.2383 -0.3988
 7094SOL     OW22722   4.276   2.211   2.921  0.2506 -0.7878 -0.0967
 7094SOL    HW122723   4.367   2.184   2.905  0.0611  0.1462 -3.6375
 7094SOL    HW222724   4.278   2.306   2.910 -1.0899 -0.7066  0.2493
 7095SOL     OW22725   0.973   1.455   0.410  0.3425 -0.0453 -0.4530
 7095SOL    HW122726   0.938   1.543   0.403  1.5991  0.5570  0.4144
 7095SOL    HW222727   1.037   1.449   0.338 -1.0753 -0.9484 -1.7012
 7096SOL     OW22728   7.386   5.414   7.796 -0.2826  0.2104 -0.1808
 7096SOL    HW122729   7.372   5.506   7.816 -1.0313 -0.0467  0.5990
 7096SOL    HW222730   7.341   5.368   7.867 -0.6854 -0.7560 -1.0298
 7097SOL     OW22731   0.627   0.970   5.314 -0.0569  0.3066  0.6608
 7097SOL    HW122732   0.533   0.962   5.330 -0.0740 -0.9100  0.0089
 7097SOL    HW222733   0.656   0.883   5.289  1.5062  0.3471  2.0911
 7098SOL     OW22734   6.013   1.193  10.884  0.2057 -0.0506  0.2913
 7098SOL    HW122735   6.079   1.125  10.871  0.8308  0.2402  1.7160
 7098SOL    HW222736   5.951   1.180  10.813  2.7003  0.7899 -2.2385
 7099SOL     OW22737   5.670   0.840   4.663  0.8640 -0.4034  0.1366
 7099SOL    HW122738   5.623   0.762   4.692  0.3022 -0.3052 -0.4969
 7099SOL    HW222739   5.692   0.823   4.572  1.3618 -0.1157  0.2025
 7100SOL     OW22740   2.024   2.497   3.890  0.2319 -1.0539  0.3075
 7100SOL    HW122741   2.075   2.545   3.825 -0.9807 -0.7021 -0.4319
 7100SOL    HW222742   2.056   2.407   3.883 -0.0055 -1.0693 -0.9549
 7101SOL     OW22743   0.008   3.671   2.765 -0.7223 -0.4436 -0.0985
 7101SOL    HW122744  -0.046   3.597   2.734 -0.0457 -2.2052  2.6030
 7101SOL    HW222745   0.098   3.642   2.750 -0.4529  0.0151  0.6202
 7102SOL     OW22746   5.399   2.642   7.855  0.2439 -0.7653  0.0675
 7102SOL    HW122747   5.467   2.624   7.789  0.6660 -1.2622  0.6247
 7102SOL    HW222748   5.323   2.593   7.824 -0.7756  1.9057 -1.9994
 7103SOL     OW22749   7.633   5.980   2.090  0.2507  0.6437 -0.5933
 7103SOL    HW122750   7.574   5.940   2.026  1.8537  0.6842 -2.1991
 7103SOL    HW222751   7.657   5.908   2.149 -1.3114  0.6202  0.0526
 7104SOL     OW22752   7.833   7.941   0.829  0.3832 -0.6840  0.2446
 7104SOL    HW122753   7.742   7.967   0.839  0.4881 -0.3235  0.2714
 7104SOL    HW222754   7.882   8.000   0.886  0.6159 -0.9933  0.3676
 7105SOL     OW22755   5.785   6.673   3.634  0.1217 -0.1346 -0.0044
 7105SOL    HW122756   5.818   6.738   3.571  0.1543 -0.1627 -0.0163
 7105SOL    HW222757   5.698   6.651   3.603 -0.1278  0.3494  0.3335
 7106SOL     OW22758   0.672   1.083   7.758 -0.3471  0.3316  0.0371
 7106SOL    HW122759   0.615   1.160   7.759 -1.0270 -0.1637  0.1984
 7106SOL    HW222760   0.634   1.026   7.692 -1.1661 -0.8214  1.4523
 7107SOL     OW22761   7.274   5.205   1.001  0.0789 -0.1621 -0.7368
 7107SOL    HW122762   7.316   5.257   0.933  0.4949  0.6706  0.1359
 7107SOL    HW222763   7.180   5.211   0.981  0.1248  0.9104 -0.6515
 7108SOL     OW22764   1.582   4.762   2.057 -0.5114 -0.2111  0.1063
 7108SOL    HW122765   1.604   4.671   2.076 -2.1611 -0.6524  0.0123
 7108SOL    HW222766   1.493   4.759   2.022 -1.0962  1.5478  1.3027
 7109SOL     OW22767   0.222   0.330   8.751  0.1563  0.1756 -0.1092
 7109SOL    HW122768   0.153   0.341   8.686  1.4357  0.7196 -1.4420
 7109SOL    HW222769   0.303   0.330   8.700  1.1153 -1.2743  1.3117
 7110SOL     OW22770   5.518   3.620   3.184 -0.1406  0.7498 -0.2183
 7110SOL    HW122771   5.527   3.618   3.089  0.0651 -0.0349 -0.1883
 7110SOL    HW222772   5.596   3.575   3.216 -0.4772  0.5383  0.3060
 7111SOL     OW22773   7.960   1.087   4.112 -0.4015 -0.2884  0.0453
 7111SOL    HW122774   7.873   1.116   4.139 -1.0741 -0.8929 -1.3633
 7111SOL    HW222775   7.978   1.137   4.032  0.3297 -0.5462  0.0434
 7112SOL     OW22776   2.144   1.761   2.405  0.3002 -0.5672  0.7257
 7112SOL    HW122777   2.214   1.697   2.395  0.9734  0.4829 -2.2400
 7112SOL    HW222778   2.183   1.844   2.376 -1.2607  0.7348  2.1068
 7113SOL     OW22779   2.647   1.266   7.054  0.1698  0.3842  0.1042
 7113SOL    HW122780   2.673   1.286   7.144 -1.8322  0.9812  0.6088
 7113SOL    HW222781   2.573   1.206   7.063 -0.1286  0.5380 -1.1349
 7114SOL     OW22782   7.051   7.513   9.237  0.2576  0.1944 -0.4448
 7114SOL    HW122783   7.061   7.418   9.240  0.0624  0.1738 -0.4351
 7114SOL    HW222784   7.000   7.534   9.316  1.8133  0.4946  0.5143
 7115SOL     OW22785   6.195   6.031   3.019  0.0335 -0.2987 -0.5880
 7115SOL    HW122786   6.101   6.046   3.031 -0.1147 -1.6720  0.1400
 7115SOL    HW222787   6.203   5.998   2.930 -0.0352  0.7332 -0.9957
 7116SOL     OW22788   5.197   1.133   6.078  1.4610 -0.4999  0.8553
 7116SOL    HW122789   5.148   1.125   6.160  0.3722  0.5758  0.3311
 7116SOL    HW222790   5.240   1.218   6.084  3.4332 -1.4587  1.3544
 7117SOL     OW22791   0.975   6.018   4.674 -0.6296  0.9214 -0.2847
 7117SOL    HW122792   0.965   6.020   4.579 -0.2234 -0.6849 -0.3811
 7117SOL    HW222793   1.009   6.105   4.696  0.7424  0.8192 -1.8019
 7118SOL     OW22794   0.599   1.524   1.975 -0.4252 -0.7468 -0.5615
 7118SOL    HW122795   0.679   1.478   2.001 -0.5574 -0.2895  0.7251
 7118SOL    HW222796   0.528   1.467   2.005 -0.6035 -1.0925 -1.5938
 7119SOL     OW22797   0.273   0.288   4.572  0.3495  0.4094  0.3916
 7119SOL    HW122798   0.313   0.352   4.513  0.4994 -0.3646 -0.3623
 7119SOL    HW222799   0.216   0.236   4.516  0.1746 -0.0730  1.0109
 7120SOL     OW22800   6.457   5.388   1.014  0.0235 -0.1304  0.4713
 7120SOL    HW122801   6.432   5.476   0.983 -0.5074  0.6571  2.9180
 7120SOL    HW222802   6.382   5.333   0.993 -0.4039  0.4197  0.5389
 7121SOL     OW22803   2.302   4.357  11.655  0.0396  0.2141  0.6650
 7121SOL    HW122804   2.356   4.335  11.731 -1.1496  0.8251  1.7249
 7121SOL    HW222805   2.364   4.388  11.590  1.0722 -0.1387  1.4551
 7122SOL     OW22806   1.135   4.629   0.311  0.7395 -0.3440  0.2897
 7122SOL    HW122807   1.179   4.652   0.229  1.0444 -0.4535  0.4214
 7122SOL    HW222808   1.205   4.596   0.368  0.5639 -0.0806  0.6646
 7123SOL     OW22809   4.148   6.440   8.324 -0.2846 -0.0901 -0.1745
 7123SOL    HW122810   4.095   6.382   8.378  1.1066 -2.0442 -0.7606
 7123SOL    HW222811   4.139   6.405   8.235  1.3848 -0.0534 -0.3943
 7124SOL     OW22812   0.953   3.629   8.621  0.5505  0.3600  0.3316
 7124SOL    HW122813   0.980   3.595   8.707 -0.3141  0.4365  0.6385
 7124SOL    HW222814   0.952   3.724   8.633  2.7066  0.5499 -0.4493
 7125SOL     OW22815   6.890   0.128   6.328  0.4500  0.3706 -0.4872
 7125SOL    HW122816   6.841   0.123   6.247  0.0084 -1.3940 -0.1561
 7125SOL    HW222817   6.897   0.037   6.358  1.0836  0.9133  1.1560
 7126SOL     OW22818   7.154   6.664   7.006  0.6207  0.4447 -0.4618
 7126SOL    HW122819   7.114   6.620   6.931 -0.7243  1.3127 -0.2880
 7126SOL    HW222820   7.079   6.692   7.060  1.5509 -1.5640  2.0566
 7127SOL     OW22821   1.520   0.400   3.886  0.0235  0.1153  0.2116
 7127SOL    HW122822   1.566   0.478   3.855 -1.1570  0.0589 -1.9082
 7127SOL    HW222823   1.429   0.429   3.895  0.0852 -0.2430  2.5144
 7128SOL     OW22824   7.287   7.226   8.612 -0.6238  0.5550 -0.3358
 7128SOL    HW122825   7.286   7.196   8.703 -0.0487 -1.0556 -0.8172
 7128SOL    HW222826   7.365   7.185   8.575 -2.2716 -1.0307 -2.2405
 7129SOL     OW22827   1.406   7.893   8.968 -0.0679 -0.1775  0.5522
 7129SOL    HW122828   1.381   7.977   8.928  0.0198 -0.6093 -0.4170
 7129SOL    HW222829   1.323   7.852   8.991 -0.1340 -0.1876  0.2894
 7130SOL     OW22830   1.598   7.119  11.555 -0.0632 -0.6214  0.3350
 7130SOL    HW122831   1.675   7.063  11.545  1.0469  0.9238 -0.3338
 7130SOL    HW222832   1.538   7.091  11.486 -0.2094 -1.9746  0.9854
 7131SOL     OW22833   5.379   1.862   4.525 -0.6823  0.6343 -0.5811
 7131SOL    HW122834   5.373   1.940   4.581 -1.9010  1.8343 -2.2708
 7131SOL    HW222835   5.298   1.814   4.543 -0.2053  0.0347  0.0222
 7132SOL     OW22836   6.604   6.050   5.679  0.4367  0.5402 -0.5259
 7132SOL    HW122837   6.666   6.066   5.750 -0.0573  3.0429 -0.5610
 7132SOL    HW222838   6.594   5.955   5.676  2.1374  0.2476  1.2827
 7133SOL     OW22839   1.232   0.152   7.631 -0.1767  0.3524 -0.2242
 7133SOL    HW122840   1.235   0.204   7.550 -2.0701  0.6337 -0.1548
 7133SOL    HW222841   1.140   0.127   7.640  0.1425 -0.3251  1.4466
 7134SOL     OW22842   0.279   2.414   1.483  0.1774 -0.4550 -0.6431
 7134SOL    HW122843   0.229   2.447   1.409 -0.8436  0.4513  0.4094
 7134SOL    HW222844   0.240   2.457   1.560  1.3876 -1.1311  0.3941
 7135SOL     OW22845   1.254   1.156   2.566 -0.1144  0.4518  0.2984
 7135SOL    HW122846   1.192   1.207   2.514 -0.7448  0.1646  0.7584
 7135SOL    HW222847   1.229   1.172   2.657 -0.1006 -0.3906  0.4612
 7136SOL     OW22848   7.590   3.997   3.758 -0.1331 -0.4039 -0.0655
 7136SOL    HW122849   7.541   3.934   3.705  0.6134 -1.2443  0.2077
 7136SOL    HW222850   7.604   3.952   3.841  0.2465  0.1971  0.2020
 7137SOL     OW22851   3.146   7.344   9.747 -0.0333 -0.0089  0.0952
 7137SOL    HW122852   3.091   7.422   9.759 -2.8873 -2.1105  1.9128
 7137SOL    HW222853   3.196   7.338   9.828 -1.0589 -0.8868  0.6946
 7138SOL     OW22854   3.045   4.033  12.220 -0.8521 -0.1039 -0.6189
 7138SOL    HW122855   3.025   4.065  12.132 -0.4551  0.5900 -0.4637
 7138SOL    HW222856   3.122   3.979  12.208 -1.0870 -0.4105 -0.7687
 7139SOL     OW22857   0.688   2.236   8.616  0.3518 -0.4471  0.1651
 7139SOL    HW122858   0.628   2.209   8.685 -0.1921  2.7654  1.1146
 7139SOL    HW222859   0.773   2.201   8.642  0.2177  0.9140  2.6821
 7140SOL     OW22860   5.053   5.332   2.276  0.6822 -0.7313 -0.3004
 7140SOL    HW122861   5.026   5.424   2.286  0.8306 -0.7249  0.0914
 7140SOL    HW222862   5.004   5.286   2.345  0.9624 -0.8675 -0.1927
 7141SOL     OW22863   7.804   7.570   8.826  0.1594 -0.0724 -0.2996
 7141SOL    HW122864   7.731   7.627   8.850  1.4370  2.1821 -1.4146
 7141SOL    HW222865   7.867   7.580   8.897  0.7737  0.7118 -0.9235
 7142SOL     OW22866   6.614   5.838   4.791 -0.0877  0.1233 -0.5134
 7142SOL    HW122867   6.596   5.884   4.873 -0.5331  0.2439 -0.6765
 7142SOL    HW222868   6.597   5.746   4.811 -2.4310  0.3700 -1.0555
 7143SOL     OW22869   5.785   3.292   5.446 -0.2915  0.0711  0.1068
 7143SOL    HW122870   5.736   3.253   5.374 -0.2122 -0.6435  0.4396
 7143SOL    HW222871   5.844   3.354   5.403 -0.7648  0.1996 -0.3782
 7144SOL     OW22872   4.550   6.440  11.729  0.1366 -0.3761 -0.4910
 7144SOL    HW122873   4.582   6.493  11.801  1.1549 -0.0008 -1.1979
 7144SOL    HW222874   4.611   6.457  11.657 -0.0238 -1.8260 -1.0071
 7145SOL     OW22875   4.980   4.919   1.991 -0.1426 -0.0320  0.1877
 7145SOL    HW122876   5.033   4.939   2.068 -0.0540 -0.4157  0.2252
 7145SOL    HW222877   4.889   4.933   2.020 -0.0898  0.1779  0.2543
 7146SOL     OW22878   6.536   2.874   0.632 -0.2184 -0.7031  0.2409
 7146SOL    HW122879   6.455   2.824   0.641 -0.3682 -0.3715  0.8026
 7146SOL    HW222880   6.574   2.844   0.550 -0.7369 -1.1144  0.1467
 7147SOL     OW22881   4.274   6.348  10.846 -0.0048  0.6819  0.1745
 7147SOL    HW122882   4.182   6.336  10.823  0.2585  0.6680 -0.9134
 7147SOL    HW222883   4.321   6.285  10.791  0.6680  0.7330  0.6753
 7148SOL     OW22884   4.441   2.378  11.565  0.4306  0.0740 -0.6682
 7148SOL    HW122885   4.436   2.364  11.471 -2.7612  0.6856 -0.6787
 7148SOL    HW222886   4.394   2.304  11.603 -1.0770  1.4324  0.2244
 7149SOL     OW22887   7.386   3.797   6.967  0.4494  0.1799  0.1833
 7149SOL    HW122888   7.366   3.774   7.057  0.0092 -0.3691 -0.0466
 7149SOL    HW222889   7.396   3.892   6.967 -2.5172  0.5599  0.2649
 7150SOL     OW22890   0.388   0.456  11.725 -0.3490 -0.4725  0.0480
 7150SOL    HW122891   0.450   0.518  11.763 -0.0385  0.0663 -1.2732
 7150SOL    HW222892   0.436   0.415  11.653 -1.4045 -0.3204 -0.7658
 7151SOL     OW22893   0.650   0.681   7.860  0.1547 -0.0334 -0.0393
 7151SOL    HW122894   0.704   0.749   7.819  1.2967 -0.9056 -0.0418
 7151SOL    HW222895   0.598   0.645   7.788 -1.1052  1.3881  0.1168
 7152SOL     OW22896   1.700   1.873   2.702  0.2448 -0.0881 -0.5192
 7152SOL    HW122897   1.755   1.951   2.707 -0.2743  0.1976  1.1682
 7152SOL    HW222898   1.761   1.800   2.708  0.5572  0.2064 -0.1079
 7153SOL     OW22899   4.099   2.976   1.318 -0.0015  0.7220  0.0785
 7153SOL    HW122900   4.049   2.902   1.287 -0.5489  1.5918 -1.1779
 7153SOL    HW222901   4.087   3.044   1.251  2.7546  1.0109 -0.2428
 7154SOL     OW22902   6.004   6.082   4.744  0.1319  0.1743  0.1347
 7154SOL    HW122903   5.958   6.144   4.688  0.7282  1.3417  0.8961
 7154SOL    HW222904   6.037   6.015   4.684  0.7119  1.3543 -0.9033
 7155SOL     OW22905   4.760   2.752  11.513 -0.2554  0.3774 -0.1559
 7155SOL    HW122906   4.776   2.781  11.423 -1.0662  0.0708 -0.4065
 7155SOL    HW222907   4.843   2.712  11.540 -0.9961 -2.8193 -2.0604
 7156SOL     OW22908   7.023   6.481   8.448  0.1019  0.2301 -0.4434
 7156SOL    HW122909   7.025   6.530   8.366 -1.0644  0.2341 -0.4973
 7156SOL    HW222910   6.933   6.493   8.480  0.1616 -0.8366  0.1758
 7157SOL     OW22911   2.865   3.724   2.515  0.0924  0.1219  0.8063
 7157SOL    HW122912   2.864   3.633   2.486  0.6637 -0.6529  3.0244
 7157SOL    HW222913   2.808   3.725   2.592  1.7016  1.1612  2.0452
 7158SOL     OW22914   4.590   4.822   7.430 -0.2362 -0.5948 -0.4778
 7158SOL    HW122915   4.649   4.763   7.477  0.1659 -0.0749 -0.3312
 7158SOL    HW222916   4.504   4.781   7.440 -0.3741  0.0644  1.7108
 7159SOL     OW22917   1.525   4.542   8.227  0.2877  0.1434 -0.4318
 7159SOL    HW122918   1.505   4.465   8.174 -1.1866 -0.7924  1.3297
 7159SOL    HW222919   1.458   4.606   8.204 -1.6995 -1.0281  1.6380
 7160SOL     OW22920   4.818   5.477   9.108 -0.3361  0.5834 -0.1044
 7160SOL    HW122921   4.812   5.482   9.204 -2.5963  1.9500 -0.2535
 7160SOL    HW222922   4.727   5.471   9.078  0.3280 -0.0120 -2.1959
 7161SOL     OW22923   2.465   0.303   9.527  0.4752  0.0870 -0.4261
 7161SOL    HW122924   2.387   0.358   9.539  0.3880  0.1960 -1.3792
 7161SOL    HW222925   2.518   0.318   9.605  0.2367  1.1740 -0.4581
 7162SOL     OW22926   1.358   1.925  10.957  0.5988 -0.3087  0.5532
 7162SOL    HW122927   1.350   2.016  10.986  1.2103 -0.5658  1.5663
 7162SOL    HW222928   1.269   1.890  10.963 -0.1583  0.8572 -2.1771
 7163SOL     OW22929   6.512   1.155   7.100  0.0630  0.0859 -0.3273
 7163SOL    HW122930   6.448   1.226   7.101 -1.2177 -1.0141 -0.8320
 7163SOL    HW222931   6.517   1.127   7.192  2.3471  2.2810  0.3265
 7164SOL     OW22932   6.118   7.599   9.452  0.1690 -0.2927 -0.0406
 7164SOL    HW122933   6.069   7.675   9.420 -1.0040  0.1477  2.5154
 7164SOL    HW222934   6.051   7.535   9.474  0.9234 -0.7984  0.8348
 7165SOL     OW22935   0.368   3.297   5.425 -0.2646 -0.1785  0.4212
 7165SOL    HW122936   0.462   3.292   5.441 -0.0958 -2.3424 -0.8802
 7165SOL    HW222937   0.360   3.300   5.330 -1.5061  1.0589  0.5402
 7166SOL     OW22938   0.500   0.144   0.876  0.6758  0.6973 -0.6233
 7166SOL    HW122939   0.531   0.053   0.880 -0.1349  0.4413  0.1849
 7166SOL    HW222940   0.417   0.139   0.828 -0.5642  0.6435  1.4365
 7167SOL     OW22941   6.656   5.739   4.187  0.1381 -0.0058  0.6044
 7167SOL    HW122942   6.632   5.769   4.275  0.8579 -1.0790  1.1929
 7167SOL    HW222943   6.739   5.782   4.168  0.4431 -0.4801  0.8434
 7168SOL     OW22944   6.020   2.537  11.197  0.0507 -0.0415 -0.0548
 7168SOL    HW122945   5.951   2.603  11.189  0.1754  0.0388 -0.4680
 7168SOL    HW222946   6.076   2.570  11.267  1.6949  1.7432 -2.0869
 7169SOL     OW22947   7.146   1.444  10.773  0.5017  0.2583 -0.1502
 7169SOL    HW122948   7.139   1.528  10.727  0.8273 -0.3518 -1.3467
 7169SOL    HW222949   7.143   1.378  10.704  0.1836 -0.7315  0.7824
 7170SOL     OW22950   1.705   6.489   6.270  0.4989 -0.0890  0.0556
 7170SOL    HW122951   1.712   6.568   6.323  2.2599 -0.1357 -0.0624
 7170SOL    HW222952   1.708   6.520   6.180  1.9468 -0.3000  0.0024
 7171SOL     OW22953   6.209   0.462   6.557 -0.0949  0.3829  0.7112
 7171SOL    HW122954   6.303   0.477   6.568 -0.5524  2.5137  2.5610
 7171SOL    HW222955   6.204   0.381   6.507  2.7152  0.3235  0.3173
 7172SOL     OW22956   7.446   6.140   2.560 -0.0022 -0.6013 -0.1171
 7172SOL    HW122957   7.368   6.118   2.509  0.7855 -0.7367 -1.2922
 7172SOL    HW222958   7.519   6.106   2.509  1.0887  2.2985 -0.6679
 7173SOL     OW22959   1.648   3.969   3.760  0.1260  0.0250  0.2125
 7173SOL    HW122960   1.641   4.060   3.790  2.6641  0.8626 -1.4160
 7173SOL    HW222961   1.742   3.951   3.759 -0.2325 -2.1214 -0.9214
 7174SOL     OW22962   0.673   2.771   7.791  0.5584 -0.1378  0.4083
 7174SOL    HW122963   0.635   2.808   7.871 -0.3139 -2.8677  1.3607
 7174SOL    HW222964   0.737   2.707   7.823  3.0386  1.3684 -1.1756
 7175SOL     OW22965   3.734   3.708   4.022 -0.2172  0.3000  1.1313
 7175SOL    HW122966   3.828   3.709   4.004 -0.1236  0.5983  1.5986
 7175SOL    HW222967   3.701   3.787   3.979 -0.7331 -1.1314 -1.3214
 7176SOL     OW22968   6.526   3.157  10.215 -0.0647 -0.2541  0.1360
 7176SOL    HW122969   6.507   3.186  10.126  2.0300 -0.5738 -0.4634
 7176SOL    HW222970   6.598   3.213  10.244 -3.3531  2.8595  3.3752
 7177SOL     OW22971   2.422   1.928   1.029 -0.0483 -0.0485  0.1003
 7177SOL    HW122972   2.418   2.017   0.995  1.2977  0.6152  1.5804
 7177SOL    HW222973   2.511   1.918   1.061  0.3765 -2.5426 -1.5440
 7178SOL     OW22974   7.365   0.465   6.957  0.4192  0.0204  0.4440
 7178SOL    HW122975   7.457   0.443   6.974  0.0285 -0.5491  1.8916
 7178SOL    HW222976   7.360   0.470   6.861  2.1083  0.7524  0.3462
 7179SOL     OW22977   0.277   2.529   3.655  0.6050  0.3273  0.0829
 7179SOL    HW122978   0.241   2.475   3.584  1.7818 -0.1584 -0.1618
 7179SOL    HW222979   0.257   2.479   3.735  1.2585 -0.2519 -0.1041
 7180SOL     OW22980   4.558   7.079   9.555 -0.4352  0.1983  0.4190
 7180SOL    HW122981   4.559   7.085   9.459 -1.0754 -0.3373  0.3714
 7180SOL    HW222982   4.500   7.149   9.583 -0.7378 -0.0287  0.3728
 7181SOL     OW22983   1.178   6.583   4.803  0.3573 -0.2523  0.2209
 7181SOL    HW122984   1.154   6.676   4.801 -0.8576 -0.5420  0.1534
 7181SOL    HW222985   1.198   6.561   4.712  1.0895  0.0398  0.3043
 7182SOL     OW22986   1.483   0.190   1.057 -0.8430  0.3043 -0.0493
 7182SOL    HW122987   1.401   0.144   1.041 -0.3482 -0.1029 -1.5567
 7182SOL    HW222988   1.473   0.274   1.012 -0.1572 -0.0607 -0.9094
 7183SOL     OW22989   3.943   6.637   0.368 -0.5346 -0.1287 -0.2510
 7183SOL    HW122990   4.037   6.655   0.364 -0.5650  0.0501 -0.1221
 7183SOL    HW222991   3.902   6.710   0.321 -0.5774 -0.4567 -0.7354
 7184SOL     OW22992   4.849   6.927   7.912  0.4643  0.3855  0.1663
 7184SOL    HW122993   4.877   6.877   7.989 -0.0589 -0.4052 -0.1338
 7184SOL    HW222994   4.903   6.893   7.841  0.0955  0.2322 -0.0444
 7185SOL     OW22995   1.147   5.230   7.158  0.2570  0.2985  0.0585
 7185SOL    HW122996   1.091   5.308   7.161  0.0257  0.2311 -1.5004
 7185SOL    HW222997   1.092   5.164   7.115  1.1504 -0.1091 -0.4749
 7186SOL     OW22998   7.676   5.583  10.829  0.2851 -0.3335 -0.1092
 7186SOL    HW122999   7.758   5.619  10.794  0.4556  0.0666  0.6974
 7186SOL    HW223000   7.670   5.496  10.788 -0.7401  0.9894 -3.0041
 7187SOL     OW23001   7.143   7.804   6.890  0.0002 -0.4086  0.4774
 7187SOL    HW123002   7.067   7.861   6.900  0.1161  0.1749 -1.6924
 7187SOL    HW223003   7.213   7.848   6.938 -0.7209 -0.3970  1.5523
 7188SOL     OW23004   6.255   5.059   9.691  0.2378 -0.2010 -0.5910
 7188SOL    HW123005   6.274   5.138   9.741  1.2908 -0.9395  0.2096
 7188SOL    HW223006   6.221   5.091   9.607 -0.8564  1.0586  0.3160
 7189SOL     OW23007   4.290   4.025   1.185  0.0430  0.5269 -0.0909
 7189SOL    HW123008   4.228   4.008   1.256 -0.3308 -0.9045 -0.7160
 7189SOL    HW223009   4.376   4.020   1.226 -0.1829  0.0502  0.3264
 7190SOL     OW23010   4.086   6.546   6.526  0.0515  0.2465  0.0069
 7190SOL    HW123011   4.161   6.587   6.482  2.0616 -2.0553  1.0174
 7190SOL    HW223012   4.026   6.525   6.456  1.5664 -0.1622 -1.2320
 7191SOL     OW23013   4.086   0.863  10.073 -0.3892  0.1574  0.6809
 7191SOL    HW123014   4.171   0.907  10.072 -1.0896  1.5934  0.8592
 7191SOL    HW223015   4.103   0.777  10.036  1.3122  0.0843  1.5362
 7192SOL     OW23016   2.449   7.689   1.891 -0.2754 -0.3888  0.2900
 7192SOL    HW123017   2.390   7.764   1.880  0.3020  0.1098  0.5195
 7192SOL    HW223018   2.488   7.677   1.804 -0.6568 -0.6773  0.1547
 7193SOL     OW23019   5.246   1.261   1.158  0.0377 -0.1172 -0.5297
 7193SOL    HW123020   5.170   1.206   1.140  0.7320 -0.8595 -1.2713
 7193SOL    HW223021   5.213   1.351   1.156 -0.9479 -0.4623 -0.1069
 7194SOL     OW23022   0.613   1.337   6.554  0.3051 -0.5212 -0.0193
 7194SOL    HW123023   0.591   1.282   6.479  2.6033 -0.5156 -0.7818
 7194SOL    HW223024   0.632   1.423   6.516 -0.6181  0.0924  0.8523
 7195SOL     OW23025   6.535   7.230   4.714  0.5384 -0.0766  0.0620
 7195SOL    HW123026   6.492   7.161   4.663 -1.1249  1.0962 -0.2136
 7195SOL    HW223027   6.528   7.201   4.804  2.4294 -1.5944 -0.2215
 7196SOL     OW23028   7.003   0.102   9.179 -0.4278 -0.1901  0.0388
 7196SOL    HW123029   6.911   0.111   9.154 -0.8326 -0.1312  1.4558
 7196SOL    HW223030   7.018   0.007   9.182 -0.5495 -0.2036  0.1981
 7197SOL     OW23031   3.552   6.026   2.731  0.7694 -0.3704  0.1709
 7197SOL    HW123032   3.532   6.048   2.640  2.4191 -0.9793 -0.3925
 7197SOL    HW223033   3.602   6.101   2.764  0.1116 -0.1176  0.6118
 7198SOL     OW23034   6.380   7.077  10.210 -0.1631  0.3972  0.5229
 7198SOL    HW123035   6.332   7.048  10.287 -2.1277 -0.4989 -0.9547
 7198SOL    HW223036   6.462   7.027  10.212 -0.8489 -0.7239  1.2289
 7199SOL     OW23037   3.285   3.081  11.662 -0.0014 -0.2458 -0.4116
 7199SOL    HW123038   3.219   3.094  11.729 -0.1528 -1.4950 -0.2985
 7199SOL    HW223039   3.368   3.100  11.705 -0.0457 -1.5973  0.3287
 7200SOL     OW23040   4.797   6.173   5.132  0.4241  0.3196  0.3215
 7200SOL    HW123041   4.874   6.191   5.187  0.7845 -0.9463  0.2476
 7200SOL    HW223042   4.761   6.091   5.166  1.0972 -0.9247 -1.7966
 7201SOL     OW23043   3.215   7.166   0.626  0.1406  0.4872  0.4135
 7201SOL    HW123044   3.230   7.171   0.721  1.2654 -0.4342  0.3151
 7201SOL    HW223045   3.160   7.088   0.615 -0.0357  0.6257  0.3093
 7202SOL     OW23046   2.200   2.312   7.741 -0.1142 -0.6938  0.0295
 7202SOL    HW123047   2.186   2.373   7.668 -1.9634 -1.6799 -0.4867
 7202SOL    HW223048   2.276   2.260   7.714 -0.4809 -0.7230 -0.9854
 7203SOL     OW23049   2.916   3.967   7.733  0.2391 -0.1121  0.1563
 7203SOL    HW123050   2.871   3.883   7.733 -1.4116  0.7295  0.2372
 7203SOL    HW223051   2.953   3.974   7.821 -1.1742  0.0161  0.7670
 7204SOL     OW23052   5.690   2.198  11.951  1.2152  0.4354  0.1439
 7204SOL    HW123053   5.748   2.122  11.945  0.8723  0.0224  1.6027
 7204SOL    HW223054   5.615   2.167  12.003  0.3580  1.3521 -0.5115
 7205SOL     OW23055   1.709   3.717   7.208  0.1759  0.2077  0.3333
 7205SOL    HW123056   1.729   3.639   7.157 -1.1336 -0.3315  0.5950
 7205SOL    HW223057   1.615   3.733   7.193  0.1486  1.0173  1.2360
 7206SOL     OW23058   6.169   6.373   5.645  0.4197 -0.0548 -0.1689
 7206SOL    HW123059   6.163   6.381   5.740  0.1771  0.9063 -0.2538
 7206SOL    HW223060   6.099   6.313   5.621 -0.9018  1.3209  0.0740
 7207SOL     OW23061   5.711   0.739  11.839  0.2494  0.3575  0.1161
 7207SOL    HW123062   5.682   0.659  11.796 -0.3877 -0.5802  2.1458
 7207SOL    HW223063   5.679   0.730  11.929  0.7951  2.5710  0.5783
 7208SOL     OW23064   0.610   4.410   3.215 -0.1351 -0.3078 -0.3657
 7208SOL    HW123065   0.546   4.479   3.230  1.9815  1.8037 -0.4874
 7208SOL    HW223066   0.639   4.424   3.125  1.0823 -0.6793 -0.0499
 7209SOL     OW23067   6.786   6.928   1.697 -0.0307 -0.5688 -0.2459
 7209SOL    HW123068   6.764   6.880   1.617  1.4139 -2.5045  0.4253
 7209SOL    HW223069   6.753   6.872   1.768 -0.6073  0.7402  0.5619
 7210SOL     OW23070   5.179   5.425   2.062 -0.5164  0.4679 -0.5391
 7210SOL    HW123071   5.180   5.519   2.080 -2.3947  0.5578 -0.6560
 7210SOL    HW223072   5.162   5.384   2.147  0.8817  0.1739 -0.3830
 7211SOL     OW23073   4.750   2.216   3.820  0.0726  0.4535  0.3145
 7211SOL    HW123074   4.755   2.145   3.755  2.5100 -0.6106  1.5329
 7211SOL    HW223075   4.792   2.180   3.898  1.2771  3.2005  1.0427
 7212SOL     OW23076   0.928   5.843   5.575 -0.0375  0.0840  0.4959
 7212SOL    HW123077   0.884   5.758   5.575  1.7696 -0.9042 -0.0133
 7212SOL    HW223078   0.991   5.838   5.647  0.1535  0.9498  0.4067
 7213SOL     OW23079   5.706   4.851   5.811 -0.2472  0.1123 -0.1037
 7213SOL    HW123080   5.618   4.870   5.778 -0.7942 -1.2568  0.5118
 7213SOL    HW223081   5.738   4.780   5.756 -0.2525 -0.6171  0.8219
 7214SOL     OW23082   5.009   2.674   9.834  0.3919  0.1977  0.9417
 7214SOL    HW123083   5.046   2.591   9.803  2.5456  0.5444  2.3687
 7214SOL    HW223084   5.021   2.735   9.762 -2.0472 -0.8642 -0.4795
 7215SOL     OW23085   0.605   0.127   6.509  0.3462 -0.8391  0.2696
 7215SOL    HW123086   0.589   0.082   6.425 -0.2212 -2.3626  1.1582
 7215SOL    HW223087   0.680   0.183   6.491 -0.0857 -0.7426 -1.4062
 7216SOL     OW23088   6.967   0.379   3.028  0.2153  0.2490  0.4262
 7216SOL    HW123089   6.937   0.446   3.090 -1.0937 -0.4898  0.6206
 7216SOL    HW223090   6.954   0.419   2.942  0.9541  0.8371  0.5692
 7217SOL     OW23091   2.980   2.416   0.445  0.0772  0.1621 -0.2595
 7217SOL    HW123092   3.041   2.389   0.514  2.2998  3.1116 -0.8726
 7217SOL    HW223093   2.969   2.337   0.392  2.4651 -0.8522  0.5713
 7218SOL     OW23094   2.786   2.613   0.483 -0.3326 -0.6581 -0.2250
 7218SOL    HW123095   2.747   2.647   0.402  0.3777  0.9253  0.0476
 7218SOL    HW223096   2.843   2.542   0.454 -0.8750 -0.7904 -0.9897
 7219SOL     OW23097   3.764   2.038   5.516 -0.2500 -0.1467 -0.2837
 7219SOL    HW123098   3.674   2.073   5.517 -0.8508 -1.5918 -0.4984
 7219SOL    HW223099   3.789   2.034   5.608  0.4678  2.2780 -0.3048
 7220SOL     OW23100   5.783   0.920   6.649  0.2922  0.2260 -0.2187
 7220SOL    HW123101   5.848   0.987   6.632  0.2823  0.4445  0.5634
 7220SOL    HW223102   5.830   0.852   6.697 -0.1627  0.6140  0.7903
 7221SOL     OW23103   4.541   0.433  11.451 -0.0136 -0.9034  0.5429
 7221SOL    HW123104   4.501   0.368  11.508 -2.3740  0.6557  0.8142
 7221SOL    HW223105   4.487   0.431  11.372 -0.9502  1.4940  1.0390
 7222SOL     OW23106   4.105   6.832  10.383 -0.1722 -0.0241 -0.7135
 7222SOL    HW123107   4.176   6.768  10.381 -0.1118 -0.1124  1.6137
 7222SOL    HW223108   4.036   6.794  10.329  0.5902 -1.1087 -0.9476
 7223SOL     OW23109   3.532   6.383   0.253 -0.2921  0.0195  0.1073
 7223SOL    HW123110   3.604   6.382   0.316  1.8381 -0.5565 -2.1912
 7223SOL    HW223111   3.558   6.449   0.188 -1.6947 -0.4305 -0.9578
 7224SOL     OW23112   5.367   0.953   8.793  0.0461  0.1619 -0.3433
 7224SOL    HW123113   5.461   0.971   8.783  0.0921 -0.4209 -1.0169
 7224SOL    HW223114   5.324   1.024   8.746  0.0538  1.8410  2.0084
 7225SOL     OW23115   7.304   5.186   1.668 -0.1522  0.0813 -0.4357
 7225SOL    HW123116   7.383   5.240   1.678  1.1500 -1.3219 -2.3590
 7225SOL    HW223117   7.235   5.249   1.649  0.7812  1.2560 -0.1195
 7226SOL     OW23118   5.150   2.496   8.953 -0.0779  0.1640  0.0370
 7226SOL    HW123119   5.241   2.526   8.960 -0.4422  1.4418 -0.5495
 7226SOL    HW223120   5.148   2.445   8.872  0.6320 -1.8733  1.2325
 7227SOL     OW23121   7.206   3.148  11.508 -0.1917  0.3473  0.2418
 7227SOL    HW123122   7.261   3.122  11.582  1.5086  0.0926 -1.0679
 7227SOL    HW223123   7.248   3.227  11.474 -0.6553  0.1671 -0.7782
 7228SOL     OW23124   6.592   1.008   7.346 -0.1909 -0.2716  0.1160
 7228SOL    HW123125   6.519   0.976   7.398  0.1139 -0.7411  0.2660
 7228SOL    HW223126   6.588   1.103   7.354 -0.4483 -0.3206  0.5842
 7229SOL     OW23127   7.049   3.253   5.598 -0.1306  1.4303  0.1804
 7229SOL    HW123128   6.990   3.329   5.601 -2.4139 -0.1846 -1.0284
 7229SOL    HW223129   6.992   3.178   5.612  1.8032 -0.1953 -0.2681
 7230SOL     OW23130   0.405   4.364  12.112  0.4301 -0.1566  0.4400
 7230SOL    HW123131   0.393   4.442  12.057  0.8566  0.4268  1.1486
 7230SOL    HW223132   0.434   4.399  12.197  2.1092 -1.1792  0.3270
 7231SOL     OW23133   7.670   0.153   5.723  0.0776 -0.0842 -0.3192
 7231SOL    HW123134   7.585   0.195   5.739  0.5306  0.7920 -0.1615
 7231SOL    HW223135   7.722   0.176   5.800  0.9725  0.7440 -1.1427
 7232SOL     OW23136   1.939   6.541   9.428 -0.1843  0.4603  0.0440
 7232SOL    HW123137   2.034   6.535   9.421 -0.1573  0.7452  0.1837
 7232SOL    HW223138   1.916   6.476   9.495 -0.0574  0.6202  0.2443
 7233SOL     OW23139   5.868   1.135   8.135  0.6113  0.2490 -0.4816
 7233SOL    HW123140   5.818   1.166   8.060 -0.4442  1.8447  0.8114
 7233SOL    HW223141   5.899   1.214   8.178 -1.0836 -0.4497  2.2571
 7234SOL     OW23142   6.734   2.913   6.247 -0.0087 -0.7779  0.1737
 7234SOL    HW123143   6.653   2.871   6.222 -0.8094 -0.3084  1.8587
 7234SOL    HW223144   6.786   2.844   6.289  0.0968 -0.8792 -0.1259
 7235SOL     OW23145   2.638   0.179   4.899 -0.6788  0.0197 -0.2117
 7235SOL    HW123146   2.673   0.231   4.972 -1.7057 -1.1315  1.1751
 7235SOL    HW223147   2.671   0.222   4.821  0.5532  1.2646  0.9307
 7236SOL     OW23148   4.818   6.975   0.471  0.4724  0.2499 -0.5453
 7236SOL    HW123149   4.903   7.018   0.478  1.3967 -1.4739 -0.7997
 7236SOL    HW223150   4.833   6.886   0.502 -1.1012 -0.2692 -1.1625
 7237SOL     OW23151   3.653   2.922  10.453  0.1010 -0.1663  0.2555
 7237SOL    HW123152   3.642   2.980  10.529 -3.1015 -0.9494  0.5156
 7237SOL    HW223153   3.577   2.939  10.398  0.1774 -2.6199 -0.7197
 7238SOL     OW23154   0.375   5.718   8.662 -0.0949  0.1364 -0.2098
 7238SOL    HW123155   0.285   5.690   8.646 -0.1714  0.5652 -0.5378
 7238SOL    HW223156   0.424   5.687   8.586  0.1388 -0.5483  0.2112
 7239SOL     OW23157   3.855   4.003   4.160  0.8669 -0.3518 -0.2591
 7239SOL    HW123158   3.893   3.925   4.201  1.6992  0.2205  0.0892
 7239SOL    HW223159   3.930   4.061   4.145 -0.0306  1.7084  2.3790
 7240SOL     OW23160   7.813   2.391  11.753  0.0810  0.5248 -0.0145
 7240SOL    HW123161   7.754   2.416  11.825  0.0538 -1.5732  0.7396
 7240SOL    HW223162   7.828   2.473  11.705 -3.7228  1.0967 -0.4768
 7241SOL     OW23163   1.560   2.085   8.461 -0.8864  0.5160 -0.2691
 7241SOL    HW123164   1.543   2.016   8.525  0.6947  0.8037  0.5279
 7241SOL    HW223165   1.480   2.092   8.410 -1.1400 -1.8216 -0.2970
 7242SOL     OW23166   1.700   0.317   4.096  0.3513 -0.5247  0.5463
 7242SOL    HW123167   1.736   0.246   4.043  1.3891  0.2752  0.1586
 7242SOL    HW223168   1.673   0.383   4.032 -0.5271 -0.5206  0.9063
 7243SOL     OW23169   0.770   6.164   1.062 -0.1180 -0.3013 -0.0050
 7243SOL    HW123170   0.757   6.118   0.979 -0.3712 -0.6163  0.2101
 7243SOL    HW223171   0.864   6.180   1.066 -0.2583  0.9800 -1.0282
 7244SOL     OW23172   3.571   2.306  11.157  0.2078 -0.0690  0.2005
 7244SOL    HW123173   3.554   2.248  11.084 -0.4533 -0.7469  0.8693
 7244SOL    HW223174   3.513   2.380  11.143 -0.7642 -0.7350  0.6261
 7245SOL     OW23175   7.354   0.498   1.090 -0.3011  0.8070  0.2225
 7245SOL    HW123176   7.410   0.574   1.079  3.1330 -1.4895  0.2516
 7245SOL    HW223177   7.353   0.483   1.185  2.1066 -1.0972  0.0463
 7246SOL     OW23178   4.621   6.722  12.182  0.4530 -0.3172  0.3059
 7246SOL    HW123179   4.708   6.760  12.181 -0.4632  1.9710  0.8402
 7246SOL    HW223180   4.566   6.788  12.225 -1.6540 -1.4152 -0.5298
 7247SOL     OW23181   0.990   7.298   2.841  0.0685 -0.5428 -0.1677
 7247SOL    HW123182   0.942   7.355   2.901 -0.4002  1.1005 -2.0077
 7247SOL    HW223183   1.073   7.279   2.886 -0.3545  0.4425  1.0747
 7248SOL     OW23184   1.403   3.335   2.612 -0.5662 -0.4106 -0.4262
 7248SOL    HW123185   1.309   3.352   2.622 -1.1157 -3.6627  1.4751
 7248SOL    HW223186   1.431   3.304   2.698  2.5481  1.2670 -0.6830
 7249SOL     OW23187   4.215   1.990   2.695  0.1294 -0.4280 -0.1279
 7249SOL    HW123188   4.173   2.074   2.714 -0.0051 -0.4905 -0.1441
 7249SOL    HW223189   4.206   1.939   2.776 -1.0196 -0.9306 -0.5481
 7250SOL     OW23190   3.117   5.286   4.101  0.2362 -0.2814  0.0402
 7250SOL    HW123191   3.104   5.264   4.193  1.4640 -0.0984  0.2756
 7250SOL    HW223192   3.038   5.253   4.057 -1.7433  2.1498  1.5026
 7251SOL     OW23193   2.395   2.796   9.033 -0.2669 -0.0045 -0.0497
 7251SOL    HW123194   2.441   2.774   9.114  0.7629  1.0100 -0.3309
 7251SOL    HW223195   2.441   2.746   8.966  0.3934  0.9217 -0.3132
 7252SOL     OW23196   1.072   3.658   5.988 -0.2150  0.2973  0.3922
 7252SOL    HW123197   1.008   3.709   6.037 -1.8353  0.2388 -1.5306
 7252SOL    HW223198   1.029   3.574   5.972  0.3225  0.2552 -0.9336
 7253SOL     OW23199   7.578   1.796   7.119  0.1291 -0.1853 -0.0466
 7253SOL    HW123200   7.640   1.725   7.101 -1.1233 -1.6586  1.1948
 7253SOL    HW223201   7.496   1.752   7.141 -0.8436  1.6764  0.2599
 7254SOL     OW23202   0.558   7.848  11.228 -0.0456  0.3654  0.1959
 7254SOL    HW123203   0.611   7.811  11.157  0.8328  0.1860  0.9319
 7254SOL    HW223204   0.469   7.851  11.192  0.0674 -1.3612 -0.3000
 7255SOL     OW23205   1.634   3.949   6.078 -0.2410 -0.4484 -0.0188
 7255SOL    HW123206   1.717   3.995   6.066 -2.2237  3.6416 -0.1444
 7255SOL    HW223207   1.645   3.900   6.159  1.8033  1.3230  0.8841
 7256SOL     OW23208   1.178   6.316   8.376  0.1663 -0.0654 -0.4440
 7256SOL    HW123209   1.231   6.251   8.422 -2.2058  0.9879  4.4832
 7256SOL    HW223210   1.097   6.268   8.354 -0.3017  0.4058  0.2281
 7257SOL     OW23211   7.589   6.138  10.042  0.7205  0.0709  0.1110
 7257SOL    HW123212   7.647   6.076   9.999  1.5641  0.8744  0.0732
 7257SOL    HW223213   7.542   6.086  10.108  2.2116 -0.3926  0.8362
 7258SOL     OW23214   6.182   4.357  10.705 -0.5384 -0.3232  0.3579
 7258SOL    HW123215   6.099   4.331  10.745 -1.0679  0.6551 -0.0823
 7258SOL    HW223216   6.168   4.344  10.611  0.2927 -1.4707  0.3693
 7259SOL     OW23217   6.402   6.375   0.540 -0.1223 -0.0012 -0.3957
 7259SOL    HW123218   6.312   6.401   0.563 -0.2600  1.3229 -2.1653
 7259SOL    HW223219   6.401   6.279   0.545 -2.1518 -0.1448 -1.8999
 7260SOL     OW23220   0.454   0.459   2.061  0.0237  0.2745  0.2774
 7260SOL    HW123221   0.470   0.367   2.082  0.0078  0.2742  0.2888
 7260SOL    HW223222   0.516   0.507   2.115  0.5735  0.2342 -0.3151
 7261SOL     OW23223   1.321   4.109   8.665  0.0925  0.0663  0.0320
 7261SOL    HW123224   1.269   4.188   8.680  0.4359  0.2975  0.0181
 7261SOL    HW223225   1.271   4.039   8.707 -1.2353 -0.0649 -1.6687
 7262SOL     OW23226   3.592   3.509  10.496 -0.0455 -0.5675 -0.1032
 7262SOL    HW123227   3.507   3.486  10.459 -0.4680  0.6491  0.0746
 7262SOL    HW223228   3.610   3.439  10.560 -0.8765 -0.8700 -0.1846
 7263SOL     OW23229   4.559   5.141   9.412  0.3580 -0.3384 -0.2451
 7263SOL    HW123230   4.606   5.165   9.492 -0.0017 -0.6150  0.0489
 7263SOL    HW223231   4.558   5.045   9.413  0.8561 -0.3575 -0.8753
 7264SOL     OW23232   2.338   3.555   4.050 -0.0918 -0.0560 -0.3054
 7264SOL    HW123233   2.286   3.554   3.969 -1.0288 -1.3472  0.2681
 7264SOL    HW223234   2.275   3.573   4.119  0.2762 -1.1703  0.3565
 7265SOL     OW23235   6.125   6.366   3.295 -0.1075 -0.2221 -0.3670
 7265SOL    HW123236   6.098   6.295   3.354  0.8837 -0.1919  0.1564
 7265SOL    HW223237   6.043   6.407   3.268 -0.6274 -0.6939  0.4281
 7266SOL     OW23238   0.008   6.152   7.232  0.4659 -0.0515 -0.2995
 7266SOL    HW123239   0.033   6.086   7.298  1.2319  1.8751  1.4275
 7266SOL    HW223240  -0.064   6.200   7.273 -0.0379  0.2733 -1.5134
 7267SOL     OW23241   7.288   0.086   3.308 -0.7357  0.1215 -0.2346
 7267SOL    HW123242   7.252   0.021   3.248  1.1935 -0.2316 -1.0690
 7267SOL    HW223243   7.296   0.165   3.255  1.3493 -0.2991 -0.6215
 7268SOL     OW23244   5.543   5.129   1.461  0.6482  0.4994  0.5205
 7268SOL    HW123245   5.593   5.081   1.527  1.2890  1.3852  0.6986
 7268SOL    HW223246   5.539   5.219   1.494 -1.9674  0.2756  1.0321
 7269SOL     OW23247   6.197   0.196  11.698  0.2337  0.0314 -0.3244
 7269SOL    HW123248   6.179   0.165  11.609  0.2937 -0.2848 -0.2271
 7269SOL    HW223249   6.207   0.116  11.750 -1.0530  0.1955  0.2257
 7270SOL     OW23250   1.652   0.493   9.868  0.0326 -0.5232 -0.2418
 7270SOL    HW123251   1.679   0.427   9.932  0.1220 -0.4244 -0.1773
 7270SOL    HW223252   1.724   0.495   9.805  0.3471  0.0032  0.1298
 7271SOL     OW23253   0.263   5.179   1.125 -0.0159 -0.1799  0.4433
 7271SOL    HW123254   0.204   5.104   1.112 -1.4881  0.8979  0.6316
 7271SOL    HW223255   0.261   5.225   1.042 -0.5913  0.6494  0.9093
 7272SOL     OW23256   6.825   4.279   5.316  0.5107 -0.0229 -0.0290
 7272SOL    HW123257   6.777   4.263   5.397 -1.4986 -0.7041 -1.2747
 7272SOL    HW223258   6.888   4.348   5.338  0.7217 -0.8941  2.3270
 7273SOL     OW23259   1.921   0.196   2.515  0.3361  0.2033 -0.0081
 7273SOL    HW123260   1.869   0.204   2.595 -1.2562 -0.0886 -0.9641
 7273SOL    HW223261   2.008   0.228   2.539  0.0884 -0.5463  2.0109
 7274SOL     OW23262   1.761   4.646   6.372  0.0826 -0.4428 -0.5377
 7274SOL    HW123263   1.734   4.623   6.460  1.0352 -0.2100 -0.1724
 7274SOL    HW223264   1.727   4.575   6.317 -2.3118  0.4382 -0.3086
 7275SOL     OW23265   4.757   0.888   6.286 -0.4560  0.8165 -0.1228
 7275SOL    HW123266   4.780   0.826   6.217 -0.5401 -1.5312  1.8051
 7275SOL    HW223267   4.840   0.905   6.332 -0.9425 -0.4770  1.3133
 7276SOL     OW23268   7.576   2.065   8.951 -0.0527 -0.2378 -0.4629
 7276SOL    HW123269   7.525   1.985   8.961 -1.6796  0.9419  1.5877
 7276SOL    HW223270   7.645   2.059   9.016  0.6470 -0.5440 -1.2238
 7277SOL     OW23271   5.455   4.330   1.578 -0.8606 -0.0507 -0.0527
 7277SOL    HW123272   5.457   4.403   1.517 -0.6710  0.9027  1.0625
 7277SOL    HW223273   5.533   4.278   1.557 -0.7586  0.3066 -0.5601
 7278SOL     OW23274   6.292   1.540  11.297 -0.1400  0.0307  0.2512
 7278SOL    HW123275   6.205   1.516  11.264  0.0227  0.8689 -0.8467
 7278SOL    HW223276   6.351   1.522  11.224  0.2254  2.0264 -0.0037
 7279SOL     OW23277   4.004   1.101   9.986 -0.3408 -0.2163 -0.0107
 7279SOL    HW123278   4.014   1.010  10.015 -0.0474  0.1015  0.9448
 7279SOL    HW223279   4.016   1.152  10.066  0.5842  0.7182 -0.7205
 7280SOL     OW23280   1.278   5.613   2.250 -0.3356 -0.2011  0.0044
 7280SOL    HW123281   1.310   5.550   2.186 -0.7004 -1.8765  1.4008
 7280SOL    HW223282   1.289   5.698   2.208  3.1872 -0.8802 -0.7594
 7281SOL     OW23283   1.593   1.568   9.372  0.2487 -0.0596  0.1140
 7281SOL    HW123284   1.559   1.655   9.352 -0.1550 -0.3467 -0.4855
 7281SOL    HW223285   1.688   1.576   9.362  0.4055  0.8007  1.9759
 7282SOL     OW23286   5.705   1.064   5.682 -0.2516  0.7669 -0.7302
 7282SOL    HW123287   5.673   0.994   5.738 -0.1385  1.7079  0.5350
 7282SOL    HW223288   5.626   1.101   5.643 -0.2155 -1.5777 -3.3860
 7283SOL     OW23289   7.227   5.086   7.498  0.1613  0.1211 -0.1908
 7283SOL    HW123290   7.232   5.003   7.544  0.3195  1.0024  1.4335
 7283SOL    HW223291   7.257   5.066   7.409  0.3982 -1.4961  0.2244
 7284SOL     OW23292   7.446   4.713   0.641 -0.4496 -0.3432  0.2221
 7284SOL    HW123293   7.428   4.688   0.732 -1.0085 -0.8358 -0.0186
 7284SOL    HW223294   7.404   4.799   0.632  0.0124 -0.0730  0.5566
 7285SOL     OW23295   5.345   3.744   0.558  0.2116 -0.4306  0.4211
 7285SOL    HW123296   5.351   3.794   0.639  2.0397  2.8952 -1.5602
 7285SOL    HW223297   5.434   3.711   0.543 -0.1191 -1.0675 -0.2091
 7286SOL     OW23298   4.725   6.850   9.969  0.0771  0.0839  0.0539
 7286SOL    HW123299   4.802   6.835  10.023  1.1412 -1.2468 -1.7229
 7286SOL    HW223300   4.652   6.816  10.021  0.5447  1.8139  1.9721
 7287SOL     OW23301   0.249   4.037   6.631  0.4666 -0.1436  0.0382
 7287SOL    HW123302   0.219   4.113   6.583 -0.8661 -0.7883 -0.1820
 7287SOL    HW223303   0.342   4.030   6.610  0.3239  0.6962 -0.9057
 7288SOL     OW23304   1.243   4.539   8.513 -0.1902 -0.3041 -0.5047
 7288SOL    HW123305   1.266   4.567   8.602  0.0089 -0.3463 -0.5432
 7288SOL    HW223306   1.257   4.617   8.459 -0.4684 -0.2316 -0.4732
 7289SOL     OW23307   6.059   1.072   6.990  0.1855  0.0548 -0.0816
 7289SOL    HW123308   5.994   1.038   7.052  0.7435 -0.3298  0.3098
 7289SOL    HW223309   6.134   1.013   7.000  0.4357  0.2394 -0.8331
 7290SOL     OW23310   4.356   1.714   5.253 -0.4364 -0.2041  0.0406
 7290SOL    HW123311   4.267   1.702   5.287 -0.0685  1.1689  1.6669
 7290SOL    HW223312   4.413   1.684   5.324  0.3694  1.1256 -0.0003
 7291SOL     OW23313   2.454   4.200   5.971  0.3504  0.7199 -0.3996
 7291SOL    HW123314   2.370   4.240   5.991  0.1682 -0.8577  2.4970
 7291SOL    HW223315   2.479   4.153   6.050  3.0049 -0.5846 -1.8335
 7292SOL     OW23316   0.761   1.103   2.554 -0.1828  0.3760 -0.2807
 7292SOL    HW123317   0.769   1.015   2.516 -1.2634  0.1242  0.0378
 7292SOL    HW223318   0.667   1.119   2.557  0.0046  2.1294 -1.6492
 7293SOL     OW23319   6.400   7.557  10.257  0.0898 -0.2111  0.1003
 7293SOL    HW123320   6.345   7.618  10.306  1.2721  0.0758  1.1355
 7293SOL    HW223321   6.385   7.579  10.165 -0.0688  1.1457  0.4322
 7294SOL     OW23322   7.670   5.849   4.599  0.5801  0.1404 -0.8084
 7294SOL    HW123323   7.644   5.862   4.690 -0.9179  0.4639 -1.2638
 7294SOL    HW223324   7.672   5.936   4.561 -0.9195 -0.1492 -1.6205
 7295SOL     OW23325   4.306   1.078   6.407 -0.4253 -0.0260  0.0922
 7295SOL    HW123326   4.348   1.062   6.492 -0.3453 -0.7766 -0.0809
 7295SOL    HW223327   4.214   1.058   6.421 -0.0893 -2.1934 -0.5033
 7296SOL     OW23328   2.564   2.038   5.743 -0.0442 -0.0589 -0.0035
 7296SOL    HW123329   2.614   1.977   5.689  1.4617  0.9528  0.1825
 7296SOL    HW223330   2.566   1.999   5.831  0.6726  0.1019  0.0594
 7297SOL     OW23331   4.645   6.158   2.276 -0.0984  0.0582  0.1352
 7297SOL    HW123332   4.587   6.129   2.205  0.0407 -0.0804  0.0768
 7297SOL    HW223333   4.602   6.235   2.312 -1.2279 -1.0228  1.2432
 7298SOL     OW23334   1.856   4.064   1.080  0.4715  0.1099  0.2553
 7298SOL    HW123335   1.885   4.133   1.139  3.9526 -1.4383  0.5778
 7298SOL    HW223336   1.933   4.043   1.028 -0.5841 -3.1443 -0.2128
 7299SOL     OW23337   7.338   5.542  10.000 -0.1455  0.1645 -0.5772
 7299SOL    HW123338   7.378   5.505  10.079 -0.7958  0.7770  0.0543
 7299SOL    HW223339   7.245   5.518  10.006 -0.3089  0.6921 -0.8684
 7300SOL     OW23340   6.828   2.089   0.106 -0.2074 -0.3588 -0.5086
 7300SOL    HW123341   6.885   2.013   0.098 -1.2234 -1.1670 -0.2240
 7300SOL    HW223342   6.871   2.157   0.054  1.9210 -0.3920  1.0860
 7301SOL     OW23343   3.326   6.901   4.390  0.2743  0.4297  0.6040
 7301SOL    HW123344   3.414   6.869   4.367 -0.4788 -0.2899 -1.5182
 7301SOL    HW223345   3.304   6.854   4.470  0.5705 -1.8646 -0.5864
 7302SOL     OW23346   6.869   2.425  11.763 -0.3033 -0.4551 -0.4025
 7302SOL    HW123347   6.791   2.371  11.748 -0.3454 -0.2705 -0.8656
 7302SOL    HW223348   6.941   2.363  11.766 -0.6161 -0.8014  1.5283
 7303SOL     OW23349   2.811   5.409  11.080 -0.5691  0.0490  0.1688
 7303SOL    HW123350   2.750   5.361  11.136  0.8144  1.3272  2.9543
 7303SOL    HW223351   2.784   5.500  11.088  0.3509  0.3764 -0.3610
 7304SOL     OW23352   0.688   5.065   8.943 -0.3943  0.0589  0.0933
 7304SOL    HW123353   0.755   5.087   9.008  0.9109 -0.0011 -1.1758
 7304SOL    HW223354   0.626   5.137   8.948 -1.1240 -0.6564  2.3874
 7305SOL     OW23355   0.759   2.445   6.380 -0.6284  0.2049  0.2393
 7305SOL    HW123356   0.700   2.466   6.453 -0.5565  1.5549 -0.0690
 7305SOL    HW223357   0.844   2.431   6.421 -0.6789  0.5351  0.4631
 7306SOL     OW23358   0.165   5.344  11.756 -0.1146  0.3710 -0.4263
 7306SOL    HW123359   0.151   5.428  11.711 -1.0511 -0.2664 -1.3912
 7306SOL    HW223360   0.231   5.299  11.703  0.0525  0.3157 -0.1719
 7307SOL     OW23361   4.537   0.938   3.758 -0.1522 -0.2750  0.0262
 7307SOL    HW123362   4.545   0.868   3.694  2.2264  0.1978 -0.3023
 7307SOL    HW223363   4.479   0.903   3.825  0.2271 -2.2018 -0.5813
 7308SOL     OW23364   0.997   0.978   4.317  0.1488 -0.5532  0.0866
 7308SOL    HW123365   0.943   1.006   4.244 -0.4588 -3.3476 -0.6317
 7308SOL    HW223366   0.938   0.976   4.392 -0.2368 -1.5031 -0.2311
 7309SOL     OW23367   0.895   5.887  12.403 -0.3289  0.6244 -0.0795
 7309SOL    HW123368   0.871   5.836  12.325 -1.5786  0.4108  0.4179
 7309SOL    HW223369   0.955   5.954  12.370 -0.9067  0.6021 -1.2399
 7310SOL     OW23370   6.172   0.545  10.107 -0.0752  0.0278  0.8836
 7310SOL    HW123371   6.134   0.574  10.190  0.3852  1.5756  0.5756
 7310SOL    HW223372   6.251   0.598  10.097 -0.7353  0.6923 -1.1230
 7311SOL     OW23373   6.951   0.952   2.821 -0.1789  0.0098  0.0520
 7311SOL    HW123374   6.886   0.949   2.751 -1.4799 -0.6468  1.2439
 7311SOL    HW223375   7.007   1.027   2.799 -2.9088  2.2946  0.3185
 7312SOL     OW23376   6.859   4.525   2.528 -0.7884 -0.4113  0.4231
 7312SOL    HW123377   6.896   4.521   2.440 -0.7190 -1.0318  0.4801
 7312SOL    HW223378   6.770   4.489   2.519 -0.6602 -0.8003  0.6681
 7313SOL     OW23379   3.723   6.536   2.827  0.1989 -0.1324 -0.0955
 7313SOL    HW123380   3.806   6.517   2.872  0.3759  2.1649  0.6656
 7313SOL    HW223381   3.656   6.503   2.886  0.5253 -2.0389 -0.7273
 7314SOL     OW23382   2.361   2.445   4.078 -0.2231  0.4736  0.6161
 7314SOL    HW123383   2.420   2.446   4.003  0.8595 -0.7726  1.4163
 7314SOL    HW223384   2.415   2.473   4.152 -1.0444  0.8040  1.1056
 7315SOL     OW23385   5.461   2.710  10.309  0.0634  0.2770 -0.3311
 7315SOL    HW123386   5.544   2.756  10.323 -0.1440  0.2452  1.1913
 7315SOL    HW223387   5.404   2.776  10.271  0.6810  0.3897 -1.0923
 7316SOL     OW23388   4.738   0.473   3.457 -0.1816  0.0429  0.0037
 7316SOL    HW123389   4.712   0.395   3.407 -0.5931 -0.0658  0.3796
 7316SOL    HW223390   4.723   0.546   3.397 -4.3019  0.3563  1.0713
 7317SOL     OW23391   5.454   7.160   9.203 -0.3575 -0.1744  0.3254
 7317SOL    HW123392   5.463   7.096   9.273 -1.5490  0.4164  1.0384
 7317SOL    HW223393   5.539   7.159   9.159  0.9397  0.5248  2.6866
 7318SOL     OW23394   4.139   2.304   1.634  0.2811 -0.0750 -0.1731
 7318SOL    HW123395   4.067   2.327   1.693  1.1362  0.7794  0.5732
 7318SOL    HW223396   4.150   2.382   1.579 -0.7915 -1.0162 -1.8100
 7319SOL     OW23397   7.362   1.319  11.751 -0.8199  0.8765 -0.2261
 7319SOL    HW123398   7.346   1.260  11.677 -0.6923 -0.5005  0.8122
 7319SOL    HW223399   7.437   1.371  11.723  0.7540 -1.2446 -0.1886
 7320SOL     OW23400   6.060   5.383   8.220 -0.1905 -0.0846  0.1248
 7320SOL    HW123401   6.082   5.366   8.312  0.6533 -0.0423 -0.0548
 7320SOL    HW223402   6.140   5.422   8.184  0.5415 -2.7251 -1.3414
 7321SOL     OW23403   7.267   7.753   3.205  0.7196 -0.5910 -0.3175
 7321SOL    HW123404   7.295   7.681   3.261  2.0496  0.2684  0.1858
 7321SOL    HW223405   7.346   7.805   3.192 -0.5132  1.7067  0.7653
 7322SOL     OW23406   4.258   6.201  12.226  0.0694 -0.4058 -0.3747
 7322SOL    HW123407   4.273   6.291  12.199  0.5043 -0.0163  1.0657
 7322SOL    HW223408   4.191   6.168  12.166  0.1661  0.7551 -1.1405
 7323SOL     OW23409   1.316   2.131   0.347 -0.4445 -0.4317 -0.1613
 7323SOL    HW123410   1.232   2.123   0.302 -0.0706  0.1417 -0.9845
 7323SOL    HW223411   1.368   2.059   0.312 -0.6426 -0.9022  0.4888
 7324SOL     OW23412   3.215   5.936   3.475  0.3903 -0.1728  0.1986
 7324SOL    HW123413   3.212   6.028   3.501 -1.6343 -0.0675 -0.2568
 7324SOL    HW223414   3.217   5.937   3.380 -1.1927 -0.5846  0.1402
 7325SOL     OW23415   1.810   4.483   6.831 -0.4659 -0.0366  0.0929
 7325SOL    HW123416   1.879   4.445   6.776 -0.6424 -0.8913  0.4401
 7325SOL    HW223417   1.835   4.459   6.920 -0.9312  0.1101  0.2626
 7326SOL     OW23418   1.620   0.650   1.851 -0.6630 -0.5822  0.7523
 7326SOL    HW123419   1.602   0.561   1.881  0.9176 -0.6851  1.4964
 7326SOL    HW223420   1.671   0.639   1.771  0.4170 -0.3905  1.3896
 7327SOL     OW23421   3.492   5.778  10.417 -0.3039 -0.0169 -0.1596
 7327SOL    HW123422   3.578   5.737  10.428 -0.1028  0.2671 -0.6720
 7327SOL    HW223423   3.460   5.791  10.507 -0.8128 -2.1811  0.0293
 7328SOL     OW23424   5.549   4.148   6.312  0.2095  0.5640 -0.1319
 7328SOL    HW123425   5.527   4.153   6.219 -0.7152 -0.6474 -0.0125
 7328SOL    HW223426   5.644   4.139   6.314  0.1335 -0.7070 -1.0521
 7329SOL     OW23427   0.732   0.403   1.813  0.5613  0.1774 -0.0137
 7329SOL    HW123428   0.776   0.420   1.730 -0.5788  1.9065 -0.3043
 7329SOL    HW223429   0.647   0.367   1.789  0.1041  0.9793  0.3832
 7330SOL     OW23430   7.610   3.189  12.094  0.1945  0.1468  0.3573
 7330SOL    HW123431   7.614   3.249  12.168  0.8862  0.6544 -0.0758
 7330SOL    HW223432   7.547   3.122  12.120  1.0106 -0.1383  1.7388
 7331SOL     OW23433   2.045   0.034   7.624 -0.1428  0.1077 -0.5623
 7331SOL    HW123434   2.139   0.050   7.619 -0.0048 -0.8239 -1.3125
 7331SOL    HW223435   2.035  -0.058   7.598 -1.2100  0.0453  0.0133
 7332SOL     OW23436   5.897   5.818   1.134  0.4256  0.0097  0.1884
 7332SOL    HW123437   5.955   5.866   1.076  0.4119  0.9897  0.9498
 7332SOL    HW223438   5.866   5.745   1.082  1.3131  0.2100 -0.6520
 7333SOL     OW23439   0.859   4.250   2.349  0.4795 -1.1309 -1.0939
 7333SOL    HW123440   0.948   4.278   2.369  0.4023 -1.5835 -0.0299
 7333SOL    HW223441   0.850   4.263   2.255  0.5456  2.0797 -0.7679
 7334SOL     OW23442   0.980   6.203  11.434  0.1114  0.1853 -0.4111
 7334SOL    HW123443   1.046   6.136  11.451 -0.4328 -0.3166 -0.2271
 7334SOL    HW223444   0.950   6.185  11.345 -1.3118 -0.9641  0.2604
 7335SOL     OW23445   6.040   5.807   8.517  0.7786 -0.1110  0.7891
 7335SOL    HW123446   6.131   5.801   8.491  0.6169 -1.3817  0.4609
 7335SOL    HW223447   6.042   5.811   8.613  1.1166 -2.7335  0.9622
 7336SOL     OW23448   4.241   5.914   2.896  0.0960  0.0171  0.6002
 7336SOL    HW123449   4.217   5.978   2.963  1.8293 -0.5406  1.8259
 7336SOL    HW223450   4.336   5.920   2.890  0.0135 -0.1367 -1.6726
 7337SOL     OW23451   0.994   6.598   7.586 -0.1140 -0.2997  0.3010
 7337SOL    HW123452   0.901   6.606   7.564  0.5293 -0.5995 -3.2293
 7337SOL    HW223453   1.028   6.533   7.524  2.3840 -0.4710  1.7106
 7338SOL     OW23454   0.374   5.619  10.944 -0.0651  0.1089 -0.1508
 7338SOL    HW123455   0.446   5.634  10.882  0.5445 -1.0480  0.2353
 7338SOL    HW223456   0.368   5.523  10.950 -1.4363  0.1967  0.0732
 7339SOL     OW23457   2.121   3.966   3.837  0.2094 -0.1418 -0.1160
 7339SOL    HW123458   2.207   3.928   3.822  0.4076  0.3388 -0.1923
 7339SOL    HW223459   2.137   4.059   3.854 -0.2290 -0.1781  0.5585
 7340SOL     OW23460   2.419   1.204   8.603 -0.4618 -0.1021 -0.0856
 7340SOL    HW123461   2.416   1.187   8.697  0.4868 -0.1612 -0.0515
 7340SOL    HW223462   2.471   1.284   8.594 -1.1308  0.2914 -0.5232
 7341SOL     OW23463   7.431   0.939   6.886  0.9144  0.4125 -0.5274
 7341SOL    HW123464   7.472   0.894   6.959  2.6144  1.4140 -0.8218
 7341SOL    HW223465   7.412   0.870   6.822 -0.9361 -0.5349  0.9271
 7342SOL     OW23466   2.793   4.259   3.251  0.6861  0.6708  0.1221
 7342SOL    HW123467   2.743   4.311   3.315 -0.4890  0.4115 -0.5545
 7342SOL    HW223468   2.761   4.290   3.166  0.2339 -0.8735 -0.3017
 7343SOL     OW23469   7.472   4.893   5.181 -0.2331  0.2116 -0.5522
 7343SOL    HW123470   7.398   4.910   5.123  0.4331  0.0383 -1.4593
 7343SOL    HW223471   7.540   4.856   5.125  0.2343 -0.4741  0.4316
 7344SOL     OW23472   1.501   7.581   0.624 -0.5959  0.4469  0.5716
 7344SOL    HW123473   1.508   7.619   0.536 -0.1248  2.6830  1.4874
 7344SOL    HW223474   1.565   7.631   0.676  0.6679 -2.2271  1.7636
 7345SOL     OW23475   0.664   4.044   7.951  0.3022 -0.0143 -0.0622
 7345SOL    HW123476   0.733   3.982   7.926 -0.8512 -1.1160 -0.6664
 7345SOL    HW223477   0.666   4.046   8.046  0.6339 -0.6927 -0.0487
 7346SOL     OW23478   7.343   3.774   1.422  0.1096 -0.1394 -0.5702
 7346SOL    HW123479   7.359   3.680   1.433  1.4486 -0.0813 -1.7747
 7346SOL    HW223480   7.402   3.815   1.485 -1.6855 -0.0819  1.1939
 7347SOL     OW23481   1.945   2.291   4.667 -0.6091 -0.0722  0.2021
 7347SOL    HW123482   2.019   2.346   4.692  0.5237 -0.9611 -1.0503
 7347SOL    HW223483   1.980   2.202   4.665 -2.1588 -0.7558  1.2228
 7348SOL     OW23484   3.424   6.953   1.994 -0.3960  0.6017  0.2507
 7348SOL    HW123485   3.361   7.002   1.942  0.0433 -0.0160 -0.9079
 7348SOL    HW223486   3.373   6.916   2.066 -1.1762  0.8466 -0.1676
 7349SOL     OW23487   5.057   2.621   2.332  0.3547  0.3202 -0.1093
 7349SOL    HW123488   5.094   2.546   2.286  0.8174  0.9244 -0.7373
 7349SOL    HW223489   4.962   2.611   2.320  0.4765  0.6224 -1.4579
 7350SOL     OW23490   2.882   2.105   1.119  0.5006  0.1689  0.4009
 7350SOL    HW123491   2.941   2.180   1.109  1.9554 -0.8978  0.5378
 7350SOL    HW223492   2.939   2.029   1.107 -0.7228 -0.9293  1.3221
 7351SOL     OW23493   1.123   1.215  10.240  0.0497  0.2734  0.2244
 7351SOL    HW123494   1.056   1.164  10.194  1.5310  1.1660 -3.2592
 7351SOL    HW223495   1.204   1.168  10.224  0.7019  0.7992  1.7979
 7352SOL     OW23496   4.916   5.751   0.578 -0.0501  0.3044  0.2627
 7352SOL    HW123497   4.917   5.660   0.548 -1.1517  0.1330  0.6842
 7352SOL    HW223498   4.930   5.802   0.498  1.2626 -0.2298  0.1228
 7353SOL     OW23499   0.003   0.315   4.100 -0.2986  0.0665 -0.0486
 7353SOL    HW123500  -0.017   0.245   4.038  0.0037  0.9686 -1.1895
 7353SOL    HW223501  -0.039   0.287   4.182 -0.9827 -0.9861 -0.7349
 7354SOL     OW23502   7.006   3.916  10.075 -0.5695 -0.6431 -0.3593
 7354SOL    HW123503   7.087   3.916  10.126  0.3594  1.2403 -1.7051
 7354SOL    HW223504   6.937   3.901  10.139  0.6631  0.2282  1.2298
 7355SOL     OW23505   0.523   3.713  10.128  0.0626  1.0325  0.0225
 7355SOL    HW123506   0.509   3.696  10.221 -0.0758 -1.3834 -0.3705
 7355SOL    HW223507   0.617   3.697  10.115 -0.1772 -0.0882 -0.4760
 7356SOL     OW23508   7.253   6.161   5.118 -0.0955  0.0631 -0.0763
 7356SOL    HW123509   7.321   6.221   5.149 -0.2559 -0.3089  1.0308
 7356SOL    HW223510   7.296   6.110   5.050  0.6123  0.1267  0.3114
 7357SOL     OW23511   7.193   4.779   5.648 -0.2667  0.8331  0.0285
 7357SOL    HW123512   7.270   4.817   5.606 -0.3711  0.3712 -0.5995
 7357SOL    HW223513   7.119   4.813   5.597 -0.3634 -0.1673 -0.5207
 7358SOL     OW23514   7.461   1.566   8.988 -0.1821  0.0703 -0.3426
 7358SOL    HW123515   7.375   1.532   9.013 -0.1262  0.0937 -0.1114
 7358SOL    HW223516   7.444   1.657   8.961 -0.3205 -0.1136 -0.8928
 7359SOL     OW23517   0.012   5.278   4.657 -0.1071  0.7098 -0.2142
 7359SOL    HW123518  -0.063   5.237   4.615  0.1770 -2.1262  1.7387
 7359SOL    HW223519  -0.023   5.314   4.739  0.6193 -1.1493  0.9988
 7360SOL     OW23520   3.904   4.115  11.872  0.4558  0.2407 -0.7989
 7360SOL    HW123521   3.992   4.124  11.908 -0.7546 -1.3906  3.0511
 7360SOL    HW223522   3.872   4.032  11.906 -3.8109  2.3433  1.1302
 7361SOL     OW23523   0.592   3.671   7.634  0.5100 -0.0890  0.0570
 7361SOL    HW123524   0.504   3.632   7.636  0.4555 -0.0716 -1.0882
 7361SOL    HW223525   0.577   3.763   7.657  0.2867 -0.1917  0.3251
 7362SOL     OW23526   2.147   5.192  12.298  0.0175  0.1997 -0.3877
 7362SOL    HW123527   2.083   5.130  12.264  0.2314 -0.3311  0.1354
 7362SOL    HW223528   2.160   5.256  12.228 -2.1968  1.2038  0.0448
 7363SOL     OW23529   4.945   0.837  11.098 -0.2817  0.2568  0.2760
 7363SOL    HW123530   4.921   0.855  11.189  2.1493  0.8123  0.8875
 7363SOL    HW223531   4.866   0.799  11.059 -1.0840 -0.9768  2.8885
 7364SOL     OW23532   6.044   4.724  11.074 -0.1230  0.2859 -0.2500
 7364SOL    HW123533   6.064   4.795  11.013  0.4201 -0.2677 -0.7295
 7364SOL    HW223534   6.129   4.699  11.111  0.2961 -2.4116 -2.6706
 7365SOL     OW23535   6.199   6.701   7.012 -0.5893  0.5559 -0.2565
 7365SOL    HW123536   6.207   6.750   6.930 -1.2849  0.7660 -0.2113
 7365SOL    HW223537   6.121   6.738   7.054  0.6645  1.5509  1.2761
 7366SOL     OW23538   1.608   7.273   3.237  0.3707  0.2076 -0.0400
 7366SOL    HW123539   1.549   7.347   3.251  0.1692 -0.2596  1.8513
 7366SOL    HW223540   1.688   7.313   3.203 -0.0102  1.2057  0.1924
 7367SOL     OW23541   1.211   0.050  10.880 -0.0037  0.2503 -0.5237
 7367SOL    HW123542   1.247  -0.031  10.918  1.4416  0.9334 -0.3449
 7367SOL    HW223543   1.248   0.120  10.934  1.5542  1.2276 -2.7005
 7368SOL     OW23544   4.866   5.263   3.030  0.0035  0.3116 -0.1391
 7368SOL    HW123545   4.893   5.198   3.095  0.0556 -0.4396 -0.8954
 7368SOL    HW223546   4.778   5.288   3.058  0.2292  0.3973  0.5219
 7369SOL     OW23547   1.752   5.198   0.244 -0.1776  0.3037  0.5426
 7369SOL    HW123548   1.816   5.145   0.195 -0.9716 -0.0443 -0.1468
 7369SOL    HW223549   1.762   5.286   0.209 -1.6141 -0.1722 -1.2354
 7370SOL     OW23550   7.353   4.451   6.182  0.3229  0.6874  0.7026
 7370SOL    HW123551   7.329   4.387   6.115  1.4239  1.5202 -0.5338
 7370SOL    HW223552   7.363   4.533   6.134 -0.5490  1.6896  2.1782
 7371SOL     OW23553   6.794   4.315   6.868  0.1470 -0.2851 -0.2321
 7371SOL    HW123554   6.732   4.249   6.837 -1.0666  1.0907 -0.9069
 7371SOL    HW223555   6.876   4.292   6.826 -0.1435 -1.5688 -0.1440
 7372SOL     OW23556   1.303   3.781   2.862 -0.1756 -0.1856  0.9317
 7372SOL    HW123557   1.262   3.814   2.942 -0.1856 -1.2094  1.3637
 7372SOL    HW223558   1.397   3.784   2.880 -0.1391  0.4428  0.6348
 7373SOL     OW23559   0.220   7.083   0.275  0.2791 -0.0766  0.1433
 7373SOL    HW123560   0.173   7.003   0.250  1.0562 -1.4676  2.7798
 7373SOL    HW223561   0.220   7.082   0.371  1.3399  2.5132  0.2557
 7374SOL     OW23562   7.132   3.292   1.794  0.2434 -0.7054  0.3633
 7374SOL    HW123563   7.053   3.313   1.844  1.4615  1.9227  1.3435
 7374SOL    HW223564   7.116   3.203   1.760 -2.4533 -0.8549  1.7680
 7375SOL     OW23565   4.376   0.228   2.528 -0.2858 -0.1449  0.2376
 7375SOL    HW123566   4.395   0.252   2.619  1.4090 -1.2604  0.2160
 7375SOL    HW223567   4.388   0.309   2.479 -0.7192  0.3528  0.9301
 7376SOL     OW23568   1.960   4.326  11.359 -0.1061 -0.0652  0.3320
 7376SOL    HW123569   1.972   4.357  11.449  0.1546 -0.3094  0.3796
 7376SOL    HW223570   2.043   4.346  11.316  0.4953 -1.7304  0.6588
 7377SOL     OW23571   7.348   7.407   7.048 -0.0947  0.2821 -0.6942
 7377SOL    HW123572   7.312   7.479   6.997  1.3336 -0.2617 -2.5875
 7377SOL    HW223573   7.441   7.427   7.056 -0.0818 -0.2068  0.8066
 7378SOL     OW23574   7.015   3.056   3.770  0.5806 -0.4608 -0.7995
 7378SOL    HW123575   7.003   2.975   3.720 -0.1507  0.6725 -2.5658
 7378SOL    HW223576   7.101   3.047   3.811  1.2526 -1.4315 -2.3608
 7379SOL     OW23577   6.042   2.695   9.460 -0.3239 -0.0304 -0.5311
 7379SOL    HW123578   5.986   2.772   9.447  0.6492  0.9049  0.6341
 7379SOL    HW223579   6.019   2.663   9.547 -0.3227 -0.7328 -0.7833
 7380SOL     OW23580   5.192   3.228   8.282  0.2977 -0.2629 -0.2077
 7380SOL    HW123581   5.243   3.205   8.204  1.4551  0.7986  0.2055
 7380SOL    HW223582   5.197   3.150   8.337  1.5704 -0.1547 -0.1426
 7381SOL     OW23583   0.123   2.772   5.389  0.4525  0.0798  0.4958
 7381SOL    HW123584   0.112   2.863   5.363  1.0474  0.1624  0.5247
 7381SOL    HW223585   0.218   2.760   5.396  0.3763 -0.5192  0.5642
 7382SOL     OW23586   4.236   0.659   6.380  0.0790  0.5628 -0.3942
 7382SOL    HW123587   4.290   0.715   6.436  0.5136  0.0006 -0.2509
 7382SOL    HW223588   4.156   0.645   6.431  0.5832 -0.1752  0.2266
 7383SOL     OW23589   6.925   4.608   0.997 -0.4272  0.2915  0.0195
 7383SOL    HW123590   6.844   4.573   0.960 -0.0146 -1.0658  0.3513
 7383SOL    HW223591   6.974   4.640   0.922 -1.1995  1.0085 -0.1985
 7384SOL     OW23592   6.170   0.719   0.741 -0.1698  0.2691 -0.1006
 7384SOL    HW123593   6.228   0.645   0.721 -0.4068  0.0553 -0.0108
 7384SOL    HW223594   6.189   0.783   0.673  1.7633  1.1328  1.1658
 7385SOL     OW23595   3.333   0.681   3.353  0.1356  0.3530 -0.4102
 7385SOL    HW123596   3.299   0.647   3.435 -0.4456 -1.0123 -1.1965
 7385SOL    HW223597   3.329   0.608   3.292  1.1555  1.1562 -1.4986
 7386SOL     OW23598   6.334   0.192   4.242  0.1684  0.9908 -0.1117
 7386SOL    HW123599   6.342   0.097   4.234 -0.4292  0.9058  0.2777
 7386SOL    HW223600   6.281   0.205   4.320 -3.3050  1.5161 -2.3253
 7387SOL     OW23601   0.832   1.880   8.003  0.2498  0.0576 -1.0029
 7387SOL    HW123602   0.850   1.787   8.015  0.9571  0.1261 -1.4933
 7387SOL    HW223603   0.744   1.883   7.965  0.2793 -0.4135 -1.1095
 7388SOL     OW23604   1.165   7.682   5.504  0.3751 -0.5579 -0.6201
 7388SOL    HW123605   1.132   7.595   5.528  2.0700 -0.6289  1.7925
 7388SOL    HW223606   1.213   7.667   5.423  0.4703 -1.8604 -0.3563
 7389SOL     OW23607   3.897   4.800   0.843 -0.3219  0.1735  0.6138
 7389SOL    HW123608   3.898   4.789   0.938 -0.8710 -0.8293  0.5198
 7389SOL    HW223609   3.804   4.805   0.821 -0.2002  0.2385  0.1124
 7390SOL     OW23610   3.068   0.418   9.861 -0.0328  0.2782 -0.3163
 7390SOL    HW123611   3.036   0.353   9.923 -0.6063 -0.6614 -1.5548
 7390SOL    HW223612   2.993   0.476   9.847  0.0964  0.4902 -0.1332
 7391SOL     OW23613   5.337   7.142   1.485 -0.0033 -0.6265 -0.4964
 7391SOL    HW123614   5.330   7.222   1.433  0.7456 -0.0133  0.3197
 7391SOL    HW223615   5.302   7.073   1.427 -1.5795  0.4088 -0.8531
 7392SOL     OW23616   0.048   1.870  12.275 -0.4420  0.2458  0.6521
 7392SOL    HW123617   0.077   1.813  12.204 -3.0439 -3.2158  2.0594
 7392SOL    HW223618   0.070   1.822  12.355 -1.7419  1.7401  1.9877
 7393SOL     OW23619   1.194   0.869   2.590 -0.2973  0.6673 -0.4740
 7393SOL    HW123620   1.266   0.840   2.535 -1.5746 -1.1632 -1.2611
 7393SOL    HW223621   1.202   0.965   2.590  1.8576  0.5477 -0.8494
 7394SOL     OW23622   4.492   0.808   2.110 -0.2517  0.5540 -0.2611
 7394SOL    HW123623   4.511   0.769   2.025  2.2957  1.3063 -0.1241
 7394SOL    HW223624   4.437   0.884   2.090  1.0318  1.2263 -1.3469
 7395SOL     OW23625   1.766   1.998  11.976  0.3815  0.5711  0.0402
 7395SOL    HW123626   1.834   1.979  11.911 -0.6563  2.6570 -1.7704
 7395SOL    HW223627   1.810   2.048  12.044  1.4119 -1.3476  0.8579
 7396SOL     OW23628   4.584   7.289   1.290 -0.0804 -0.1419 -0.4618
 7396SOL    HW123629   4.542   7.374   1.301 -1.9371 -1.0044 -0.4478
 7396SOL    HW223630   4.544   7.253   1.211  0.5350 -1.0983 -0.3511
 7397SOL     OW23631   7.105   3.399   9.600  0.7226 -0.4267  0.2791
 7397SOL    HW123632   7.030   3.369   9.550  0.2322  0.2050  0.6252
 7397SOL    HW223633   7.126   3.326   9.658 -2.4375  0.8690  3.4148
 7398SOL     OW23634   2.513   4.761   0.517 -0.1204  0.3060 -0.3040
 7398SOL    HW123635   2.455   4.756   0.441 -0.0723  1.2718 -0.4141
 7398SOL    HW223636   2.494   4.681   0.566  0.5682 -0.8414 -1.8231
 7399SOL     OW23637   6.623   4.148   8.676 -0.2416 -0.4942  0.0620
 7399SOL    HW123638   6.677   4.115   8.747  1.0559 -2.1877 -1.5794
 7399SOL    HW223639   6.540   4.100   8.684 -0.3687 -0.1629  0.7978
 7400SOL     OW23640   3.396   7.539   2.200 -0.5172 -0.3983 -0.2218
 7400SOL    HW123641   3.386   7.549   2.295  0.0575  0.1189 -0.2109
 7400SOL    HW223642   3.446   7.458   2.190  0.4091  0.1259 -0.0209
 7401SOL     OW23643   3.618   2.922   7.679 -1.0098  0.0958  0.2704
 7401SOL    HW123644   3.628   3.007   7.720  0.3493 -0.5643  1.3720
 7401SOL    HW223645   3.555   2.937   7.608 -1.7914  1.7062  1.2572
 7402SOL     OW23646   5.128   3.703   7.203 -0.2982  0.4544  0.8404
 7402SOL    HW123647   5.176   3.783   7.186 -0.8510  0.6106 -0.1269
 7402SOL    HW223648   5.049   3.731   7.250 -0.2456  0.4202  0.9470
 7403SOL     OW23649   6.253   1.000  11.785 -0.0289 -0.0184  0.4374
 7403SOL    HW123650   6.313   0.926  11.791  0.6836  0.3287 -1.5992
 7403SOL    HW223651   6.190   0.974  11.718  0.5786  1.4029 -0.7353
 7404SOL     OW23652   7.529   2.486   8.197 -0.6637  0.0588 -0.1457
 7404SOL    HW123653   7.502   2.556   8.256 -2.0364  0.1618 -0.8798
 7404SOL    HW223654   7.527   2.407   8.251  2.3726  0.6827  1.1282
 7405SOL     OW23655   4.005   6.098   7.982  0.0005 -0.1424  0.0374
 7405SOL    HW123656   4.030   6.186   8.011  0.0781 -0.1863  0.1060
 7405SOL    HW223657   3.919   6.109   7.943 -0.7472 -0.3180  1.5668
 7406SOL     OW23658   1.123   0.415   1.291 -0.2225 -0.0532  0.5154
 7406SOL    HW123659   1.067   0.342   1.264 -0.8495  0.2901  0.8546
 7406SOL    HW223660   1.201   0.407   1.237 -1.7621  1.0947 -2.0443
 7407SOL     OW23661   5.743   1.251  12.012 -0.6032 -0.0995  0.2416
 7407SOL    HW123662   5.778   1.162  12.021  0.3766  0.3084  0.6169
 7407SOL    HW223663   5.662   1.250  12.063 -1.0557 -1.0079 -0.4671
 7408SOL     OW23664   3.383   4.859   2.278  0.5683  0.2699 -0.0301
 7408SOL    HW123665   3.476   4.881   2.282  0.8163 -0.3657 -1.7103
 7408SOL    HW223666   3.380   4.774   2.235 -0.8202  0.5563 -0.5476
 7409SOL     OW23667   4.956   5.773   1.873 -0.3851 -0.1711 -0.4407
 7409SOL    HW123668   4.940   5.866   1.864  2.0556  0.2925 -0.6783
 7409SOL    HW223669   4.982   5.744   1.786  0.7634 -0.6421  0.0418
 7410SOL     OW23670   6.407   3.478   0.909 -0.2619  0.1645  0.5113
 7410SOL    HW123671   6.473   3.466   0.841  0.5525  0.1644  1.2811
 7410SOL    HW223672   6.452   3.527   0.978 -1.0305  0.0505  1.1084
 7411SOL     OW23673   5.579   3.546   6.452 -0.3367  0.2005  0.3323
 7411SOL    HW123674   5.609   3.615   6.511  0.2016  1.3820 -1.2479
 7411SOL    HW223675   5.512   3.588   6.398  0.2988 -0.3608 -0.9434
 7412SOL     OW23676   3.796   1.364   7.799 -0.2672  0.0218  0.7946
 7412SOL    HW123677   3.737   1.439   7.799 -0.0567  0.1886  0.5816
 7412SOL    HW223678   3.861   1.385   7.732  0.4564  0.1856  1.5256
 7413SOL     OW23679   2.262   2.866  12.063 -0.4421 -0.4063  0.3317
 7413SOL    HW123680   2.182   2.918  12.053 -1.4853 -1.9246  0.3494
 7413SOL    HW223681   2.277   2.827  11.977  0.1541 -0.3155  0.3891
 7414SOL     OW23682   1.091   3.463   0.098 -0.1343 -0.2423  0.1306
 7414SOL    HW123683   1.187   3.469   0.100 -0.0784  1.6233 -2.6257
 7414SOL    HW223684   1.063   3.528   0.162  0.5328  1.2681 -1.0277
 7415SOL     OW23685   5.994   2.888   6.163 -0.4593  0.0249  0.0689
 7415SOL    HW123686   6.001   2.977   6.196  2.0560 -0.1261  0.1517
 7415SOL    HW223687   5.901   2.877   6.141 -0.7399  2.8034 -0.4278
 7416SOL     OW23688   3.242   7.497  11.026  0.2617 -0.2698 -0.5519
 7416SOL    HW123689   3.314   7.552  10.994  0.0186  0.8466  0.7301
 7416SOL    HW223690   3.165   7.555  11.025 -0.3686 -1.0874 -0.7430
 7417SOL     OW23691   0.824   4.462   3.375  0.2675 -0.5875 -0.2479
 7417SOL    HW123692   0.737   4.454   3.336  0.4887  0.7904 -1.0978
 7417SOL    HW223693   0.884   4.457   3.300  0.7360  1.4221 -0.0748
 7418SOL     OW23694   2.336   1.234   7.824  0.6517  0.5594  0.0468
 7418SOL    HW123695   2.394   1.187   7.765  1.8735  2.0118  0.0309
 7418SOL    HW223696   2.391   1.259   7.898 -0.3666  0.5417  0.8366
 7419SOL     OW23697   5.807   1.443   5.562 -0.2672 -0.3573  0.4663
 7419SOL    HW123698   5.896   1.419   5.536 -0.4496  0.2701 -0.8197
 7419SOL    HW223699   5.819   1.508   5.632  0.2985  0.2128 -0.1501
 7420SOL     OW23700   4.162   5.344   9.895 -0.2223  0.1085  0.6649
 7420SOL    HW123701   4.120   5.327   9.810  1.9580 -2.0628 -0.0985
 7420SOL    HW223702   4.230   5.409   9.875 -0.4627  0.4731  1.0204
 7421SOL     OW23703   1.194   1.507   8.701  0.8391 -0.4873 -0.4418
 7421SOL    HW123704   1.266   1.448   8.679  0.9817  0.0408 -1.4499
 7421SOL    HW223705   1.159   1.535   8.617  1.8609  2.1999 -0.0694
 7422SOL     OW23706   4.780   5.412   9.356 -0.1524  0.1383 -0.1211
 7422SOL    HW123707   4.763   5.329   9.313 -2.3211 -0.4349  1.6159
 7422SOL    HW223708   4.839   5.390   9.428 -0.0007  0.2790 -0.2012
 7423SOL     OW23709   5.266   5.587   4.457 -0.6249  0.2255 -0.3186
 7423SOL    HW123710   5.187   5.578   4.511 -0.2640  1.4651  0.4605
 7423SOL    HW223711   5.254   5.671   4.413  0.0724  0.2214 -0.5171
 7424SOL     OW23712   0.236   3.756   5.603 -0.1925 -0.0025 -0.1440
 7424SOL    HW123713   0.312   3.802   5.567 -0.0052 -0.4866 -0.3790
 7424SOL    HW223714   0.235   3.672   5.556  0.5129 -0.9794  1.5118
 7425SOL     OW23715   7.875   5.535   6.457  0.4063  0.7963  0.0012
 7425SOL    HW123716   7.791   5.565   6.422  0.2031  0.6103  0.3310
 7425SOL    HW223717   7.853   5.470   6.523  0.8172  0.6224 -0.0276
 7426SOL     OW23718   1.126   0.241   4.108 -0.1156  0.0451  0.7165
 7426SOL    HW123719   1.035   0.211   4.107  0.1951 -0.9289  0.6571
 7426SOL    HW223720   1.177   0.162   4.090  0.7006  0.7402 -0.0964
 7427SOL     OW23721   6.006   3.780   5.522 -0.1512 -0.4420 -0.0620
 7427SOL    HW123722   5.986   3.738   5.438 -2.2059 -0.7726  0.5242
 7427SOL    HW223723   5.925   3.772   5.572 -0.0904  2.6944  0.7431
 7428SOL     OW23724   6.091   6.109   3.998  0.0906 -0.0838 -0.4165
 7428SOL    HW123725   6.105   6.105   3.903 -0.1315  0.1521 -0.4580
 7428SOL    HW223726   6.176   6.132   4.034 -0.0255  0.7046 -0.6242
 7429SOL     OW23727   4.180   6.990   9.570 -0.1912  0.7920 -0.4408
 7429SOL    HW123728   4.233   6.990   9.491 -0.4597 -1.4863 -0.6901
 7429SOL    HW223729   4.172   6.897   9.594 -2.7267  1.1632  0.4739
 7430SOL     OW23730   5.271   0.578   2.299 -0.3969 -0.6150 -0.0812
 7430SOL    HW123731   5.367   0.584   2.303 -0.4643  0.2935  1.2210
 7430SOL    HW223732   5.250   0.578   2.206  0.8393  0.2195 -0.3881
 7431SOL     OW23733   5.510   5.619   3.634  0.0247  0.2784  0.1005
 7431SOL    HW123734   5.427   5.664   3.651 -0.4252 -0.1552 -0.8853
 7431SOL    HW223735   5.485   5.533   3.603  0.8640 -0.0644  0.3350
 7432SOL     OW23736   5.134   5.563   6.774  0.0566 -0.9018  0.3545
 7432SOL    HW123737   5.103   5.650   6.799 -0.2950 -0.3728 -1.7170
 7432SOL    HW223738   5.121   5.509   6.852 -0.3405  0.7333  1.4721
 7433SOL     OW23739   7.062   3.756   8.360  0.5104  0.8750  0.2553
 7433SOL    HW123740   7.085   3.668   8.390  0.1241  0.2891 -1.0653
 7433SOL    HW223741   7.076   3.812   8.436  0.7668 -0.3238  1.1255
 7434SOL     OW23742   5.188   0.480  10.221  0.5680 -0.2038  0.1082
 7434SOL    HW123743   5.253   0.413  10.201 -0.0048 -1.5850  2.4211
 7434SOL    HW223744   5.238   0.549  10.266  0.6727 -0.6791  0.7450
 7435SOL     OW23745   6.018   2.274   8.075 -0.4633 -0.3029  0.2469
 7435SOL    HW123746   6.037   2.192   8.120 -0.6099  0.0560  0.9782
 7435SOL    HW223747   6.068   2.269   7.993  1.2689 -0.1931  1.2506
 7436SOL     OW23748   6.040   3.024   9.685  0.0039  0.1256  0.3931
 7436SOL    HW123749   5.997   3.095   9.636 -0.7676  0.3820  1.4116
 7436SOL    HW223750   6.066   2.961   9.618  0.3075  1.1594 -0.4918
 7437SOL     OW23751   5.255   1.554   2.566  0.0264 -0.2233  0.0295
 7437SOL    HW123752   5.304   1.546   2.485 -1.5116  0.6189 -1.0492
 7437SOL    HW223753   5.223   1.645   2.566  0.3582 -0.0644  1.8024
 7438SOL     OW23754   2.360   2.232   1.901  0.4052 -0.4952  0.1320
 7438SOL    HW123755   2.390   2.261   1.987 -1.0215 -1.7062  1.0819
 7438SOL    HW223756   2.341   2.313   1.854  2.5209  0.2292  0.4112
 7439SOL     OW23757   6.486   6.452   0.295 -0.5070 -0.3708  0.6964
 7439SOL    HW123758   6.471   6.429   0.386  1.8475  0.0402  1.2360
 7439SOL    HW223759   6.452   6.377   0.245  1.1064 -2.1082  2.0897
 7440SOL     OW23760   4.707   6.189  10.134 -0.0098 -0.4661  0.1484
 7440SOL    HW123761   4.698   6.153  10.222  1.2892  0.8165  0.8698
 7440SOL    HW223762   4.768   6.130  10.090  0.7853 -0.1299  0.7556
 7441SOL     OW23763   7.859   3.047  10.047  0.0467 -0.2917 -0.0283
 7441SOL    HW123764   7.768   3.028  10.025 -0.0820  0.1854  0.0766
 7441SOL    HW223765   7.887   2.973  10.101  0.2606 -1.3044 -1.4853
 7442SOL     OW23766   0.581   1.192   4.768 -0.5610 -0.8709 -0.0511
 7442SOL    HW123767   0.526   1.190   4.691 -0.2936 -0.6241 -0.2507
 7442SOL    HW223768   0.538   1.254   4.827  1.0390  1.6911 -1.3957
 7443SOL     OW23769   3.095   4.814   4.000 -0.5598 -0.1708  0.1640
 7443SOL    HW123770   3.044   4.816   3.919  0.4487  0.8520 -0.4742
 7443SOL    HW223771   3.144   4.731   3.995 -0.1610  0.0926 -0.5129
 7444SOL     OW23772   7.257   0.095   1.274 -0.5612 -0.1088  0.0977
 7444SOL    HW123773   7.237   0.089   1.180  0.4366  0.4676 -0.1703
 7444SOL    HW223774   7.174   0.074   1.317 -0.9333 -0.8156 -0.9008
 7445SOL     OW23775   5.115   1.808   4.635  1.0743 -0.2726  0.2536
 7445SOL    HW123776   5.154   1.784   4.720 -0.0232  0.6760  1.0549
 7445SOL    HW223777   5.023   1.825   4.655  0.6814 -0.5293 -1.2395
 7446SOL     OW23778   7.873   2.045   0.399 -0.5287  0.0449 -0.1789
 7446SOL    HW123779   7.781   2.019   0.396 -0.2908 -0.8727  0.1541
 7446SOL    HW223780   7.903   2.017   0.486  0.1071  0.1730 -0.3491
 7447SOL     OW23781   0.446   2.397  11.067  0.2638 -0.3309 -0.0702
 7447SOL    HW123782   0.414   2.329  11.008 -0.1710  0.8031 -1.1742
 7447SOL    HW223783   0.481   2.465  11.010 -1.0360  1.2436  0.8903
 7448SOL     OW23784   6.086   4.730   7.053  0.0268 -0.0286 -0.3138
 7448SOL    HW123785   6.044   4.682   6.982  1.2021  0.3203 -1.2743
 7448SOL    HW223786   6.085   4.821   7.025  0.6577  0.0905  0.0210
 7449SOL     OW23787   7.379   7.579   6.098  0.2531 -0.4001  0.1225
 7449SOL    HW123788   7.403   7.585   6.190 -0.7746 -2.0060  0.5294
 7449SOL    HW223789   7.370   7.486   6.082 -0.9682 -0.0690 -1.2439
 7450SOL     OW23790   1.293   7.281   2.563 -0.2927 -0.1152 -1.0226
 7450SOL    HW123791   1.223   7.253   2.504 -0.7535 -1.7206  0.2271
 7450SOL    HW223792   1.332   7.199   2.594 -0.1136  0.6860  0.9582
 7451SOL     OW23793   6.285   7.430  10.853  0.2747 -0.1484 -0.2296
 7451SOL    HW123794   6.361   7.397  10.804  1.4704  0.5747  1.0566
 7451SOL    HW223795   6.323   7.481  10.924 -1.4599  0.8207  0.0496
 7452SOL     OW23796   6.583   1.552   1.650  0.2097  0.0833 -0.0069
 7452SOL    HW123797   6.513   1.563   1.586 -0.1036 -1.0085  0.1247
 7452SOL    HW223798   6.538   1.541   1.733  0.5541 -0.0287  0.1681
 7453SOL     OW23799   0.765   0.116  11.345 -0.7201 -0.2157 -0.4461
 7453SOL    HW123800   0.681   0.070  11.347 -0.3096 -0.9654  1.2720
 7453SOL    HW223801   0.743   0.204  11.314 -2.1652 -0.3514  0.1048
 7454SOL     OW23802   3.925   5.784   4.554 -0.4788  0.1035  0.1466
 7454SOL    HW123803   3.886   5.860   4.596 -1.9878 -0.3036 -0.4428
 7454SOL    HW223804   3.904   5.711   4.613 -0.4946 -0.1089 -0.1220
 7455SOL     OW23805   3.585   1.883   5.853 -0.1435  0.2584  0.4737
 7455SOL    HW123806   3.550   1.821   5.789  1.1471  0.9763 -0.9967
 7455SOL    HW223807   3.519   1.952   5.859 -0.3433  0.1073  0.0165
 7456SOL     OW23808   2.405   2.251   6.276 -0.0777  0.3175 -0.0150
 7456SOL    HW123809   2.327   2.198   6.290 -0.2322  0.1144 -1.4820
 7456SOL    HW223810   2.398   2.322   6.340 -0.5732 -0.6332  1.0226
 7457SOL     OW23811   1.861   7.060   0.365  0.5451 -0.4127 -0.5519
 7457SOL    HW123812   1.913   7.118   0.421  0.3850 -1.1197  0.3495
 7457SOL    HW223813   1.878   6.973   0.400  0.2952 -0.8481 -1.5051
 7458SOL     OW23814   1.731   4.373   0.250 -1.1474  0.7028  0.0405
 7458SOL    HW123815   1.684   4.449   0.217 -0.6557  0.8226 -0.3951
 7458SOL    HW223816   1.805   4.363   0.191 -0.0881  1.0758  1.2617
 7459SOL     OW23817   6.316   1.774   1.297 -0.4018  0.1262  0.1175
 7459SOL    HW123818   6.336   1.733   1.381 -1.7068 -0.8694 -0.0068
 7459SOL    HW223819   6.333   1.867   1.310 -0.5382 -0.0188  1.4805
 7460SOL     OW23820   1.707   0.400  10.409 -0.4116  0.2179 -0.1488
 7460SOL    HW123821   1.791   0.374  10.447  0.4231  1.0786 -1.3103
 7460SOL    HW223822   1.731   0.448  10.329 -2.0572 -1.5323 -1.8075
 7461SOL     OW23823   7.515   3.089   0.424  0.3114 -0.6260 -0.1824
 7461SOL    HW123824   7.566   3.012   0.400 -2.1684 -2.6457  0.5327
 7461SOL    HW223825   7.571   3.138   0.484  2.9268 -0.4363 -2.5473
 7462SOL     OW23826   5.106   0.380   4.938 -0.5168  0.0177 -0.3036
 7462SOL    HW123827   5.169   0.381   5.010 -1.9286  0.0733  0.9807
 7462SOL    HW223828   5.114   0.293   4.900  0.7509  0.2299 -0.5676
 7463SOL     OW23829   2.405   3.305   4.929 -0.1580  0.0289  0.3383
 7463SOL    HW123830   2.418   3.252   5.008 -1.8010  0.4046  0.9041
 7463SOL    HW223831   2.472   3.372   4.935  0.4776 -0.6284  0.8182
 7464SOL     OW23832   0.846   4.069   6.487  0.0005 -0.4136  0.6216
 7464SOL    HW123833   0.795   4.141   6.523  0.6207  0.0505  0.5921
 7464SOL    HW223834   0.888   4.029   6.563  0.2575 -0.2633  0.5614
 7465SOL     OW23835   3.609   6.809   0.824 -0.0525 -0.0758 -0.0109
 7465SOL    HW123836   3.620   6.788   0.731  0.1900  1.0140 -0.2387
 7465SOL    HW223837   3.545   6.746   0.855  0.2612 -0.7999 -0.7905
 7466SOL     OW23838   7.462   5.640   7.221 -0.2475  0.0797  0.0959
 7466SOL    HW123839   7.398   5.594   7.275  1.1739 -3.4568 -0.9616
 7466SOL    HW223840   7.436   5.732   7.226 -1.3265 -0.2105  5.1795
 7467SOL     OW23841   2.710   1.832   3.763  0.5114  0.1028  0.5430
 7467SOL    HW123842   2.790   1.779   3.762  0.0580 -0.6057 -1.2202
 7467SOL    HW223843   2.639   1.768   3.768 -0.0044  0.5953 -0.1812
 7468SOL     OW23844   0.581   2.774   7.130 -0.0104 -0.1128  0.4930
 7468SOL    HW123845   0.635   2.722   7.189 -1.4017 -0.5314  1.4527
 7468SOL    HW223846   0.588   2.730   7.045 -0.5298 -1.4361  1.1084
 7469SOL     OW23847   4.994   4.925   4.852 -0.2907 -0.3766 -0.3926
 7469SOL    HW123848   5.051   4.864   4.804  2.7094  1.8890 -0.0063
 7469SOL    HW223849   4.979   4.882   4.936 -0.7317 -1.8109 -1.1566
 7470SOL     OW23850   1.442   4.736   7.881 -0.3165  0.2058  0.1496
 7470SOL    HW123851   1.355   4.746   7.920 -1.5132 -1.2698 -1.9629
 7470SOL    HW223852   1.464   4.644   7.896 -0.1766 -0.0218 -1.3287
 7471SOL     OW23853   5.370   2.981   7.912 -0.2693  0.4023  0.1406
 7471SOL    HW123854   5.399   2.967   7.821  1.3052 -0.6495  0.7579
 7471SOL    HW223855   5.296   3.041   7.904 -0.5430 -0.1001 -1.8859
 7472SOL     OW23856   6.466   7.829  11.251 -0.2743  0.5035 -1.0293
 7472SOL    HW123857   6.477   7.735  11.262  1.2642  0.8047  0.4465
 7472SOL    HW223858   6.404   7.854  11.319 -0.0407  0.6715 -0.8761
 7473SOL     OW23859   6.482   1.535   2.731 -0.2482 -0.4772  0.0825
 7473SOL    HW123860   6.545   1.465   2.710  0.5864  0.2436  0.1335
 7473SOL    HW223861   6.536   1.611   2.751 -1.1494  0.2205 -0.0564
 7474SOL     OW23862   2.053   4.064   2.663  0.4811  0.0116  0.0545
 7474SOL    HW123863   2.086   4.153   2.654  1.3982 -0.4534 -1.6135
 7474SOL    HW223864   2.111   4.011   2.608 -1.0469 -1.3489 -0.3391
 7475SOL     OW23865   2.059   5.279   4.575  0.3031  0.0612  0.2454
 7475SOL    HW123866   1.966   5.298   4.561  0.0828 -0.8617  0.4260
 7475SOL    HW223867   2.090   5.351   4.630 -0.7072 -0.5157  1.6201
 7476SOL     OW23868   2.747   1.653  10.445  0.3144 -0.0427  0.1691
 7476SOL    HW123869   2.718   1.607  10.366  1.1562 -2.5059  1.1977
 7476SOL    HW223870   2.674   1.644  10.506  0.0641  0.9745  0.0371
 7477SOL     OW23871   3.405   4.790   1.805  0.0428 -0.3693 -0.1242
 7477SOL    HW123872   3.368   4.786   1.717 -0.2588  0.9662 -0.0683
 7477SOL    HW223873   3.410   4.883   1.826 -1.6513 -0.6680  2.0069
 7478SOL     OW23874   1.806   3.167  11.057 -0.0834  0.2438 -0.3843
 7478SOL    HW123875   1.753   3.183  11.135  0.4240  0.7249 -0.1301
 7478SOL    HW223876   1.809   3.072  11.049  0.7231  0.1427  0.7935
 7479SOL     OW23877   2.711   1.067  10.824  0.4735  0.1465  0.8355
 7479SOL    HW123878   2.702   1.087  10.731  1.1314 -2.1800  0.2136
 7479SOL    HW223879   2.771   1.134  10.858  1.1620  0.3330 -0.6901
 7480SOL     OW23880   1.465   3.989   8.432 -0.2248  0.1910 -0.0680
 7480SOL    HW123881   1.430   4.033   8.510  0.1642 -1.9523  1.4201
 7480SOL    HW223882   1.552   4.028   8.419 -0.0693  0.2075  0.9340
 7481SOL     OW23883   6.709   7.316  11.569  0.2901 -0.0562 -0.2570
 7481SOL    HW123884   6.644   7.385  11.554  0.8833  0.9423  1.4156
 7481SOL    HW223885   6.791   7.355  11.540  0.4192 -0.6500 -0.7033
 7482SOL     OW23886   4.993   2.610   1.778  0.3607  0.5026  0.0989
 7482SOL    HW123887   4.909   2.593   1.820 -2.6314  3.2970 -3.9899
 7482SOL    HW223888   4.991   2.558   1.698  1.8670  1.6980 -0.7797
 7483SOL     OW23889   5.681   6.129   6.345 -0.4732 -0.5260  0.1826
 7483SOL    HW123890   5.728   6.056   6.386  1.3416  0.9785  0.9665
 7483SOL    HW223891   5.635   6.172   6.418  1.2302  1.0462  0.4131
 7484SOL     OW23892   5.344   2.355   7.511  0.8203  0.0785 -0.1290
 7484SOL    HW123893   5.345   2.450   7.516  1.4515  0.0973 -0.4435
 7484SOL    HW223894   5.372   2.326   7.598  0.9975  0.1855 -0.1508
 7485SOL     OW23895   7.286   2.827   9.734 -0.1690 -0.2790 -0.0778
 7485SOL    HW123896   7.246   2.775   9.803 -0.5339  1.7250  1.3310
 7485SOL    HW223897   7.370   2.856   9.771 -0.5040  1.0690 -0.3304
 7486SOL     OW23898   2.720   5.564   6.848  0.2526  0.0000 -0.4836
 7486SOL    HW123899   2.771   5.484   6.832  0.7102  0.3729 -0.9118
 7486SOL    HW223900   2.682   5.586   6.763  2.2010  1.6451 -1.0019
 7487SOL     OW23901   1.918   1.610   2.064  0.2148 -0.4576 -0.1332
 7487SOL    HW123902   1.996   1.599   2.010 -1.1250 -2.8975 -1.8015
 7487SOL    HW223903   1.907   1.705   2.072  3.2249 -0.0460  0.1021
 7488SOL     OW23904   5.952   5.635  10.914 -0.5714  0.1699 -0.0460
 7488SOL    HW123905   5.982   5.723  10.937  1.3101 -0.3935 -0.1874
 7488SOL    HW223906   5.976   5.581  10.990 -0.9233 -0.3817 -0.3216
 7489SOL     OW23907   2.495   3.172   2.676  0.2485 -0.4565  0.3835
 7489SOL    HW123908   2.410   3.166   2.720 -1.2873  2.4865 -1.8067
 7489SOL    HW223909   2.476   3.151   2.585  1.7790  0.5211 -0.1896
 7490SOL     OW23910   6.535   7.101   4.954  0.1435 -1.0345 -0.6580
 7490SOL    HW123911   6.597   7.038   4.991  0.9874  0.2830  0.2476
 7490SOL    HW223912   6.449   7.071   4.983  0.1416 -3.5227 -2.8382
 7491SOL     OW23913   2.724   5.312   7.164 -0.4919  0.2697  0.6398
 7491SOL    HW123914   2.675   5.264   7.231 -2.1169  1.8491  0.6606
 7491SOL    HW223915   2.693   5.275   7.081 -0.2539 -0.0592  0.6948
 7492SOL     OW23916   0.079   4.671   5.567 -0.7398  0.1745 -0.0026
 7492SOL    HW123917   0.157   4.670   5.623  0.5971  1.2643 -1.7433
 7492SOL    HW223918   0.081   4.588   5.521  0.2396  0.7928 -1.1095
 7493SOL     OW23919   3.777   6.602   4.831  0.3817 -0.8359  0.2275
 7493SOL    HW123920   3.869   6.629   4.835  0.5332 -1.3866  0.5153
 7493SOL    HW223921   3.733   6.658   4.895  0.5055 -0.5290  0.0445
 7494SOL     OW23922   5.948   5.794   6.922  0.9032  0.3753 -0.4405
 7494SOL    HW123923   5.991   5.795   6.836 -0.3660  0.1397 -1.1025
 7494SOL    HW223924   5.985   5.718   6.966  1.7786  0.6642 -0.6651
 7495SOL     OW23925   4.829   0.473   9.969 -0.1812 -0.5226 -0.6289
 7495SOL    HW123926   4.821   0.569   9.965  0.1509 -0.4549  0.0939
 7495SOL    HW223927   4.741   0.442   9.987 -0.0343 -0.2372  0.6926
 7496SOL     OW23928   1.205   4.625   1.793  0.1544 -0.2090 -0.2617
 7496SOL    HW123929   1.127   4.576   1.819  0.4522 -0.3222  0.4423
 7496SOL    HW223930   1.225   4.592   1.705 -1.0546  0.4175 -0.7928
 7497SOL     OW23931   3.593   5.352   7.542  0.1352 -0.1544  0.0093
 7497SOL    HW123932   3.546   5.364   7.625  0.2833 -0.4574  0.1379
 7497SOL    HW223933   3.538   5.394   7.477 -0.3934 -0.6294  0.1384
 7498SOL     OW23934   1.157   3.085   5.475  0.3779 -0.0347  1.3406
 7498SOL    HW123935   1.195   3.170   5.454 -2.4949  1.1160  0.1730
 7498SOL    HW223936   1.174   3.031   5.398 -0.3391  0.4840  0.8072
 7499SOL     OW23937   4.938   2.853   5.507  0.0193 -0.5823  0.0101
 7499SOL    HW123938   4.913   2.825   5.595  1.2766  0.1247  0.6318
 7499SOL    HW223939   4.991   2.932   5.521 -2.0825  1.2314 -1.5692
 7500SOL     OW23940   4.801   0.383   8.055 -0.0470  0.1781  0.2221
 7500SOL    HW123941   4.722   0.332   8.037 -0.2940 -0.3712  2.5678
 7500SOL    HW223942   4.770   0.474   8.060  0.1499  0.4734 -2.5002
 7501SOL     OW23943   6.219   3.024  11.360  0.1897  0.3270 -0.1986
 7501SOL    HW123944   6.268   3.044  11.440 -0.6616  0.4455  0.3007
 7501SOL    HW223945   6.235   3.100  11.303 -1.0076  1.3106  0.7288
 7502SOL     OW23946   4.065   3.291   6.914 -0.5426  0.0630  0.0095
 7502SOL    HW123947   4.120   3.330   6.983  1.2571 -0.3750 -1.1076
 7502SOL    HW223948   4.073   3.197   6.927  0.7312 -0.0574 -1.4321
 7503SOL     OW23949   5.773   0.689   9.720 -0.2143  0.4628 -0.2548
 7503SOL    HW123950   5.753   0.595   9.722 -1.1851  0.5945 -1.7134
 7503SOL    HW223951   5.784   0.709   9.626 -0.8570  1.9647 -0.0380
 7504SOL     OW23952   6.995   1.577  11.318  0.1789  0.0929  0.3990
 7504SOL    HW123953   7.019   1.499  11.369  2.3302  0.5027  0.1389
 7504SOL    HW223954   6.947   1.543  11.243 -1.0122 -0.7358  1.5023
 7505SOL     OW23955   6.202   7.474   8.597  0.1101  0.2362  0.1773
 7505SOL    HW123956   6.223   7.468   8.504 -1.1623  1.3361 -0.2055
 7505SOL    HW223957   6.252   7.548   8.629  0.3245  0.0348  0.3157
 7506SOL     OW23958   3.708   4.889   8.534 -0.1519  0.2191 -0.0063
 7506SOL    HW123959   3.800   4.864   8.531 -0.5213 -2.1465  3.0384
 7506SOL    HW223960   3.666   4.835   8.467  0.2247 -1.6444  1.1735
 7507SOL     OW23961   6.646   2.613  11.087  0.1847  0.1815  0.3201
 7507SOL    HW123962   6.634   2.625  11.182 -0.2682  1.4455  0.1223
 7507SOL    HW223963   6.690   2.693  11.058 -1.3764  0.6681 -0.8278
 7508SOL     OW23964   7.510   5.658   5.806 -0.0698  0.0979  0.1497
 7508SOL    HW123965   7.456   5.711   5.748 -2.3599 -2.2635 -0.0215
 7508SOL    HW223966   7.574   5.616   5.748 -0.8306 -0.4173 -0.3263
 7509SOL     OW23967   6.244   2.661   1.896  0.5032  0.2619 -0.0613
 7509SOL    HW123968   6.333   2.664   1.931  1.0616 -0.9190 -1.2918
 7509SOL    HW223969   6.207   2.580   1.932  0.9506 -0.7622 -1.8060
 7510SOL     OW23970   5.644   7.937   5.875  0.6250 -0.1033  0.5886
 7510SOL    HW123971   5.706   7.903   5.940  3.0102  0.8462 -1.0359
 7510SOL    HW223972   5.571   7.971   5.926 -0.7040 -4.9381  2.4739
 7511SOL     OW23973   1.512   5.944   2.538 -0.0370  0.1386 -0.5729
 7511SOL    HW123974   1.438   5.889   2.514 -0.5145  0.9332 -0.9736
 7511SOL    HW223975   1.485   5.986   2.619  1.1294 -1.6947  0.8565
 7512SOL     OW23976   5.584   0.536  10.977 -0.2232  0.6041 -0.1172
 7512SOL    HW123977   5.633   0.472  11.029 -0.3198 -1.4497 -2.3506
 7512SOL    HW223978   5.496   0.536  11.016  0.3040  0.8705  1.1088
 7513SOL     OW23979   2.276   7.844   6.853  0.5119 -0.0463 -0.2302
 7513SOL    HW123980   2.218   7.770   6.835 -0.5297  0.3555  1.2259
 7513SOL    HW223981   2.273   7.898   6.774 -0.0971 -0.6823 -0.6462
 7514SOL     OW23982   0.752   5.846   5.972 -0.0435 -0.2812  0.0103
 7514SOL    HW123983   0.712   5.770   6.014  0.2271 -0.2888  0.2593
 7514SOL    HW223984   0.679   5.908   5.962 -0.6114 -1.1689 -1.6550
 7515SOL     OW23985   3.737   2.726  11.016 -0.2261  0.5029  0.1302
 7515SOL    HW123986   3.739   2.765  11.104  1.1896 -3.2979  2.0157
 7515SOL    HW223987   3.780   2.790  10.960 -0.6239  2.8095  2.2810
 7516SOL     OW23988   1.911   2.267   6.759  0.7733 -0.3562 -0.1189
 7516SOL    HW123989   1.922   2.198   6.825  2.4119  1.3075  1.4559
 7516SOL    HW223990   1.817   2.285   6.759  0.5749 -1.2569  0.8366
 7517SOL     OW23991   2.331   3.085   8.467  0.1181  0.6695  0.0602
 7517SOL    HW123992   2.399   3.055   8.407 -0.7464 -0.5901 -0.3283
 7517SOL    HW223993   2.324   3.016   8.533 -0.2032  1.1891  0.5856
 7518SOL     OW23994   0.683   4.386   8.218 -0.1437  0.2906  0.1462
 7518SOL    HW123995   0.616   4.447   8.251  0.3184  0.0043  1.6758
 7518SOL    HW223996   0.720   4.347   8.297  0.1703 -1.3484 -0.7873
 7519SOL     OW23997   1.252   0.878   1.098  0.0691  0.3994  0.4608
 7519SOL    HW123998   1.263   0.809   1.034  0.9825  1.9605 -1.1522
 7519SOL    HW223999   1.281   0.958   1.053  0.3671  1.6305  2.6685
 7520SOL     OW24000   5.731   1.481   7.113  0.1054 -0.3043 -0.3777
 7520SOL    HW124001   5.781   1.525   7.182 -1.3704 -0.1302  0.6142
 7520SOL    HW224002   5.796   1.430   7.065  1.7700  2.2304 -1.0321
 7521SOL     OW24003   3.621   1.574   7.007  0.3139 -0.1847  0.5536
 7521SOL    HW124004   3.689   1.537   6.950 -0.9746 -1.2678 -0.3268
 7521SOL    HW224005   3.624   1.520   7.086 -0.2086 -0.9088  0.0891
 7522SOL     OW24006   6.996   0.177   7.522 -0.3827  0.3735  0.1886
 7522SOL    HW124007   7.022   0.086   7.509  0.6491  0.7209 -0.2766
 7522SOL    HW224008   6.948   0.200   7.442  2.3076  1.2261 -1.3252
 7523SOL     OW24009   0.381   2.960   1.065  0.4832 -0.1210  0.1735
 7523SOL    HW124010   0.409   2.983   0.977  1.4796 -1.9929 -0.0457
 7523SOL    HW224011   0.316   2.891   1.053  0.3463 -0.1380  0.9107
 7524SOL     OW24012   2.187   1.761  10.658 -0.3121  0.9103 -0.0888
 7524SOL    HW124013   2.129   1.760  10.583  0.7610  1.4481 -0.9594
 7524SOL    HW224014   2.212   1.853  10.668 -1.0400  0.9771  1.4156
 7525SOL     OW24015   7.983   7.197   9.310  0.0828 -0.2305  0.1661
 7525SOL    HW124016   7.922   7.228   9.243  0.3133 -0.3235 -0.0852
 7525SOL    HW224017   8.012   7.277   9.354  0.4595 -0.1069 -0.2971
 7526SOL     OW24018   3.055   7.283   6.529  0.0029 -0.2284  0.4734
 7526SOL    HW124019   3.052   7.369   6.571 -0.6028 -0.0736  0.1283
 7526SOL    HW224020   3.073   7.302   6.437 -1.8774 -0.3193  0.0394
 7527SOL     OW24021   5.076   2.606   7.513  0.6323  0.5568 -0.6069
 7527SOL    HW124022   5.016   2.589   7.440  0.9590 -0.3234 -0.6817
 7527SOL    HW224023   5.136   2.673   7.479  0.8373  0.0886 -1.1899
 7528SOL     OW24024   3.787   4.579   3.077 -0.3298 -0.1719  0.7638
 7528SOL    HW124025   3.769   4.571   3.170  0.9313  0.8034  1.1164
 7528SOL    HW224026   3.798   4.488   3.047  1.2678 -0.4209  2.0019
 7529SOL     OW24027   7.866   2.967   1.542  0.0871  0.5251  0.0851
 7529SOL    HW124028   7.841   2.951   1.451  1.6539 -0.3606 -0.2248
 7529SOL    HW224029   7.847   3.060   1.555  0.1918  0.7678 -1.2878
 7530SOL     OW24030   6.259   4.460  11.439  0.0113  0.7145  0.1264
 7530SOL    HW124031   6.300   4.526  11.494 -0.4122 -0.2427  1.6701
 7530SOL    HW224032   6.207   4.509  11.376  1.6806  1.8783 -0.3815
 7531SOL     OW24033   5.890   6.542   7.508  0.3636  0.1421  0.1438
 7531SOL    HW124034   5.927   6.463   7.547  1.3781  1.4570  1.9809
 7531SOL    HW224035   5.811   6.511   7.463  2.0461 -2.2891 -1.3847
 7532SOL     OW24036   7.028   2.088   0.416 -0.1693 -0.1443  0.0889
 7532SOL    HW124037   6.942   2.099   0.375 -1.0540  0.4548  1.9816
 7532SOL    HW224038   7.036   1.994   0.433 -0.5196 -0.1813  0.0431
 7533SOL     OW24039   7.632   4.946   6.593 -0.0955  0.2710  0.3490
 7533SOL    HW124040   7.674   4.968   6.676 -2.0141 -0.5373  1.5942
 7533SOL    HW224041   7.598   4.857   6.606 -1.7623  0.7045 -0.7480
 7534SOL     OW24042   4.291   3.517   4.808  0.2632  0.3308  0.3775
 7534SOL    HW124043   4.281   3.467   4.727 -1.3841 -0.1027  0.8029
 7534SOL    HW224044   4.286   3.452   4.878  1.3919  0.7329  0.8628
 7535SOL     OW24045   7.764   2.528   5.890 -0.0565  0.0822  0.1087
 7535SOL    HW124046   7.680   2.512   5.933 -0.3478 -0.9076 -0.7817
 7535SOL    HW224047   7.791   2.615   5.921 -0.9619  0.0270  1.1057
 7536SOL     OW24048   4.584   0.796   5.274 -0.2954  0.5689 -0.3062
 7536SOL    HW124049   4.504   0.786   5.326  0.2240 -1.4483  0.2066
 7536SOL    HW224050   4.565   0.748   5.193  0.9741 -1.6495  0.6001
 7537SOL     OW24051   7.973   7.642   4.448 -0.0407  0.2242  0.0387
 7537SOL    HW124052   8.065   7.668   4.445 -0.2298  1.0135  0.7147
 7537SOL    HW224053   7.968   7.564   4.393  0.7577  1.0108 -1.1978
 7538SOL     OW24054   6.154   6.450   7.123 -0.2562 -0.0666 -0.2474
 7538SOL    HW124055   6.178   6.527   7.071 -1.9219 -0.2498 -1.3550
 7538SOL    HW224056   6.146   6.483   7.212  0.0667  0.8207 -0.5323
 7539SOL     OW24057   0.744   6.249   4.461 -0.1638  0.1149  0.4733
 7539SOL    HW124058   0.652   6.228   4.446 -0.0537  0.5648 -0.9887
 7539SOL    HW224059   0.746   6.345   4.466  0.4479  0.2597 -1.5472
 7540SOL     OW24060   1.127   1.915   4.441 -0.0091  0.4691 -0.2995
 7540SOL    HW124061   1.040   1.876   4.428  0.2808 -0.5826  0.7133
 7540SOL    HW224062   1.113   2.009   4.431 -1.5765  0.4588  1.2881
 7541SOL     OW24063   4.463   1.447   3.881 -0.0664  0.6572 -0.1133
 7541SOL    HW124064   4.419   1.417   3.961 -0.4543 -0.2436 -0.6446
 7541SOL    HW224065   4.403   1.421   3.810  1.9322 -2.0195 -0.9931
 7542SOL     OW24066   1.434   2.792   7.584  0.0271  0.0617  0.0649
 7542SOL    HW124067   1.442   2.715   7.528  3.6292  1.9328 -2.3519
 7542SOL    HW224068   1.446   2.759   7.673  0.5266 -2.2432 -0.8005
 7543SOL     OW24069   7.811   3.650  10.771 -0.0485  0.1900 -0.7695
 7543SOL    HW124070   7.885   3.640  10.830  0.5656 -1.7343 -1.7671
 7543SOL    HW224071   7.818   3.739  10.738  1.2077  0.3865 -0.0188
 7544SOL     OW24072   2.060   0.080  12.472 -0.6996  0.2831 -0.0231
 7544SOL    HW124073   2.063   0.096  12.377 -0.1238 -0.7421 -0.1986
 7544SOL    HW224074   2.001   0.005  12.481  0.3221 -0.5027  0.2830
 7545SOL     OW24075   7.312   7.316   7.955  0.2524  0.0810 -0.2872
 7545SOL    HW124076   7.342   7.345   7.869 -0.5036  0.9495 -0.2807
 7545SOL    HW224077   7.369   7.362   8.017 -1.8615  2.9077 -0.2240
 7546SOL     OW24078   4.828   6.698   7.157 -0.2219  0.0551  0.8708
 7546SOL    HW124079   4.897   6.659   7.209 -0.5716 -0.2921  1.0783
 7546SOL    HW224080   4.820   6.787   7.191 -0.1280 -0.0204  1.0893
 7547SOL     OW24081   7.896   6.709   7.318 -0.2644 -0.2119 -0.4058
 7547SOL    HW124082   7.812   6.686   7.278  0.2149  0.5878 -1.9359
 7547SOL    HW224083   7.898   6.805   7.316  0.6245 -0.2257 -0.2483
 7548SOL     OW24084   5.607   0.387   8.278 -0.2360  0.6675 -0.2175
 7548SOL    HW124085   5.662   0.427   8.345 -1.2317  1.0968  0.3797
 7548SOL    HW224086   5.638   0.297   8.272 -1.7038 -0.1779  2.7253
 7549SOL     OW24087   7.521   3.651   3.980  0.4361  0.2116 -0.0589
 7549SOL    HW124088   7.611   3.683   3.972  0.2750  0.2952 -1.9336
 7549SOL    HW224089   7.480   3.708   4.045  1.0304  1.8358 -1.0674
 7550SOL     OW24090   7.181   2.911  11.358  0.1814 -0.7351 -0.6261
 7550SOL    HW124091   7.127   2.882  11.431  0.2614 -0.3634 -0.4153
 7550SOL    HW224092   7.209   2.999  11.383  0.7681 -0.8713 -0.7977
 7551SOL     OW24093   3.737   1.744   2.571  0.2936  0.7387 -0.0339
 7551SOL    HW124094   3.756   1.677   2.504 -0.9477 -0.2048  0.5146
 7551SOL    HW224095   3.675   1.803   2.528 -0.3834  0.2208  0.2120
 7552SOL     OW24096   0.029   1.385   8.732 -0.1215  0.1501  0.6635
 7552SOL    HW124097  -0.033   1.313   8.719 -0.2865  0.6118 -1.6997
 7552SOL    HW224098   0.086   1.356   8.803 -0.3674 -2.1993 -0.0038
 7553SOL     OW24099   1.822   6.325   6.034 -0.6294  0.4622 -0.1033
 7553SOL    HW124100   1.747   6.346   5.979  0.1952 -0.1770 -1.5133
 7553SOL    HW224101   1.827   6.230   6.034  1.4358  0.4831 -1.8856
 7554SOL     OW24102   0.793   3.871   7.302  0.5015  0.2159 -0.0846
 7554SOL    HW124103   0.744   3.919   7.368  0.3772  2.3940 -1.6742
 7554SOL    HW224104   0.768   3.779   7.316 -2.7719  1.0289  0.2275
 7555SOL     OW24105   7.001   7.722   2.449  0.0714  0.1597 -0.1663
 7555SOL    HW124106   6.940   7.793   2.431 -0.9378 -0.7906 -0.5929
 7555SOL    HW224107   7.065   7.760   2.509 -0.2481  1.5134 -0.6542
 7556SOL     OW24108   4.016   7.633   5.075 -0.3515 -0.3455 -0.1513
 7556SOL    HW124109   4.003   7.673   4.989 -0.5635 -1.2084 -0.5341
 7556SOL    HW224110   3.928   7.613   5.106 -0.2686 -0.1666  0.2120
 7557SOL     OW24111   7.967   7.466   1.092  0.4383 -0.1931 -0.4647
 7557SOL    HW124112   7.881   7.506   1.081 -0.1078 -1.3605 -0.6060
 7557SOL    HW224113   8.009   7.518   1.160 -0.8152 -0.2812  0.4126
 7558SOL     OW24114   1.242   7.391   9.065 -0.2519 -0.1566  0.5215
 7558SOL    HW124115   1.288   7.442   8.999  0.1467 -0.0310  0.8876
 7558SOL    HW224116   1.265   7.300   9.045  0.3214 -0.0826  0.8163
 7559SOL     OW24117   6.307   6.755   8.563 -0.0339 -0.1257  0.6721
 7559SOL    HW124118   6.334   6.687   8.624  0.1687 -0.4837  0.1924
 7559SOL    HW224119   6.382   6.766   8.505  0.2627  1.1202  1.2723
 7560SOL     OW24120   3.546   6.176   9.373  0.2662 -0.0830  0.3725
 7560SOL    HW124121   3.506   6.100   9.331  0.1468  0.4490 -0.4907
 7560SOL    HW224122   3.481   6.204   9.438  1.3414 -2.2069  2.5183
 7561SOL     OW24123   3.346   3.819   8.334  0.0054 -0.3722  0.4703
 7561SOL    HW124124   3.290   3.894   8.315 -1.2937 -1.5670 -0.6623
 7561SOL    HW224125   3.312   3.749   8.278  1.8915 -1.4970  0.6446
 7562SOL     OW24126   6.552   4.470   1.173  0.2453  0.6358 -0.4839
 7562SOL    HW124127   6.522   4.540   1.231  0.0042  0.0695  0.0838
 7562SOL    HW224128   6.643   4.453   1.200  0.1002  0.3021 -0.1969
 7563SOL     OW24129   5.634   1.412  11.792  0.1213  0.2407  0.0749
 7563SOL    HW124130   5.645   1.335  11.736 -1.3644  0.1920 -0.1875
 7563SOL    HW224131   5.675   1.386  11.875 -0.7316 -1.0399  0.1399
 7564SOL     OW24132   3.906   3.964   4.550  0.2119  1.5045  0.7197
 7564SOL    HW124133   3.820   3.949   4.511  0.4387  2.1269 -0.0506
 7564SOL    HW224134   3.942   3.876   4.564  0.6920  1.2197 -1.8133
 7565SOL     OW24135   5.395   5.486   8.008 -0.5393  1.0349  0.1177
 7565SOL    HW124136   5.373   5.500   8.100 -1.7118 -0.9715  0.2043
 7565SOL    HW224137   5.325   5.531   7.960 -1.0617  0.4063  0.2716
 7566SOL     OW24138   2.012   4.457   7.606  0.8044  0.2835  0.0029
 7566SOL    HW124139   2.074   4.453   7.679 -1.1454 -0.4993  1.7409
 7566SOL    HW224140   1.980   4.368   7.597  0.9456  0.3887 -1.8072
 7567SOL     OW24141   6.420   2.000   2.063 -0.5824 -0.0961  0.2028
 7567SOL    HW124142   6.368   2.053   2.002  1.0158  3.3351  1.5174
 7567SOL    HW224143   6.375   2.008   2.147 -0.1897 -0.6849  0.4743
 7568SOL     OW24144   7.412   2.133   5.918  0.1040  0.1099  0.0977
 7568SOL    HW124145   7.350   2.065   5.945  1.3812 -0.4153  1.8974
 7568SOL    HW224146   7.451   2.163   6.000 -1.5764  4.2599 -0.3980
 7569SOL     OW24147   4.920   2.105  12.145 -0.0701 -0.9129  0.0979
 7569SOL    HW124148   4.890   2.187  12.185  1.0319  0.1160 -1.0903
 7569SOL    HW224149   4.840   2.062  12.118 -0.6409  1.2390 -2.0009
 7570SOL     OW24150   7.268   3.341  12.206 -0.1743 -0.2362  0.1137
 7570SOL    HW124151   7.224   3.319  12.289 -1.3414 -0.5134 -0.5589
 7570SOL    HW224152   7.355   3.370  12.233 -0.6415  0.0108  1.4682
 7571SOL     OW24153   0.827   1.374   5.032 -0.4731  0.0874  0.0193
 7571SOL    HW124154   0.865   1.391   4.946  0.7874  1.4596  0.7995
 7571SOL    HW224155   0.740   1.414   5.029 -0.5108 -0.0318 -0.6528
 7572SOL     OW24156   3.610   0.654   4.338  0.2648  0.0369  0.0852
 7572SOL    HW124157   3.646   0.735   4.301 -2.1773  0.7537 -0.9406
 7572SOL    HW224158   3.612   0.592   4.265  1.3638 -0.6074  0.6376
 7573SOL     OW24159   2.634   0.539   2.422  0.1380 -0.3984  0.2457
 7573SOL    HW124160   2.711   0.544   2.478  0.2636  0.9839 -0.0298
 7573SOL    HW224161   2.567   0.590   2.468  0.7144  2.1750 -1.5413
 7574SOL     OW24162   5.741   0.096   1.500  0.0869  0.4963  0.1903
 7574SOL    HW124163   5.834   0.090   1.481  0.7931  2.5103  2.5518
 7574SOL    HW224164   5.733   0.065   1.590 -0.8992  3.5254  1.2633
 7575SOL     OW24165   5.027   5.864   1.249  0.1524 -0.0369  0.1444
 7575SOL    HW124166   5.010   5.874   1.342  1.2514  2.7400  0.1620
 7575SOL    HW224167   5.066   5.777   1.240  0.0878 -0.3339  2.2776
 7576SOL     OW24168   3.919   3.937   3.550  0.9733  0.1091  0.1481
 7576SOL    HW124169   3.860   3.869   3.582  0.5212  0.8845  0.9975
 7576SOL    HW224170   3.861   3.999   3.505  1.3121  0.2211 -0.1361
 7577SOL     OW24171   0.483   4.768  12.060  0.0611 -0.0446  0.0981
 7577SOL    HW124172   0.401   4.721  12.075  0.7032 -1.0818  0.3994
 7577SOL    HW224173   0.523   4.776  12.147  1.8772 -2.5516 -0.3957
 7578SOL     OW24174   1.691   3.478   7.033  0.1951 -0.1133  0.1781
 7578SOL    HW124175   1.757   3.409   7.033  0.0822 -0.3085 -2.1528
 7578SOL    HW224176   1.608   3.431   7.022  0.0813  0.3356 -1.0242
 7579SOL     OW24177   6.805   6.734   2.419  0.4468 -0.6676 -0.0470
 7579SOL    HW124178   6.832   6.647   2.391  0.6945 -1.0432  1.2796
 7579SOL    HW224179   6.884   6.772   2.459 -0.5840 -1.3786  2.9520
 7580SOL     OW24180   2.989   5.620   1.085  0.0436  0.0690 -0.4500
 7580SOL    HW124181   3.071   5.576   1.110  0.4037 -0.0717 -1.8051
 7580SOL    HW224182   3.006   5.654   0.997 -0.4952  2.2605  0.2203
 7581SOL     OW24183   1.806   4.768   3.012  0.6722  0.6369 -0.0516
 7581SOL    HW124184   1.760   4.737   3.090 -0.2393  0.0083 -0.8149
 7581SOL    HW224185   1.741   4.762   2.942  1.3100  1.7067 -0.7626
 7582SOL     OW24186   3.101   1.558   0.082  0.3667 -0.3891 -0.2361
 7582SOL    HW124187   3.040   1.616   0.036  1.4811  0.5031 -0.6449
 7582SOL    HW224188   3.174   1.616   0.107  0.4112 -1.1358  1.4618
 7583SOL     OW24189   0.568   0.733   4.870 -0.5634 -0.0713  0.0496
 7583SOL    HW124190   0.534   0.647   4.848 -0.5717 -0.0110 -0.1703
 7583SOL    HW224191   0.660   0.730   4.846 -0.3399 -0.3260  0.9002
 7584SOL     OW24192   2.606   5.587   5.700  0.2483 -0.3803  0.2842
 7584SOL    HW124193   2.700   5.572   5.694  0.3492  0.2762  0.1157
 7584SOL    HW224194   2.574   5.517   5.757  0.9258 -0.2617  0.8244
 7585SOL     OW24195   2.501   0.153  10.615 -0.2678  0.2574  0.4691
 7585SOL    HW124196   2.518   0.247  10.628  2.8512 -0.0723 -0.5084
 7585SOL    HW224197   2.551   0.131  10.536 -0.7849 -2.2968  0.7962
 7586SOL     OW24198   2.885   0.250   2.688  0.2194  0.4222  0.1480
 7586SOL    HW124199   2.900   0.204   2.770 -0.3381 -1.4553 -0.7358
 7586SOL    HW224200   2.960   0.226   2.633  0.1799  0.9918 -0.1624
 7587SOL     OW24201   7.534   6.701   0.171  0.3751  0.2258  0.5757
 7587SOL    HW124202   7.598   6.672   0.106  0.7758 -0.3379  1.1980
 7587SOL    HW224203   7.449   6.694   0.126  0.7252  0.7353 -0.1737
 7588SOL     OW24204   4.654   3.249   3.314  0.1101 -0.1314 -0.0006
 7588SOL    HW124205   4.696   3.328   3.347 -0.6391  0.3674 -0.2319
 7588SOL    HW224206   4.647   3.192   3.390 -0.6689  0.6041  0.4902
 7589SOL     OW24207   4.938   6.812  10.141 -0.0497  0.3561 -0.3279
 7589SOL    HW124208   4.988   6.751  10.086  0.7928  1.3178 -0.6727
 7589SOL    HW224209   4.984   6.812  10.225 -1.3630 -1.1465  0.4276
 7590SOL     OW24210   3.771   6.772   1.754 -0.0928  0.6310  0.2344
 7590SOL    HW124211   3.815   6.687   1.741  1.8841  1.6654 -0.2489
 7590SOL    HW224212   3.764   6.809   1.667 -0.9574  0.9728  0.4436
 7591SOL     OW24213   4.845   2.507   5.593 -0.2039  0.6726 -0.1434
 7591SOL    HW124214   4.759   2.481   5.627  1.2662 -2.1945  1.8866
 7591SOL    HW224215   4.868   2.585   5.643  0.5685 -1.6912  3.7178
 7592SOL     OW24216   3.090   5.781   2.391  0.4397  0.4839 -0.4663
 7592SOL    HW124217   3.093   5.736   2.475  0.4634  1.8010  0.2586
 7592SOL    HW224218   3.119   5.870   2.410  0.2059  0.8739 -1.8241
 7593SOL     OW24219   1.997   6.140   4.527 -0.1781  0.3841 -0.2789
 7593SOL    HW124220   1.987   6.157   4.621  2.2979 -0.1456  0.1492
 7593SOL    HW224221   2.023   6.225   4.491 -0.8261  0.5137 -0.4591
 7594SOL     OW24222   3.352   2.992   3.646 -0.0133  0.3872 -0.2644
 7594SOL    HW124223   3.281   2.971   3.586 -1.3631  2.4100  0.5001
 7594SOL    HW224224   3.423   3.023   3.590 -0.6656  0.7253 -0.9171
 7595SOL     OW24225   7.106   1.974  11.984  0.5159  0.0597  0.4268
 7595SOL    HW124226   7.023   1.979  11.936  1.2904 -1.1634 -1.1551
 7595SOL    HW224227   7.156   2.049  11.952  0.0014  0.8904  1.5000
 7596SOL     OW24228   3.859   2.484   5.689 -0.2273 -0.2429  0.5340
 7596SOL    HW124229   3.886   2.558   5.742  0.5311 -0.1649  0.0442
 7596SOL    HW224230   3.773   2.460   5.724 -0.5879  0.9986  0.5535
 7597SOL     OW24231   0.418   2.039   1.241  0.0840  0.3634  0.4228
 7597SOL    HW124232   0.339   2.073   1.199  0.9325 -0.2344 -1.8018
 7597SOL    HW224233   0.489   2.087   1.199  1.0444 -0.9729  0.4638
 7598SOL     OW24234   1.377   1.440   5.231  0.6141 -0.3469 -0.1628
 7598SOL    HW124235   1.457   1.461   5.183  0.3088 -2.0347 -1.5358
 7598SOL    HW224236   1.384   1.346   5.247 -0.9055 -0.4442  0.0407
 7599SOL     OW24237   0.546   1.402  12.089 -0.1653  0.1408 -0.3959
 7599SOL    HW124238   0.586   1.477  12.133  1.5184 -1.9159  1.9320
 7599SOL    HW224239   0.452   1.417  12.094  0.0385  1.0108  2.2262
 7600SOL     OW24240   7.566   0.319   0.199 -0.1990 -0.1241  0.3136
 7600SOL    HW124241   7.620   0.384   0.153 -2.7393  1.5431 -0.5615
 7600SOL    HW224242   7.538   0.363   0.279  0.6653 -1.4140  1.3589
 7601SOL     OW24243   4.513   3.536   0.173  0.3497  0.3299  0.1307
 7601SOL    HW124244   4.506   3.488   0.091  0.9156  0.5987 -0.0820
 7601SOL    HW224245   4.477   3.476   0.239 -1.6790  0.7511 -0.5246
 7602SOL     OW24246   1.165   2.684   4.169 -0.1823 -0.3238  0.6886
 7602SOL    HW124247   1.259   2.694   4.155 -0.4325  1.3337 -0.1376
 7602SOL    HW224248   1.137   2.621   4.103  0.0181  0.9533 -0.6741
 7603SOL     OW24249   0.379   1.556   9.079  0.6150 -0.3577  0.1866
 7603SOL    HW124250   0.473   1.544   9.068  0.7179 -0.8794  1.4811
 7603SOL    HW224251   0.354   1.491   9.145 -0.5367  0.2171  0.3444
 7604SOL     OW24252   2.469   6.474   9.175  0.3353  0.6299  0.0746
 7604SOL    HW124253   2.558   6.493   9.147  0.1790 -0.1285 -0.9936
 7604SOL    HW224254   2.414   6.533   9.124  0.1842  0.6973  0.3118
 7605SOL     OW24255   7.599   0.304  10.704  0.1999  0.0485  0.3553
 7605SOL    HW124256   7.581   0.227  10.650  0.6409 -0.1820  0.5314
 7605SOL    HW224257   7.593   0.272  10.794  0.4530  0.2065  0.4280
 7606SOL     OW24258   7.337   4.110   6.474  0.2850 -0.1500  0.8815
 7606SOL    HW124259   7.277   4.183   6.457 -3.4996 -3.4501 -2.1563
 7606SOL    HW224260   7.291   4.057   6.539  0.9815 -1.6705  0.1753
 7607SOL     OW24261   6.107   1.351   9.632 -0.2872 -0.1918 -0.2191
 7607SOL    HW124262   6.073   1.437   9.654 -0.9858 -0.7128  0.8578
 7607SOL    HW224263   6.191   1.368   9.590 -1.3709  1.0821 -2.0102
 7608SOL     OW24264   6.379   2.266   0.396 -0.1075  0.0042  0.1106
 7608SOL    HW124265   6.433   2.298   0.324 -1.8000 -0.7070 -1.5719
 7608SOL    HW224266   6.436   2.208   0.446  1.0052  0.2264 -0.8769
 7609SOL     OW24267   6.274   2.068   7.526 -0.3465 -0.0540  0.3610
 7609SOL    HW124268   6.249   2.073   7.434 -0.8301  1.7531  0.5503
 7609SOL    HW224269   6.349   2.127   7.534  0.5146 -1.1867  0.8901
 7610SOL     OW24270   3.760   1.903   1.987 -0.0463  0.0432 -0.1900
 7610SOL    HW124271   3.830   1.939   1.933 -0.1498  0.8886  0.2182
 7610SOL    HW224272   3.804   1.875   2.067 -0.1463  0.3850 -0.0161
 7611SOL     OW24273   5.835   1.884   2.481 -0.3727  0.3658  0.6132
 7611SOL    HW124274   5.914   1.877   2.428  0.3601  0.3878  1.6694
 7611SOL    HW224275   5.825   1.797   2.520 -1.5082  0.0325 -0.3728
 7612SOL     OW24276   1.494   1.095   7.574  0.0026  0.1010  0.2433
 7612SOL    HW124277   1.506   1.027   7.507 -0.7490  1.6507 -1.5728
 7612SOL    HW224278   1.553   1.165   7.547 -2.5356  2.0412 -0.7276
 7613SOL     OW24279   4.434   6.192   1.844  0.0648  0.6153 -0.0194
 7613SOL    HW124280   4.390   6.244   1.777 -0.5189  0.7497  0.4607
 7613SOL    HW224281   4.499   6.141   1.796 -0.9462  0.0417 -0.8108
 7614SOL     OW24282   4.169   2.605  11.657 -0.4851  0.0176 -0.1240
 7614SOL    HW124283   4.112   2.656  11.600 -0.0435 -1.5129 -2.0448
 7614SOL    HW224284   4.256   2.614  11.619 -0.3253 -1.7652 -0.3026
 7615SOL     OW24285   3.513   0.985   4.470  0.3566  0.3539  0.0342
 7615SOL    HW124286   3.484   1.076   4.475 -1.2246 -0.1630  0.9228
 7615SOL    HW224287   3.476   0.953   4.387 -0.1733  0.1780  0.3342
 7616SOL     OW24288   6.650   4.164   1.355  0.0540  0.4961  0.4443
 7616SOL    HW124289   6.561   4.196   1.368  0.5151  2.6054 -0.9522
 7616SOL    HW224290   6.704   4.243   1.358  1.7388 -0.5936  0.1494
 7617SOL     OW24291   3.318   7.734  10.394  0.5011 -0.2258 -0.1209
 7617SOL    HW124292   3.226   7.728  10.367 -1.0142 -0.1795  4.2734
 7617SOL    HW224293   3.362   7.666  10.342 -1.9636 -0.3175 -2.3232
 7618SOL     OW24294   4.659   3.383  10.089 -0.2009 -0.4757 -0.2720
 7618SOL    HW124295   4.740   3.432  10.104  0.2064 -0.1505 -3.0317
 7618SOL    HW224296   4.686   3.291  10.091 -0.0560 -0.4207  0.3168
 7619SOL     OW24297   6.135   5.434   0.566  0.1327 -0.0384 -0.3082
 7619SOL    HW124298   6.193   5.373   0.613 -0.4085  0.3678  0.9339
 7619SOL    HW224299   6.082   5.377   0.510 -0.0058 -0.6670  0.4441
 7620SOL     OW24300   0.342   6.777   6.939 -0.0311 -0.1666  0.1493
 7620SOL    HW124301   0.360   6.779   7.033  0.2066  1.1272  0.1011
 7620SOL    HW224302   0.262   6.829   6.929 -0.9333 -1.5778 -0.2133
 7621SOL     OW24303   6.326   2.993  10.981 -0.5170  0.2634  0.1789
 7621SOL    HW124304   6.369   2.964  11.062  1.3288  1.1976 -0.4014
 7621SOL    HW224305   6.341   3.087  10.978  0.4990  0.1091 -1.7757
 7622SOL     OW24306   4.348   7.016  10.880  0.3395  0.1548  0.0744
 7622SOL    HW124307   4.384   6.929  10.899  0.9326 -0.2809 -2.6188
 7622SOL    HW224308   4.254   7.007  10.897  0.4455 -0.9326  0.1670
 7623SOL     OW24309   7.683   0.990   4.937 -0.0197 -0.1011 -0.2302
 7623SOL    HW124310   7.661   0.910   4.986  0.0234 -1.1474 -1.8344
 7623SOL    HW224311   7.775   0.979   4.912 -0.8349 -1.1640 -3.2077
 7624SOL     OW24312   6.699   7.385   8.051  0.0096  0.0756 -0.1979
 7624SOL    HW124313   6.710   7.333   7.971 -2.6527  0.0924 -0.6453
 7624SOL    HW224314   6.738   7.330   8.120 -0.1349 -1.2023 -1.0927
 7625SOL     OW24315   5.198   7.428  11.732  0.1320 -0.2730 -0.4419
 7625SOL    HW124316   5.233   7.354  11.782 -1.6224  0.0895  1.4748
 7625SOL    HW224317   5.149   7.388  11.660 -0.3314 -0.9660  0.2491
 7626SOL     OW24318   0.827   2.926   9.354 -0.5088  0.5137  0.3887
 7626SOL    HW124319   0.763   2.993   9.332 -1.0298  0.6627  2.1995
 7626SOL    HW224320   0.798   2.892   9.439  1.7483  0.5067  1.2201
 7627SOL     OW24321   7.526   7.153   5.253 -0.5203 -0.1824  0.1276
 7627SOL    HW124322   7.474   7.093   5.306 -0.0759 -1.0994 -0.4224
 7627SOL    HW224323   7.593   7.186   5.313 -0.0783 -1.1333  0.1905
 7628SOL     OW24324   3.507   2.181  10.116  0.0146  0.0417  0.4986
 7628SOL    HW124325   3.555   2.258  10.086 -0.1153  0.3986  1.1806
 7628SOL    HW224326   3.455   2.153  10.041  0.8731 -0.0218 -0.0775
 7629SOL     OW24327   6.563   4.994  10.741 -0.4112  0.0192  0.0138
 7629SOL    HW124328   6.539   4.903  10.728 -0.5586 -0.4109  2.6907
 7629SOL    HW224329   6.625   4.993  10.814  0.0579  2.0193 -0.2805
 7630SOL     OW24330   2.772   1.953  12.247  0.3582  0.6682 -0.0195
 7630SOL    HW124331   2.806   2.039  12.221  1.6361  0.7658  1.8589
 7630SOL    HW224332   2.759   1.959  12.341 -3.4981  0.1040 -0.3373
 7631SOL     OW24333   2.651   4.975   0.421  0.2436  1.0264  0.9807
 7631SOL    HW124334   2.732   4.953   0.375 -0.3003  1.0629 -0.0161
 7631SOL    HW224335   2.619   4.890   0.453 -0.8101  0.5601 -1.1390
 7632SOL     OW24336   7.363   4.914   9.993 -0.3836 -0.4192  0.1634
 7632SOL    HW124337   7.398   4.961  10.068 -0.3957 -0.3561  0.1292
 7632SOL    HW224338   7.320   4.837  10.030 -0.1380 -0.5391  0.1978
 7633SOL     OW24339   7.928   7.792   8.427  0.0932  0.3010  0.1118
 7633SOL    HW124340   7.838   7.767   8.404 -0.1858  0.0792  1.3859
 7633SOL    HW224341   7.917   7.875   8.474  0.6481  0.7241 -0.4892
 7634SOL     OW24342   0.004   7.841   6.036 -0.0164 -0.0168  0.2620
 7634SOL    HW124343  -0.032   7.845   5.947 -1.6141  2.0976  0.9120
 7634SOL    HW224344  -0.050   7.775   6.080  0.3747 -0.6205 -0.1379
 7635SOL     OW24345   0.064   0.138   2.249  0.0783 -0.2586  0.1869
 7635SOL    HW124346  -0.006   0.087   2.291 -1.3763  0.4127 -1.3325
 7635SOL    HW224347   0.129   0.072   2.224  0.1545 -0.8681  1.8196
 7636SOL     OW24348   4.893   2.853   0.299  0.1091  0.2533 -0.2707
 7636SOL    HW124349   4.982   2.847   0.334  0.7587  0.7489 -1.7891
 7636SOL    HW224350   4.838   2.818   0.370  1.6887 -2.2530 -0.1306
 7637SOL     OW24351   3.636   5.737   8.832  0.0449  0.4229  0.1098
 7637SOL    HW124352   3.611   5.825   8.862 -1.1678  0.4997 -1.0218
 7637SOL    HW224353   3.612   5.679   8.904 -1.9451  0.7031 -0.2850
 7638SOL     OW24354   1.578   7.015  12.043  0.4211 -0.0230 -0.2317
 7638SOL    HW124355   1.654   7.025  12.100  0.2683  0.4250 -0.1029
 7638SOL    HW224356   1.612   7.028  11.955  0.3870  0.8119 -0.1309
 7639SOL     OW24357   6.461   6.332   6.579  0.0992  0.1202  0.1025
 7639SOL    HW124358   6.493   6.241   6.571  0.6493  0.3909 -1.0434
 7639SOL    HW224359   6.389   6.338   6.517  0.5797  0.6803 -0.4122
 7640SOL     OW24360   0.987   2.790   4.973 -0.4139 -0.3310 -0.0282
 7640SOL    HW124361   0.944   2.861   4.925  1.2039 -0.9131 -2.5020
 7640SOL    HW224362   1.021   2.833   5.052 -2.4032  0.8547  0.2516
 7641SOL     OW24363   1.092   2.814   4.648 -0.0338 -0.0737  0.3555
 7641SOL    HW124364   1.155   2.879   4.679  1.3709 -0.7778 -0.9260
 7641SOL    HW224365   1.074   2.760   4.725  0.5771  0.4136  0.8526
 7642SOL     OW24366   6.554   7.191   9.654 -0.3044  0.1946  0.6343
 7642SOL    HW124367   6.583   7.275   9.689 -0.4752 -0.2226  1.8435
 7642SOL    HW224368   6.582   7.127   9.719  2.6097 -1.1248 -1.7159
 7643SOL     OW24369   1.227   7.933   8.591 -0.0931 -0.5385 -0.2884
 7643SOL    HW124370   1.203   7.956   8.681  2.3632 -0.8447  0.5168
 7643SOL    HW224371   1.283   8.005   8.563  0.0085 -0.9705 -1.2077
 7644SOL     OW24372   2.254   3.139   2.819 -0.1840  0.8929 -0.1672
 7644SOL    HW124373   2.297   3.200   2.878 -0.2134  1.1150 -0.3763
 7644SOL    HW224374   2.164   3.133   2.853 -0.1311  0.8273 -0.0393
 7645SOL     OW24375   4.945   7.067   5.515 -0.6818  0.2806 -0.0607
 7645SOL    HW124376   4.886   6.992   5.529 -0.2198  0.0175  0.5320
 7645SOL    HW224377   5.030   7.035   5.543 -0.3614  0.8442 -0.3865
 7646SOL     OW24378   1.331   0.198  11.101  0.0461 -0.1807  0.4440
 7646SOL    HW124379   1.338   0.153  11.185  1.8120  0.7600  0.8467
 7646SOL    HW224380   1.271   0.270  11.116 -1.2236 -1.1848  0.3299
 7647SOL     OW24381   7.650   7.055   8.009  0.0099  0.4940 -0.4260
 7647SOL    HW124382   7.709   6.983   8.031  0.3242  0.6633 -0.7109
 7647SOL    HW224383   7.706   7.133   8.005 -0.7863  1.4708  3.4317
 7648SOL     OW24384   4.926   5.896   4.441  0.4958 -0.1775  0.0073
 7648SOL    HW124385   5.017   5.913   4.417  0.6400 -0.7415  0.1272
 7648SOL    HW224386   4.929   5.879   4.535  0.4110 -1.0700 -0.1358
 7649SOL     OW24387   2.698   2.949  11.189  0.0089 -0.0118 -0.2834
 7649SOL    HW124388   2.675   2.863  11.154 -2.6979 -0.2084  1.6611
 7649SOL    HW224389   2.729   2.931  11.278 -0.7324  0.9917  0.2027
 7650SOL     OW24390   4.119   2.988   7.761  0.2716  0.1791 -0.1121
 7650SOL    HW124391   4.174   2.912   7.781 -1.1847 -0.7212  0.6486
 7650SOL    HW224392   4.173   3.064   7.784  0.9007 -0.6870  1.3906
 7651SOL     OW24393   2.806   6.643  12.135 -0.3877 -0.4973 -0.6114
 7651SOL    HW124394   2.777   6.711  12.196  0.5810  0.1700 -0.8725
 7651SOL    HW224395   2.785   6.677  12.048  0.6130 -0.2493 -0.7741
 7652SOL     OW24396   0.974   7.788   2.920  0.1236  0.0579  0.1871
 7652SOL    HW124397   1.042   7.836   2.968 -1.0942  1.0630  0.9635
 7652SOL    HW224398   0.912   7.855   2.893  0.5924 -0.4985 -2.6173
 7653SOL     OW24399   7.669   6.151   4.499 -0.6611 -0.1288  0.2263
 7653SOL    HW124400   7.685   6.239   4.463 -1.8127 -0.2845 -0.7370
 7653SOL    HW224401   7.587   6.124   4.459 -0.1240 -1.8225  0.2025
 7654SOL     OW24402   7.587   6.179   1.395  0.3685  0.1635  0.4800
 7654SOL    HW124403   7.545   6.093   1.403  0.0238 -0.0155 -2.3536
 7654SOL    HW224404   7.673   6.168   1.435  0.2532 -1.4622  0.3331
 7655SOL     OW24405   2.657   1.257   9.845  0.6019  0.3249  0.4920
 7655SOL    HW124406   2.722   1.269   9.777  1.2271 -0.4101  0.9398
 7655SOL    HW224407   2.608   1.339   9.847  0.7976  0.4757 -0.5988
 7656SOL     OW24408   4.639   5.927   8.134 -0.9128  0.1103  0.1030
 7656SOL    HW124409   4.545   5.912   8.121 -1.4679  3.0660  0.1197
 7656SOL    HW224410   4.678   5.915   8.047 -1.3676 -0.6378 -0.0044
 7657SOL     OW24411   3.199   1.356  11.583 -0.5752  0.0467 -0.2043
 7657SOL    HW124412   3.120   1.409  11.572 -1.1111 -0.1083  2.2125
 7657SOL    HW224413   3.194   1.290  11.514 -2.2690  0.3968 -0.4637
 7658SOL     OW24414   3.178   4.873   8.858 -0.3625 -0.2225  0.0211
 7658SOL    HW124415   3.146   4.846   8.944  0.5564 -0.5578  0.2692
 7658SOL    HW224416   3.222   4.796   8.823 -0.4689  0.0026 -0.6252
 7659SOL     OW24417   6.199   6.601   3.013  0.0387 -0.2716 -0.4049
 7659SOL    HW124418   6.193   6.506   3.003  1.0749 -0.2869 -1.0563
 7659SOL    HW224419   6.275   6.614   3.069 -1.3508  0.1258  1.4870
 7660SOL     OW24420   1.966   6.773  11.606 -0.1017 -0.4130  0.6729
 7660SOL    HW124421   1.925   6.689  11.625  0.2472 -0.0549  3.3665
 7660SOL    HW224422   2.056   6.765  11.637  0.6567  0.2575 -1.1504
 7661SOL     OW24423   0.290   1.158   2.873  0.0012 -0.3565  0.6138
 7661SOL    HW124424   0.207   1.166   2.826  0.0502  1.2947  0.7471
 7661SOL    HW224425   0.324   1.248   2.877  1.6846 -0.9656  0.7599
 7662SOL     OW24426   2.611   4.287   4.736 -0.2695 -0.8105  0.2805
 7662SOL    HW124427   2.652   4.281   4.650  0.1830 -0.9132  0.5020
 7662SOL    HW224428   2.566   4.203   4.748  0.3252 -1.1076  0.4736
 7663SOL     OW24429   5.753   0.870   2.676  0.0256 -0.1579  0.0059
 7663SOL    HW124430   5.676   0.894   2.624  0.1725  0.0951 -0.0948
 7663SOL    HW224431   5.729   0.786   2.716 -0.3687 -0.0013  0.1071
 7664SOL     OW24432   4.481   0.194   6.220 -0.5665  0.0245 -0.9679
 7664SOL    HW124433   4.529   0.250   6.159  0.0572  1.3265  0.6330
 7664SOL    HW224434   4.480   0.108   6.178  1.9450  0.2781 -1.7307
 7665SOL     OW24435   4.957   1.617   9.937  0.0753  0.1628  0.0506
 7665SOL    HW124436   5.037   1.670   9.928  0.6539 -0.6171  0.4263
 7665SOL    HW224437   4.988   1.534   9.973 -1.0688  0.2970  1.4338
 7666SOL     OW24438   5.581   2.495   0.103  0.5474 -0.2433  0.0103
 7666SOL    HW124439   5.581   2.453   0.189  0.4143 -2.2895 -0.9199
 7666SOL    HW224440   5.640   2.441   0.051  0.1003  0.5587 -1.3619
 7667SOL     OW24441   0.706   5.108   1.079  0.9250 -0.0463  0.5118
 7667SOL    HW124442   0.639   5.082   1.016  0.6520  1.4396  0.1318
 7667SOL    HW224443   0.660   5.169   1.138  1.8596  0.7897  0.4078
 7668SOL     OW24444   6.663   5.007   5.082  0.3135  0.0010  0.7784
 7668SOL    HW124445   6.665   4.924   5.131 -1.4550 -0.2109  0.5486
 7668SOL    HW224446   6.625   4.984   4.997 -0.4754  1.0934  0.8188
 7669SOL     OW24447   5.893   1.447   1.465  0.4725  0.5337 -0.0982
 7669SOL    HW124448   5.981   1.483   1.456  0.9621 -0.2634  1.2086
 7669SOL    HW224449   5.879   1.441   1.560 -0.5082 -0.4927 -0.2833
 7670SOL     OW24450   1.308   2.180   9.829  0.1463  0.1958 -0.0041
 7670SOL    HW124451   1.246   2.119   9.868  0.8687 -1.0457 -0.7671
 7670SOL    HW224452   1.359   2.213   9.903 -0.9676  0.7364  0.5471
 7671SOL     OW24453   3.529   5.165   1.332  0.3309 -0.0100 -0.1509
 7671SOL    HW124454   3.438   5.153   1.358  0.1735  1.0592 -0.1782
 7671SOL    HW224455   3.557   5.245   1.376  1.2913 -0.3764 -0.0658
 7672SOL     OW24456   7.400   2.301   7.568  0.0360  0.4688  0.0430
 7672SOL    HW124457   7.468   2.366   7.585 -0.2283  0.8281 -0.2645
 7672SOL    HW224458   7.409   2.237   7.639  2.7754 -1.2353 -1.6350
 7673SOL     OW24459   1.486   5.785   8.692 -0.0738 -0.1259 -0.4071
 7673SOL    HW124460   1.396   5.798   8.661  0.7176 -1.0936 -3.5221
 7673SOL    HW224461   1.484   5.701   8.737 -0.8818  0.3265  0.4386
 7674SOL     OW24462   6.173   7.396   6.649  0.4062  0.3281 -0.0221
 7674SOL    HW124463   6.207   7.430   6.566 -0.2882 -0.3993 -0.6153
 7674SOL    HW224464   6.249   7.354   6.691  0.8496  1.0396 -0.0960
 7675SOL     OW24465   7.605   1.276   1.843  0.6497 -0.3184 -0.0503
 7675SOL    HW124466   7.553   1.294   1.765 -1.4211 -0.0495  1.3340
 7675SOL    HW224467   7.635   1.186   1.832 -0.9233 -0.8201 -0.4738
 7676SOL     OW24468   4.505   4.361   0.585 -0.3115  0.0398  0.2181
 7676SOL    HW124469   4.447   4.429   0.620 -2.0426 -0.4159 -1.6336
 7676SOL    HW224470   4.464   4.278   0.611 -0.6741 -0.2918 -1.3282
 7677SOL     OW24471   7.903   5.983   4.912  0.2609 -0.2464  0.1663
 7677SOL    HW124472   7.983   5.951   4.869  0.6417  2.0090 -0.9636
 7677SOL    HW224473   7.933   6.018   4.995  0.2720 -0.4069  0.2298
 7678SOL     OW24474   5.159   4.734  11.055  0.3608 -0.4545  0.5549
 7678SOL    HW124475   5.246   4.754  11.019  0.1669 -2.1021 -0.9450
 7678SOL    HW224476   5.102   4.729  10.978 -0.4865 -2.0660  1.2382
 7679SOL     OW24477   3.421   7.414  11.880 -0.4382  0.4052 -0.1937
 7679SOL    HW124478   3.465   7.373  11.805  0.4242  0.1872  0.4121
 7679SOL    HW224479   3.454   7.366  11.956  1.0630  2.5352  0.6130
 7680SOL     OW24480   3.397   5.681   0.093 -0.1631 -0.7359 -0.3900
 7680SOL    HW124481   3.354   5.623   0.030 -0.9382  0.6857 -1.2198
 7680SOL    HW224482   3.378   5.769   0.061  1.0077 -0.0143  0.8184
 7681SOL     OW24483   4.196   1.079   3.686  0.5289  0.4747 -0.3044
 7681SOL    HW124484   4.193   1.012   3.754  0.8202  0.3810 -0.3830
 7681SOL    HW224485   4.235   1.035   3.611 -0.4570  0.3698 -0.7743
 7682SOL     OW24486   5.588   6.800   9.945 -0.9690 -0.5357  0.4408
 7682SOL    HW124487   5.614   6.800   9.853 -1.4146  0.2472  0.3046
 7682SOL    HW224488   5.616   6.715   9.978 -0.4830 -0.6811 -0.3267
 7683SOL     OW24489   4.281   0.141   9.975 -0.0919  0.4810 -0.3496
 7683SOL    HW124490   4.267   0.168  10.066  0.6486  0.4018 -0.2120
 7683SOL    HW224491   4.220   0.194   9.925  1.0743  2.1522 -0.0569
 7684SOL     OW24492   0.408   4.980  12.408 -0.1942 -0.4098 -0.0481
 7684SOL    HW124493   0.356   4.971  12.328  0.9238  0.0471 -0.8644
 7684SOL    HW224494   0.347   4.960  12.479 -1.3027 -0.5126 -0.9933
 7685SOL     OW24495   7.761   3.465   4.593  0.3774 -0.3106 -0.4124
 7685SOL    HW124496   7.717   3.541   4.631  0.0192 -0.9517  0.5055
 7685SOL    HW224497   7.839   3.454   4.647 -0.4151 -1.5618  0.5393
 7686SOL     OW24498   0.970   4.872  10.462  0.0163 -0.3412 -0.0892
 7686SOL    HW124499   0.925   4.802  10.510  0.6543  0.0843  1.1995
 7686SOL    HW224500   0.927   4.875  10.377 -1.1137 -1.1945  0.4280
 7687SOL     OW24501   0.950   0.267   2.781  0.1459 -0.3622  0.2589
 7687SOL    HW124502   0.858   0.254   2.761 -0.3221  0.5320  1.6958
 7687SOL    HW224503   0.995   0.254   2.697 -1.0903 -2.2986 -0.1593
 7688SOL     OW24504   5.254   1.492  10.693  0.4880 -0.2896 -0.0423
 7688SOL    HW124505   5.238   1.547  10.770 -1.1186  2.0967 -1.9068
 7688SOL    HW224506   5.341   1.518  10.663  1.0061 -1.0313  0.7676
 7689SOL     OW24507   5.075   5.906  10.475 -0.5452  0.2135  0.0551
 7689SOL    HW124508   5.073   5.883  10.568  3.2446  0.7588  0.4325
 7689SOL    HW224509   5.082   6.001  10.474  0.4469  0.1420 -0.7222
 7690SOL     OW24510   4.458   0.266  10.755  0.2181  0.3605 -0.5837
 7690SOL    HW124511   4.386   0.324  10.734  0.3817  1.4095  1.5129
 7690SOL    HW224512   4.447   0.191  10.696 -1.8082  1.0743 -1.1771
 7691SOL     OW24513   5.592   2.683   9.151 -0.4916  0.2204  0.0864
 7691SOL    HW124514   5.522   2.644   9.099 -1.3258  0.6581  0.8603
 7691SOL    HW224515   5.612   2.617   9.218 -1.5758  0.8946  1.1036
 7692SOL     OW24516   1.502   6.665   5.418  0.4705  0.5251  0.0805
 7692SOL    HW124517   1.412   6.637   5.427  0.8388 -0.6755  0.1786
 7692SOL    HW224518   1.550   6.586   5.393  1.3776  1.2860 -0.6861
 7693SOL     OW24519   5.857   1.069   5.918  0.1214 -0.7762  0.1525
 7693SOL    HW124520   5.824   1.096   5.832  0.5607  1.1629  0.5387
 7693SOL    HW224521   5.895   1.149   5.955  0.0895 -1.6045  2.0897
 7694SOL     OW24522   0.881   7.015  10.310 -0.1277  0.0774 -0.4754
 7694SOL    HW124523   0.951   6.950  10.319 -0.9192 -0.8886 -1.0256
 7694SOL    HW224524   0.923   7.088  10.265  0.4373 -0.6611 -1.1972
 7695SOL     OW24525   4.347   3.741   4.487  0.2018  0.0872  0.4786
 7695SOL    HW124526   4.441   3.748   4.472  0.1703  1.0831  0.6822
 7695SOL    HW224527   4.319   3.668   4.431  0.5207  2.0123 -2.3937
 7696SOL     OW24528   4.612   1.529   6.955  0.1686 -0.3768  0.2086
 7696SOL    HW124529   4.599   1.612   7.000  0.3479 -0.3107  0.1401
 7696SOL    HW224530   4.657   1.552   6.874 -0.2310 -0.4847 -0.0501
 7697SOL     OW24531   7.902   4.203   1.927  0.0197  0.2407  0.7128
 7697SOL    HW124532   7.910   4.140   1.855 -0.0322  1.5066 -0.4362
 7697SOL    HW224533   7.972   4.266   1.910 -0.3965  0.9019  1.4359
 7698SOL     OW24534   2.356   0.562   9.715 -0.0439  0.4195 -0.3058
 7698SOL    HW124535   2.273   0.560   9.763  0.7682  1.4804  1.2140
 7698SOL    HW224536   2.422   0.534   9.778  0.7327 -0.9263 -1.6377
 7699SOL     OW24537   3.427   5.276   2.286 -0.9681  0.1264  0.2855
 7699SOL    HW124538   3.498   5.331   2.252  1.9951 -2.4055  1.8225
 7699SOL    HW224539   3.404   5.220   2.213  0.0393 -0.2994  0.2704
 7700SOL     OW24540   2.439   7.292   2.340  0.4238 -0.1990 -0.4238
 7700SOL    HW124541   2.433   7.355   2.268  0.7507  1.0912  0.6292
 7700SOL    HW224542   2.529   7.301   2.372  0.3683 -0.9621 -0.0427
 7701SOL     OW24543   3.927   3.168   1.061  0.6622 -0.9355  0.3438
 7701SOL    HW124544   3.879   3.210   1.133  3.8417  0.5119  1.8330
 7701SOL    HW224545   3.901   3.076   1.067 -3.7169  0.0175 -0.6542
 7702SOL     OW24546   0.533   1.617   9.341  0.2124 -0.1169  0.3876
 7702SOL    HW124547   0.584   1.603   9.261 -0.4306  0.6537 -0.1812
 7702SOL    HW224548   0.448   1.577   9.323 -0.0638  0.3959  0.5250
 7703SOL     OW24549   4.969   5.771   6.864  0.0412 -0.4942 -0.1685
 7703SOL    HW124550   4.905   5.837   6.838  2.6230  2.2005 -0.1947
 7703SOL    HW224551   4.951   5.755   6.957  0.4925  1.7588  0.3615
 7704SOL     OW24552   0.953   5.500  10.689  0.2212  0.7318 -0.1142
 7704SOL    HW124553   1.029   5.484  10.745 -0.2919 -0.2929  0.3091
 7704SOL    HW224554   0.963   5.592  10.662  1.8141  0.5062 -0.4010
 7705SOL     OW24555   0.782   3.544  10.751  0.1276  0.0568  0.5075
 7705SOL    HW124556   0.770   3.517  10.660 -0.0311 -0.6542  0.7337
 7705SOL    HW224557   0.826   3.470  10.793  0.8250  0.6539  0.8561
 7706SOL     OW24558   6.955   6.106   0.682  0.1477  0.0799 -0.2279
 7706SOL    HW124559   6.875   6.142   0.644 -0.2329  0.3085  0.7538
 7706SOL    HW224560   6.961   6.017   0.647 -1.2694 -0.4250  0.7089
 7707SOL     OW24561   2.958   1.596   7.471  0.6092  0.6669  0.3202
 7707SOL    HW124562   2.892   1.541   7.512  0.7477  0.1135 -0.1848
 7707SOL    HW224563   3.007   1.536   7.414 -0.1436  1.5613 -1.3325
 7708SOL     OW24564   3.090   0.416   2.799  0.1072  0.3465  0.6646
 7708SOL    HW124565   3.043   0.494   2.829 -0.1182  0.9101 -1.0129
 7708SOL    HW224566   3.024   0.367   2.750  0.3687 -0.6907  1.3196
 7709SOL     OW24567   6.576   4.593   4.081 -0.1740 -0.6246  0.3913
 7709SOL    HW124568   6.661   4.637   4.087  0.2886 -1.4906  0.2545
 7709SOL    HW224569   6.517   4.649   4.130  0.2366  0.5786 -0.4292
 7710SOL     OW24570   2.984   5.254   6.492 -0.6203  0.0234  0.2257
 7710SOL    HW124571   3.034   5.323   6.536  0.9402 -0.9325  0.0648
 7710SOL    HW224572   2.996   5.272   6.398 -3.9885  2.0953  0.0565
 7711SOL     OW24573   5.943   3.989  11.717  0.1632 -0.2615 -0.3778
 7711SOL    HW124574   5.901   4.048  11.655  0.4847 -0.1284 -0.4718
 7711SOL    HW224575   5.984   3.921  11.662 -1.0111 -1.1159 -0.2307
 7712SOL     OW24576   7.504   7.352   4.212  0.1827  0.3355  0.4208
 7712SOL    HW124577   7.444   7.298   4.160 -0.4458  0.5100  0.9577
 7712SOL    HW224578   7.477   7.337   4.303  1.1503  0.1797  0.6931
 7713SOL     OW24579   6.367   2.429   3.381  0.1077 -0.1086 -0.1512
 7713SOL    HW124580   6.348   2.513   3.340  0.3944 -0.5017 -1.1186
 7713SOL    HW224581   6.310   2.426   3.457 -1.2490  0.1815 -1.1203
 7714SOL     OW24582   7.178   2.690   9.943  0.5593  0.3797  0.1287
 7714SOL    HW124583   7.138   2.623   9.887 -0.0069  1.1637 -0.4158
 7714SOL    HW224584   7.105   2.726   9.993  0.6585  1.3678 -0.4051
 7715SOL     OW24585   1.097   3.971   7.293  0.1135  0.2958  0.4533
 7715SOL    HW124586   1.166   3.963   7.227 -0.9434 -0.1558 -0.6354
 7715SOL    HW224587   1.016   3.954   7.245 -0.7731  0.9236  1.6766
 7716SOL     OW24588   5.628   7.152   0.926 -0.0125  0.1090 -0.1589
 7716SOL    HW124589   5.578   7.163   0.845 -2.1161  0.0529  1.0353
 7716SOL    HW224590   5.679   7.232   0.934 -2.7377  1.9436  0.3049
 7717SOL     OW24591   5.280   7.351  10.136 -0.2659  0.0108  0.2057
 7717SOL    HW124592   5.226   7.303  10.198 -1.0376  0.7691  0.1363
 7717SOL    HW224593   5.270   7.443  10.161  1.9707  0.1022  0.9492
 7718SOL     OW24594   7.038   0.545   1.004  0.0649  0.3526 -0.1131
 7718SOL    HW124595   6.973   0.519   0.939 -0.9500  2.5783 -0.0753
 7718SOL    HW224596   7.006   0.509   1.087 -0.1942 -0.0312 -0.3802
 7719SOL     OW24597   4.209   1.471  10.683 -0.1667  0.5254 -0.5258
 7719SOL    HW124598   4.221   1.448  10.775  1.1842 -0.4366 -0.9202
 7719SOL    HW224599   4.122   1.437  10.661 -0.4263  0.6043  0.3415
 7720SOL     OW24600   2.123   2.119  11.606 -0.3819  0.1095 -0.4919
 7720SOL    HW124601   2.189   2.109  11.674 -1.1957  0.8726  0.4366
 7720SOL    HW224602   2.134   2.042  11.550  0.9296 -0.0361 -0.0569
 7721SOL     OW24603   5.013   7.844   5.680 -0.0040  0.7964  0.5168
 7721SOL    HW124604   5.036   7.779   5.614 -2.5010  1.2221 -0.9129
 7721SOL    HW224605   5.056   7.924   5.651 -0.3932  0.7742 -0.1373
 7722SOL     OW24606   3.573   2.275   5.122 -1.0699 -0.3343  0.4720
 7722SOL    HW124607   3.611   2.311   5.202 -3.0081 -0.4883  1.5343
 7722SOL    HW224608   3.596   2.337   5.053 -1.7672  1.3349  1.6938
 7723SOL     OW24609   1.168   6.845   7.349  0.1341 -0.1940 -0.3576
 7723SOL    HW124610   1.182   6.940   7.357 -0.9181 -0.1327  1.2946
 7723SOL    HW224611   1.104   6.837   7.278 -0.3466  0.4001 -0.0066
 7724SOL     OW24612   2.967   7.915  12.276  0.3169 -0.0101 -0.5894
 7724SOL    HW124613   2.889   7.875  12.238  0.2600  0.1347 -0.6250
 7724SOL    HW224614   2.941   7.938  12.366 -0.0076  0.9753 -0.9227
 7725SOL     OW24615   5.845   2.413   3.769  0.3488  0.1399 -0.3828
 7725SOL    HW124616   5.830   2.319   3.778  0.2257  0.1760 -0.2044
 7725SOL    HW224617   5.800   2.438   3.689 -0.0795  0.1497 -0.1375
 7726SOL     OW24618   3.311   0.572   0.638 -0.0899  0.0532  0.0903
 7726SOL    HW124619   3.246   0.559   0.570 -0.2256 -2.5308  0.6424
 7726SOL    HW224620   3.322   0.668   0.642 -1.6472  0.3932 -2.0106
 7727SOL     OW24621   3.279   1.454   9.642 -0.3177 -0.1132  0.0099
 7727SOL    HW124622   3.250   1.394   9.710 -0.4714  0.1865  0.2089
 7727SOL    HW224623   3.375   1.451   9.647 -0.2889 -1.2792 -0.8067
 7728SOL     OW24624   0.402   5.689   5.109  0.1983 -0.2636  0.2917
 7728SOL    HW124625   0.454   5.751   5.057  1.3459 -1.1981  0.2844
 7728SOL    HW224626   0.348   5.644   5.044  1.2374 -1.0489 -0.0566
 7729SOL     OW24627   1.701   4.720   5.971  0.3226 -0.4328 -0.6511
 7729SOL    HW124628   1.746   4.642   5.939 -0.1059 -0.8049 -0.3663
 7729SOL    HW224629   1.767   4.767   6.021  0.8444 -0.1277 -1.5984
 7730SOL     OW24630   5.513   2.964   1.468  0.2512 -0.5340 -0.4536
 7730SOL    HW124631   5.460   3.041   1.491 -0.1207 -1.0103  0.3578
 7730SOL    HW224632   5.507   2.958   1.373 -1.7803 -0.9868 -0.3519
 7731SOL     OW24633   4.452   1.889   0.594 -0.6337  0.1400 -0.0237
 7731SOL    HW124634   4.538   1.855   0.568 -0.2467  1.2421 -0.2538
 7731SOL    HW224635   4.409   1.912   0.512 -1.5255 -1.2172  0.0315
 7732SOL     OW24636   2.596   3.901   2.962  0.3915  0.2305 -0.5436
 7732SOL    HW124637   2.613   3.811   2.990  0.1836  0.2187 -0.4591
 7732SOL    HW224638   2.681   3.945   2.973  0.1762  0.3711  0.6596
 7733SOL     OW24639   4.485   2.134  10.084 -0.1738 -1.0291 -0.6528
 7733SOL    HW124640   4.502   2.074  10.157 -3.0637  1.7993  2.7308
 7733SOL    HW224641   4.560   2.193  10.083  0.3881 -1.7358 -0.7308
 7734SOL     OW24642   3.645   3.219  11.546  0.1810  0.3850  0.1158
 7734SOL    HW124643   3.617   3.219  11.637 -0.3515  2.6912 -0.0002
 7734SOL    HW224644   3.683   3.306  11.532  1.1779 -0.2662 -1.6071
 7735SOL     OW24645   3.430   6.284   6.855 -0.1044 -0.0425 -0.1023
 7735SOL    HW124646   3.494   6.213   6.853 -0.1805 -0.0929 -1.1624
 7735SOL    HW224647   3.409   6.294   6.948 -0.4238 -1.7131  0.0456
 7736SOL     OW24648   0.294   3.898   6.237  0.3078 -0.6230  0.3764
 7736SOL    HW124649   0.212   3.870   6.196 -0.6620 -1.5286  2.7622
 7736SOL    HW224650   0.309   3.835   6.307  0.6356  2.0102  2.8743
 7737SOL     OW24651   0.769   6.297  10.642 -0.3335 -0.2421 -0.1312
 7737SOL    HW124652   0.850   6.277  10.596  0.2525 -0.7715  1.0868
 7737SOL    HW224653   0.703   6.303  10.573  0.8226  0.6996 -1.1903
 7738SOL     OW24654   4.680   3.592   4.102  0.3284 -0.0244  0.3391
 7738SOL    HW124655   4.613   3.660   4.113  1.0082  0.4712  1.6602
 7738SOL    HW224656   4.646   3.536   4.032  0.7123  2.8182 -2.3380
 7739SOL     OW24657   3.091   4.351   0.833  0.5113  0.4281 -0.1333
 7739SOL    HW124658   3.013   4.406   0.832  0.2096  0.0197  0.6526
 7739SOL    HW224659   3.101   4.323   0.742  1.6295  3.0849 -0.9339
 7740SOL     OW24660   0.651   2.618   4.490  0.3690 -0.2653 -0.0918
 7740SOL    HW124661   0.582   2.612   4.557 -1.0203  2.4397 -1.1384
 7740SOL    HW224662   0.621   2.560   4.420 -0.6908  0.5606 -0.3568
 7741SOL     OW24663   0.138   6.296  10.207 -0.1882  0.2524  0.5703
 7741SOL    HW124664   0.184   6.370  10.168 -2.6976  1.1067 -1.0523
 7741SOL    HW224665   0.153   6.304  10.301  1.4065  1.4767  0.2480
 7742SOL     OW24666   7.088   6.761   7.568  0.1900 -0.3910 -0.2947
 7742SOL    HW124667   7.183   6.761   7.568  0.2048  0.3365  0.4564
 7742SOL    HW224668   7.064   6.815   7.643 -0.8232 -1.4583  0.1818
 7743SOL     OW24669   7.515   6.018  11.358 -0.3715 -0.2951  0.2663
 7743SOL    HW124670   7.610   6.022  11.347 -0.3871  0.8132  0.3962
 7743SOL    HW224671   7.501   6.025  11.452 -0.6376  2.0011  0.1174
 7744SOL     OW24672   7.663   5.805   3.674  0.1866  0.6061 -0.2900
 7744SOL    HW124673   7.591   5.754   3.637  0.8560  1.1112 -2.4476
 7744SOL    HW224674   7.622   5.864   3.737 -1.0261 -0.3252 -0.1736
 7745SOL     OW24675   0.148   0.884   0.719 -0.1603 -0.2317  0.3394
 7745SOL    HW124676   0.211   0.932   0.666 -0.4410 -1.5346 -1.2515
 7745SOL    HW224677   0.062   0.914   0.688 -0.3309 -0.6031  0.4387
 7746SOL     OW24678   1.411   0.126   6.894  0.1083  0.1320 -0.2150
 7746SOL    HW124679   1.502   0.154   6.909  0.1740  0.7530 -1.6188
 7746SOL    HW224680   1.363   0.207   6.878 -0.6912 -0.1968  0.4589
 7747SOL     OW24681   4.373   3.306   6.890 -0.3438  0.1377 -0.5050
 7747SOL    HW124682   4.436   3.320   6.960 -0.3085  0.3378 -0.5757
 7747SOL    HW224683   4.347   3.214   6.899  1.3930 -0.5270 -1.6520
 7748SOL     OW24684   5.897   3.212  10.312  0.6248  0.0483 -0.4822
 7748SOL    HW124685   5.926   3.163  10.389  0.2596  0.8995  0.2069
 7748SOL    HW224686   5.978   3.251  10.278  1.0752 -1.6830 -1.5551
 7749SOL     OW24687   0.279   3.634   2.775 -0.1476  0.5458 -0.0185
 7749SOL    HW124688   0.351   3.694   2.755  1.1665 -1.4080 -1.4544
 7749SOL    HW224689   0.319   3.565   2.827 -0.8819 -0.7491 -1.1098
 7750SOL     OW24690   3.462   4.925  10.125 -0.3021  0.0971 -0.1049
 7750SOL    HW124691   3.556   4.938  10.141 -0.2318 -0.9698  0.4603
 7750SOL    HW224692   3.433   4.870  10.198 -1.5743  1.1571  0.2246
 7751SOL     OW24693   6.026   6.918   6.421 -0.3131 -0.3988 -0.2249
 7751SOL    HW124694   6.110   6.937   6.381  1.0616 -0.5141  2.3877
 7751SOL    HW224695   6.030   6.825   6.444 -0.5905 -0.1292  1.0370
 7752SOL     OW24696   3.034   5.674   5.069  0.5798 -0.0867  0.1921
 7752SOL    HW124697   3.035   5.634   5.156 -0.3667 -0.3859  0.0737
 7752SOL    HW224698   3.025   5.601   5.009  0.0697  0.2018 -0.0913
 7753SOL     OW24699   7.778   7.713  11.703 -0.0433  0.1587 -0.2400
 7753SOL    HW124700   7.755   7.798  11.739 -0.7683 -0.4392  0.7439
 7753SOL    HW224701   7.855   7.730  11.648 -1.5176  1.8450 -1.9237
 7754SOL     OW24702   3.761   1.630  11.940  0.2034 -0.1472  0.1028
 7754SOL    HW124703   3.667   1.631  11.921 -0.0577  0.0568  1.2637
 7754SOL    HW224704   3.767   1.673  12.026  1.2753 -0.8049  0.3693
 7755SOL     OW24705   2.147   4.918  10.007  0.3500 -0.4233 -0.1415
 7755SOL    HW124706   2.183   4.880  10.087  2.6974  1.5062 -0.1501
 7755SOL    HW224707   2.074   4.972  10.036  0.7235 -0.3206  0.6199
 7756SOL     OW24708   4.972   5.040   5.610 -0.4798 -0.2520  0.3082
 7756SOL    HW124709   4.911   5.037   5.683 -0.6303 -0.1705  0.1856
 7756SOL    HW224710   4.922   5.078   5.538  0.2126  1.4144  0.6733
 7757SOL     OW24711   6.436   2.292   3.697  0.5574  0.2946 -0.0111
 7757SOL    HW124712   6.476   2.236   3.629 -0.9906  1.8162 -2.3225
 7757SOL    HW224713   6.463   2.251   3.779 -0.0592 -3.5721 -1.4834
 7758SOL     OW24714   7.575   7.757   6.066 -0.0288  0.2125 -0.5713
 7758SOL    HW124715   7.564   7.816   6.141  1.0041  1.2128 -1.1791
 7758SOL    HW224716   7.501   7.697   6.072 -0.7524  1.1690  0.4378
 7759SOL     OW24717   1.852   4.634   5.119 -0.0552  0.2130 -0.1517
 7759SOL    HW124718   1.862   4.558   5.063 -1.2615 -0.8888  1.0430
 7759SOL    HW224719   1.821   4.598   5.203  0.2099  1.9241  0.7285
 7760SOL     OW24720   1.517   3.634   6.796 -0.5347 -0.3536 -0.6656
 7760SOL    HW124721   1.442   3.693   6.806  0.2955  0.6049  0.0425
 7760SOL    HW224722   1.520   3.586   6.879 -0.7235 -0.8350 -0.9333
 7761SOL     OW24723   6.635   3.938   0.646  0.1655 -0.0549 -0.2305
 7761SOL    HW124724   6.549   3.897   0.634  0.5042 -1.0523  0.5749
 7761SOL    HW224725   6.616   4.031   0.654 -0.8731 -0.2803  0.1018
 7762SOL     OW24726   7.803   7.490  10.429 -0.2506 -0.2838  0.1640
 7762SOL    HW124727   7.816   7.578  10.394  2.1827 -0.3242  0.7615
 7762SOL    HW224728   7.724   7.458  10.386 -0.3711  1.6496 -1.1573
 7763SOL     OW24729   3.258   6.791   3.780 -0.0926 -0.1455  0.0020
 7763SOL    HW124730   3.273   6.716   3.722  1.4724 -0.0398  0.2210
 7763SOL    HW224731   3.165   6.787   3.802 -1.3379  0.9774 -4.1538
 7764SOL     OW24732   0.260   4.928  11.536 -0.2159 -0.1305 -0.6095
 7764SOL    HW124733   0.199   4.998  11.513 -0.4874 -0.5627 -1.2270
 7764SOL    HW224734   0.346   4.970  11.534 -0.4128  0.2803 -0.5816
 7765SOL     OW24735   7.605   4.006   8.010  0.1411  0.3033  0.5374
 7765SOL    HW124736   7.659   3.938   7.970  0.0107 -0.0054  0.8773
 7765SOL    HW224737   7.517   3.967   8.014  0.4992 -0.4246  2.8285
 7766SOL     OW24738   6.096   0.767   6.049  0.4240 -0.1685  0.2671
 7766SOL    HW124739   6.006   0.740   6.061  0.6028 -0.4133  1.1006
 7766SOL    HW224740   6.147   0.708   6.104  0.9791  0.7269  0.7376
 7767SOL     OW24741   6.787   1.458   4.233 -0.2448  0.3622  0.3665
 7767SOL    HW124742   6.879   1.481   4.224  0.0627 -0.9921 -0.1597
 7767SOL    HW224743   6.773   1.447   4.327  0.3056 -0.1195  0.3916
 7768SOL     OW24744   6.083   1.153  10.392  0.0191  0.6201 -0.3331
 7768SOL    HW124745   6.018   1.224  10.389  1.4063  1.9770  0.2631
 7768SOL    HW224746   6.085   1.119  10.303 -1.3519  0.6913 -0.4105
 7769SOL     OW24747   1.005   6.624   0.173 -1.0626  0.4756 -0.3813
 7769SOL    HW124748   0.965   6.699   0.130 -1.0136  1.5840  1.4243
 7769SOL    HW224749   1.064   6.587   0.106 -0.6571  2.3619 -1.1324
 7770SOL     OW24750   6.732   0.391   2.604 -0.1842  0.2173  0.1651
 7770SOL    HW124751   6.786   0.320   2.639  1.2544  0.8201 -0.7393
 7770SOL    HW224752   6.676   0.417   2.677  0.0768 -1.0693  0.8538
 7771SOL     OW24753   2.821   4.214   6.324  0.1958  0.4091 -0.2241
 7771SOL    HW124754   2.863   4.198   6.408 -1.0406  0.4321  0.4191
 7771SOL    HW224755   2.857   4.147   6.266  1.5840  0.8298  0.1179
 7772SOL     OW24756   0.954   0.253   2.495  0.5190 -0.2923  0.2696
 7772SOL    HW124757   0.911   0.326   2.452 -0.1634  0.1803  1.6790
 7772SOL    HW224758   1.032   0.236   2.443 -0.7967 -0.4606 -1.7343
 7773SOL     OW24759   5.404   4.568   7.602 -0.3355  0.1407  0.0901
 7773SOL    HW124760   5.470   4.637   7.612 -0.4918  0.1933  0.7508
 7773SOL    HW224761   5.388   4.536   7.691 -0.6492 -0.3921 -0.1515
 7774SOL     OW24762   7.091   7.030   0.632  0.3032  0.0155  0.3263
 7774SOL    HW124763   7.186   7.040   0.636  0.2759  0.5113 -0.1098
 7774SOL    HW224764   7.062   7.104   0.579 -0.2683 -0.4599 -0.0298
 7775SOL     OW24765   7.639   7.809  11.059 -0.0297  0.8451 -0.3743
 7775SOL    HW124766   7.647   7.842  11.148 -0.4526  0.1874 -0.0820
 7775SOL    HW224767   7.557   7.760  11.059  0.3338  0.2206 -0.9252
 7776SOL     OW24768   4.285   7.063   5.341  0.3183 -0.3366  0.0716
 7776SOL    HW124769   4.260   7.148   5.376  1.2906  0.3999 -0.9316
 7776SOL    HW224770   4.272   7.071   5.246 -0.1646 -1.5249  0.0156
 7777SOL     OW24771   5.924   2.389   6.621 -0.3941  0.4699  0.3199
 7777SOL    HW124772   5.912   2.294   6.620 -1.1151  0.5456 -0.8283
 7777SOL    HW224773   6.018   2.401   6.612 -0.4140 -0.1646 -1.1493
 7778SOL     OW24774   6.817   3.483  11.978  0.4374 -0.5573 -0.4350
 7778SOL    HW124775   6.736   3.433  11.978 -1.3231  1.9790  2.6209
 7778SOL    HW224776   6.886   3.417  11.992 -1.7077 -2.2881  3.4616
 7779SOL     OW24777   2.450   7.577   3.152  0.2331 -0.5489 -0.5660
 7779SOL    HW124778   2.448   7.503   3.092 -1.7365 -1.5609  0.6490
 7779SOL    HW224779   2.406   7.647   3.105  0.4472 -0.7200 -1.0294
 7780SOL     OW24780   0.045   6.930   3.846 -0.6394 -0.1917 -0.2690
 7780SOL    HW124781  -0.044   6.900   3.863  0.2593 -2.3112  1.1460
 7780SOL    HW224782   0.074   6.879   3.770 -0.3451 -0.2112 -0.1471
 7781SOL     OW24783   6.522   2.944   1.190  0.2877 -0.1842 -0.2660
 7781SOL    HW124784   6.461   2.905   1.127 -0.2328  0.1399  0.0226
 7781SOL    HW224785   6.479   2.929   1.275 -0.3637  1.7628 -0.2073
 7782SOL     OW24786   4.470   1.665   0.354  0.1550  0.1433 -1.1492
 7782SOL    HW124787   4.399   1.626   0.405 -0.4873  3.2354  0.5628
 7782SOL    HW224788   4.544   1.606   0.369 -0.4554 -0.0340  2.1094
 7783SOL     OW24789   1.795   0.082   0.067  0.7094  0.6893 -0.4616
 7783SOL    HW124790   1.741   0.093   0.146 -0.2905  0.9598 -1.1676
 7783SOL    HW224791   1.823   0.171   0.044  0.8517  0.6300 -0.5213
 7784SOL     OW24792   7.261   3.946   9.748  0.1127  0.6319 -0.7104
 7784SOL    HW124793   7.330   4.001   9.709  0.7140 -0.6628 -1.5378
 7784SOL    HW224794   7.293   3.927   9.836  0.6148  0.4175 -0.9321
 7785SOL     OW24795   1.160   7.716   0.516 -0.1798  0.7051  0.4819
 7785SOL    HW124796   1.251   7.744   0.512 -0.6936  2.3247 -2.0113
 7785SOL    HW224797   1.145   7.669   0.434 -1.5063  0.1859  0.9845
 7786SOL     OW24798   2.637   6.666   8.814  0.1595 -0.1729  0.1889
 7786SOL    HW124799   2.663   6.680   8.723  1.3269  0.2023  0.5600
 7786SOL    HW224800   2.617   6.573   8.819 -0.1685 -0.1444 -0.5155
 7787SOL     OW24801   0.640   5.595   6.644 -0.3080 -0.4744  0.1737
 7787SOL    HW124802   0.734   5.580   6.641 -0.2778 -0.4413  0.7652
 7787SOL    HW224803   0.629   5.663   6.712 -0.5827  0.9182 -1.1972
 7788SOL     OW24804   7.073   7.354   1.025 -0.6394 -0.1981 -0.2782
 7788SOL    HW124805   7.156   7.308   1.012 -1.4821 -1.4947 -1.3698
 7788SOL    HW224806   7.071   7.421   0.957 -0.1271  0.3999  0.2857
 7789SOL     OW24807   2.074   6.063  10.924  0.2524  0.1497  0.0293
 7789SOL    HW124808   2.012   6.048  10.853 -0.6719 -0.8107  0.9944
 7789SOL    HW224809   2.156   6.024  10.892 -0.8667 -2.9045  0.5350
 7790SOL     OW24810   7.977   7.256   7.305  0.1269  0.0730 -0.1345
 7790SOL    HW124811   8.071   7.259   7.324  0.2208  0.1251 -0.6018
 7790SOL    HW224812   7.972   7.230   7.213 -0.3256 -0.2668 -0.0162
 7791SOL     OW24813   6.003   4.503  10.084  0.6216 -0.2165 -0.1884
 7791SOL    HW124814   5.965   4.417  10.098  0.1631  0.1003  0.5677
 7791SOL    HW224815   6.070   4.512  10.152 -0.6294  0.7538  0.9860
 7792SOL     OW24816   0.124   3.356   1.254 -0.4264  0.0739  0.6437
 7792SOL    HW124817   0.140   3.401   1.171  1.2806 -1.6815 -0.0665
 7792SOL    HW224818   0.162   3.414   1.320  1.5372 -0.1286 -0.2270
 7793SOL     OW24819   1.409   1.611   7.076  0.1926  0.3072 -0.3104
 7793SOL    HW124820   1.475   1.568   7.022  0.4920 -1.7144  1.5494
 7793SOL    HW224821   1.340   1.546   7.087 -1.4346  1.8398 -0.9237
 7794SOL     OW24822   5.446   1.012   4.388 -0.6372  0.2082 -0.1604
 7794SOL    HW124823   5.365   1.060   4.403 -0.2601  1.2505 -1.2565
 7794SOL    HW224824   5.513   1.063   4.434 -0.3481  0.3193 -0.6971
 7795SOL     OW24825   5.629   1.907   1.415 -0.2403 -0.0861 -0.4242
 7795SOL    HW124826   5.551   1.935   1.367  0.7475  3.0974 -0.3509
 7795SOL    HW224827   5.687   1.872   1.348 -0.3378  0.8601 -1.0223
 7796SOL     OW24828   3.680   3.920   0.902 -0.5927 -0.6231 -0.7469
 7796SOL    HW124829   3.715   4.000   0.864 -0.1004 -1.2584 -1.6761
 7796SOL    HW224830   3.586   3.936   0.910 -0.2589  0.8004  1.0234
 7797SOL     OW24831   7.649   1.172   4.110  1.0278  0.2746  0.5695
 7797SOL    HW124832   7.592   1.096   4.112 -1.0925  1.8111  1.3462
 7797SOL    HW224833   7.614   1.232   4.176  1.4368  2.7324 -1.2643
 7798SOL     OW24834   3.093   5.723   5.583 -0.1470 -0.2735 -0.1186
 7798SOL    HW124835   3.123   5.727   5.674  0.4342 -0.1432 -0.3099
 7798SOL    HW224836   3.165   5.763   5.533 -0.3009 -0.6830 -0.6698
 7799SOL     OW24837   1.423   2.565   8.501  0.1881 -0.0794  0.2091
 7799SOL    HW124838   1.390   2.499   8.440  1.7540 -0.4208 -0.3144
 7799SOL    HW224839   1.442   2.642   8.446 -1.4337  0.7685  0.7850
 7800SOL     OW24840   3.994   0.278   3.452  0.6641  0.3443  0.3483
 7800SOL    HW124841   4.047   0.335   3.396  0.7032 -0.0460 -0.0203
 7800SOL    HW224842   4.038   0.193   3.447 -0.3970 -0.1776 -0.5601
 7801SOL     OW24843   5.348   4.422   7.840  0.3299 -0.6037  0.1501
 7801SOL    HW124844   5.339   4.446   7.932 -3.3051  1.9447 -0.6911
 7801SOL    HW224845   5.288   4.348   7.828  0.3604 -0.5566 -0.3232
 7802SOL     OW24846   1.938   0.733   6.983  0.0935  0.2086  0.5673
 7802SOL    HW124847   1.857   0.727   6.933  0.1356  0.7745  0.4255
 7802SOL    HW224848   1.997   0.784   6.928  0.1594  0.7937  1.1630
 7803SOL     OW24849   3.819   6.829  11.406 -0.3977  0.3237 -0.6466
 7803SOL    HW124850   3.889   6.767  11.386  1.0423  1.0173  1.8153
 7803SOL    HW224851   3.836   6.904  11.349  1.6215  0.9302  0.6293
 7804SOL     OW24852   6.457   7.569   1.623 -0.2768  0.3420  0.5764
 7804SOL    HW124853   6.532   7.596   1.677 -0.9298 -0.1097  1.7461
 7804SOL    HW224854   6.424   7.650   1.584  0.9576  0.5179 -0.1526
 7805SOL     OW24855   0.962   4.295   7.003 -0.0886 -0.4186  0.0143
 7805SOL    HW124856   0.903   4.228   6.970 -2.2232 -0.1413  2.9130
 7805SOL    HW224857   0.915   4.378   6.991  1.4527  0.3267 -1.2430
 7806SOL     OW24858   6.909   5.532   9.426  0.4747 -0.3596 -0.2637
 7806SOL    HW124859   6.999   5.562   9.414  0.2267 -0.0505 -1.5172
 7806SOL    HW224860   6.875   5.586   9.498  1.4065 -0.7903  0.5297
 7807SOL     OW24861   3.896   6.888   5.305  0.1488 -0.5841  1.1519
 7807SOL    HW124862   3.899   6.952   5.376  1.1691 -0.4534  1.0104
 7807SOL    HW224863   3.986   6.857   5.298 -0.1410 -1.2966  0.5483
 7808SOL     OW24864   2.128   6.320   7.173  0.5011  0.0006 -0.0584
 7808SOL    HW124865   2.042   6.299   7.209  0.6151 -0.3724  0.0040
 7808SOL    HW224866   2.169   6.235   7.158  0.6889  0.1659 -0.5080
 7809SOL     OW24867   4.302   2.800   7.880 -0.2854 -0.2520 -0.1184
 7809SOL    HW124868   4.334   2.712   7.899 -0.9989 -0.9333 -1.9048
 7809SOL    HW224869   4.359   2.833   7.811 -0.0146  0.7035  0.5461
 7810SOL     OW24870   4.992   1.662  12.374  0.4287  0.1430 -0.0421
 7810SOL    HW124871   4.920   1.661  12.311 -0.0764  1.1537  0.4813
 7810SOL    HW224872   5.070   1.684  12.323  0.5409 -1.7390 -0.7521
 7811SOL     OW24873   4.251   6.928   9.036 -1.0056 -1.0380 -0.0154
 7811SOL    HW124874   4.325   6.987   9.021 -1.6041 -0.1093  0.5923
 7811SOL    HW224875   4.251   6.871   8.959  1.2792 -2.1002  0.6663
 7812SOL     OW24876   0.846   6.952   1.320 -0.2655 -0.1549 -0.4799
 7812SOL    HW124877   0.826   6.920   1.407 -0.0565  0.3258 -0.2518
 7812SOL    HW224878   0.933   6.992   1.327 -0.3999  0.2166 -0.8124
 7813SOL     OW24879   3.581   6.144   5.609 -0.3638 -0.4201 -0.4847
 7813SOL    HW124880   3.578   6.235   5.581  1.0526 -0.0225  0.5687
 7813SOL    HW224881   3.662   6.136   5.659 -0.8822 -2.0435  0.1826
 7814SOL     OW24882   0.165   1.685   2.526  0.2946  0.8369 -0.0064
 7814SOL    HW124883   0.097   1.751   2.541  0.3834  1.5094 -2.1616
 7814SOL    HW224884   0.247   1.734   2.524  0.4147  0.6248 -1.1509
 7815SOL     OW24885   5.306   5.989   9.423 -0.1899 -0.5564  0.0500
 7815SOL    HW124886   5.383   6.042   9.405 -0.2403  0.1009  1.5911
 7815SOL    HW224887   5.237   6.053   9.441 -0.4549 -1.1198  1.1353
 7816SOL     OW24888   4.362   4.076   4.450  0.0069 -0.1759  0.1329
 7816SOL    HW124889   4.293   4.010   4.441 -1.2293  1.2642 -1.6585
 7816SOL    HW224890   4.332   4.131   4.522 -0.4746  0.1413 -0.3004
 7817SOL     OW24891   3.797   3.100   5.692  0.3403 -0.4733 -0.3012
 7817SOL    HW124892   3.750   3.097   5.608 -1.2786 -1.1461  0.5914
 7817SOL    HW224893   3.870   3.040   5.680 -0.1590 -0.9420 -1.0730
 7818SOL     OW24894   6.190   0.644   7.931  0.4622 -0.2008 -0.0841
 7818SOL    HW124895   6.161   0.684   8.014  2.7898  0.9321  0.2597
 7818SOL    HW224896   6.188   0.717   7.868 -2.3734 -1.2798 -1.4270
 7819SOL     OW24897   3.336   6.176   9.539 -0.2097 -0.6217  0.3721
 7819SOL    HW124898   3.275   6.214   9.476 -0.7691 -1.2472  0.5187
 7819SOL    HW224899   3.281   6.155   9.615 -0.1427 -2.6342 -0.0786
 7820SOL     OW24900   2.504   0.700   2.612 -0.5696  0.7572  0.0631
 7820SOL    HW124901   2.538   0.785   2.585 -2.4885  1.7096  0.4321
 7820SOL    HW224902   2.503   0.703   2.707  0.3737 -0.1419  0.1189
 7821SOL     OW24903   6.734   1.176   2.379  0.2942 -0.7406  0.3131
 7821SOL    HW124904   6.688   1.113   2.324 -0.3045  0.6938 -0.8847
 7821SOL    HW224905   6.813   1.198   2.330  0.0901  0.0364  0.3108
 7822SOL     OW24906   7.830   0.756  11.105  0.5074  0.3262 -0.0727
 7822SOL    HW124907   7.786   0.789  11.027  1.7675 -0.0342 -0.9678
 7822SOL    HW224908   7.848   0.834  11.158 -3.1435  0.3432  1.4762
 7823SOL     OW24909   1.898   0.019   7.895 -0.4123 -0.3207  0.4774
 7823SOL    HW124910   1.981  -0.011   7.857 -1.3748 -1.3874 -0.8787
 7823SOL    HW224911   1.915   0.110   7.922  0.8132 -0.0629 -1.0315
 7824SOL     OW24912   5.699   2.652   2.030  0.3777 -0.1371  0.3108
 7824SOL    HW124913   5.746   2.665   1.948 -2.0318  0.0163 -1.1516
 7824SOL    HW224914   5.698   2.738   2.072  0.8859 -0.0219  0.0924
 7825SOL     OW24915   6.727   1.083   3.478  0.2256  0.0714  0.0896
 7825SOL    HW124916   6.678   1.160   3.507  0.8730  0.4980  0.0707
 7825SOL    HW224917   6.800   1.119   3.427 -1.3664 -0.6587 -2.9391
 7826SOL     OW24918   3.375   5.697   4.748  0.0112 -0.2792 -0.2319
 7826SOL    HW124919   3.303   5.725   4.691  0.1594  1.0841  0.2360
 7826SOL    HW224920   3.366   5.601   4.751  0.8028 -0.5804 -3.6099
 7827SOL     OW24921   1.494   5.483   9.081  0.5454  0.5266  0.3522
 7827SOL    HW124922   1.467   5.495   9.172  0.4754 -0.9975  0.5601
 7827SOL    HW224923   1.414   5.495   9.030 -0.0670 -1.3809  0.7575
 7828SOL     OW24924   5.936   7.714   6.006  0.3615  0.0555 -0.0960
 7828SOL    HW124925   5.847   7.739   6.032  0.5489 -0.0443  0.6793
 7828SOL    HW224926   5.981   7.797   5.993 -0.3449  0.1495 -2.4122
 7829SOL     OW24927   6.611   3.645   6.887 -0.2144  0.8370 -0.5036
 7829SOL    HW124928   6.545   3.714   6.880  1.5222  2.4227 -2.3319
 7829SOL    HW224929   6.598   3.592   6.809  0.0433  0.5530 -0.3545
 7830SOL     OW24930   5.122   2.031   3.320 -0.3969  0.6059 -0.0697
 7830SOL    HW124931   5.056   1.961   3.323 -0.1317  0.1202 -2.6518
 7830SOL    HW224932   5.071   2.111   3.307 -0.5635  0.4725 -0.2477
 7831SOL     OW24933   6.274   1.093   9.118  0.4427  0.7110  0.6976
 7831SOL    HW124934   6.256   0.999   9.131  0.6983  0.6953  0.9513
 7831SOL    HW224935   6.369   1.099   9.117  0.4351  1.0924  1.6260
 7832SOL     OW24936   6.738   7.669   9.260 -0.3527  0.2771  0.2900
 7832SOL    HW124937   6.686   7.655   9.181 -1.1192 -0.5653  0.9205
 7832SOL    HW224938   6.716   7.594   9.316  0.2071  0.8420  1.2785
 7833SOL     OW24939   6.137   6.347   0.633  0.1582  0.0494 -0.6434
 7833SOL    HW124940   6.073   6.286   0.668  0.2977  0.6575  0.7593
 7833SOL    HW224941   6.158   6.405   0.707  0.4259  1.4534 -1.7668
 7834SOL     OW24942   0.866   4.601   9.292  0.3825 -0.0051 -0.7576
 7834SOL    HW124943   0.794   4.653   9.330  0.7072  0.0804 -0.2388
 7834SOL    HW224944   0.887   4.537   9.360  2.7832  1.8508  0.4193
 7835SOL     OW24945   3.071   1.317   6.424 -0.2417  0.7566  0.7938
 7835SOL    HW124946   3.021   1.273   6.493  2.1683 -1.4312  1.3512
 7835SOL    HW224947   3.077   1.252   6.354  1.9954  0.7244  0.9196
 7836SOL     OW24948   1.766   0.664   1.571 -0.1782 -0.2836  1.0769
 7836SOL    HW124949   1.793   0.650   1.480  0.0256  0.3000  1.0468
 7836SOL    HW224950   1.847   0.682   1.618 -0.2595 -0.7813  1.4165
 7837SOL     OW24951   0.513   0.198   5.718 -0.5852 -0.1521  0.1464
 7837SOL    HW124952   0.502   0.103   5.718  0.1548 -0.2507 -0.3736
 7837SOL    HW224953   0.444   0.230   5.660  0.2622 -0.5446 -1.1404
 7838SOL     OW24954   6.213   4.655   2.861  0.1454 -1.0050 -0.1643
 7838SOL    HW124955   6.300   4.690   2.876 -1.0847  2.1166  0.3981
 7838SOL    HW224956   6.200   4.660   2.767 -0.3540  1.1824 -0.0277
 7839SOL     OW24957   2.924   1.462  11.533 -0.0953 -0.0469  0.1491
 7839SOL    HW124958   2.880   1.404  11.471 -0.8711 -1.1330  1.6781
 7839SOL    HW224959   2.865   1.468  11.608  0.9017  1.0896  0.8926
 7840SOL     OW24960   7.854   0.041   0.038  0.9940 -0.2287  0.1640
 7840SOL    HW124961   7.861   0.129   0.001 -1.4356  0.2108  0.5202
 7840SOL    HW224962   7.895  -0.017  -0.026 -1.2115  0.7238 -2.2615
 7841SOL     OW24963   4.538   6.878   2.729 -0.5774 -0.1646  0.0875
 7841SOL    HW124964   4.607   6.886   2.664 -1.2510 -0.4375 -0.6748
 7841SOL    HW224965   4.460   6.855   2.679 -1.4700  1.1802  0.7991
 7842SOL     OW24966   1.941   1.154   5.353 -0.6528 -0.8320  0.0132
 7842SOL    HW124967   1.947   1.066   5.315 -0.6158 -0.6203 -0.4650
 7842SOL    HW224968   1.866   1.194   5.310  0.4434  0.0369 -1.1361
 7843SOL     OW24969   3.448   6.272   3.630 -0.4524 -0.0727 -0.0486
 7843SOL    HW124970   3.441   6.367   3.633  0.0539 -0.0620  1.1112
 7843SOL    HW224971   3.541   6.255   3.646 -0.4599 -0.7478 -0.6886
 7844SOL     OW24972   1.580   0.117   5.142  0.1258 -0.3767 -0.3020
 7844SOL    HW124973   1.621   0.154   5.064 -0.4878 -1.6004 -1.2513
 7844SOL    HW224974   1.489   0.147   5.139  0.1667 -0.1998  0.1045
 7845SOL     OW24975   1.578   5.303   4.343  0.0931 -0.2265  0.0652
 7845SOL    HW124976   1.623   5.251   4.277 -3.3744 -1.2141 -1.8043
 7845SOL    HW224977   1.523   5.239   4.389 -0.5301  1.0557  1.1750
 7846SOL     OW24978   5.983   4.973   1.332 -0.1465 -0.1750 -0.3881
 7846SOL    HW124979   6.020   4.982   1.421 -1.4934 -1.7091  0.3712
 7846SOL    HW224980   5.987   4.879   1.315  0.2158  0.1204 -2.0480
 7847SOL     OW24981   6.681   2.640   9.032 -0.1642 -0.5753 -0.0189
 7847SOL    HW124982   6.707   2.695   9.105  0.8510 -0.4191 -0.4910
 7847SOL    HW224983   6.671   2.700   8.959 -0.1701 -0.8701 -0.2613
 7848SOL     OW24984   0.828   2.212   0.690  0.2046 -0.3618  0.4552
 7848SOL    HW124985   0.883   2.270   0.638  0.1620  0.2837  1.1052
 7848SOL    HW224986   0.857   2.227   0.780 -0.3185 -0.7931  0.7011
 7849SOL     OW24987   5.435   1.601  11.792 -0.6312  0.2251 -0.0822
 7849SOL    HW124988   5.480   1.669  11.841  1.7089 -0.2013 -1.4685
 7849SOL    HW224989   5.489   1.523  11.804 -1.2147 -0.4326 -1.5043
 7850SOL     OW24990   5.229   3.398   4.168 -0.6440  0.3187  0.9143
 7850SOL    HW124991   5.238   3.372   4.076  0.2683  0.9590  0.8107
 7850SOL    HW224992   5.142   3.437   4.174 -0.9572 -0.3119  0.4661
 7851SOL     OW24993   2.633   0.911   2.378  0.2153 -0.8075  0.6362
 7851SOL    HW124994   2.701   0.946   2.320  0.0900 -2.0310 -0.2988
 7851SOL    HW224995   2.679   0.848   2.433  0.3591  0.4502  2.0081
 7852SOL     OW24996   6.732   0.360   8.420  0.1701 -0.4947 -0.0820
 7852SOL    HW124997   6.702   0.440   8.378 -0.5388 -0.5197  0.3629
 7852SOL    HW224998   6.754   0.387   8.510 -0.8106 -0.9397  0.3031
 7853SOL     OW24999   3.887   1.383   8.824 -0.0014  0.1312 -0.1696
 7853SOL    HW125000   3.822   1.423   8.766  1.4976  0.0692 -1.9586
 7853SOL    HW225001   3.868   1.290   8.821  0.8744 -0.0227 -1.6534
 7854SOL     OW25002   6.527   0.123   6.041 -0.2206  0.0103  0.0440
 7854SOL    HW125003   6.548   0.048   6.097 -3.2800 -2.5714 -1.8574
 7854SOL    HW225004   6.475   0.085   5.970 -0.8410  3.8269 -1.7863
 7855SOL     OW25005   1.593   6.584  10.729 -0.1985 -0.0893 -0.3879
 7855SOL    HW125006   1.533   6.516  10.697  0.5476 -0.3813 -1.2277
 7855SOL    HW225007   1.557   6.611  10.813 -0.2876 -1.8255  0.1680
 7856SOL     OW25008   6.928   5.376   4.930  0.0913  0.0523 -0.2881
 7856SOL    HW125009   6.844   5.381   4.883  0.1183 -1.1145 -0.4724
 7856SOL    HW225010   6.994   5.394   4.863 -0.0097  1.3068 -0.0764
 7857SOL     OW25011   6.819   2.689  11.656  0.2451 -0.0378  0.8645
 7857SOL    HW125012   6.834   2.600  11.690  1.0527 -0.5982 -0.8297
 7857SOL    HW225013   6.875   2.745  11.710  0.0981 -0.6129  1.6371
 7858SOL     OW25014   5.485   0.600   8.127 -0.4303  0.1824  0.0645
 7858SOL    HW125015   5.504   0.550   8.047 -0.7096 -0.4772  0.4087
 7858SOL    HW225016   5.517   0.545   8.198 -0.9787  0.3756  0.4653
 7859SOL     OW25017   7.794   5.812   3.433 -0.9035 -0.0054  0.2432
 7859SOL    HW125018   7.740   5.834   3.509 -0.9419  0.7527  0.0097
 7859SOL    HW225019   7.882   5.843   3.456 -0.4168 -1.7360  0.8498
 7860SOL     OW25020   3.332   2.001   4.551 -0.0553 -0.3739 -0.2327
 7860SOL    HW125021   3.243   1.967   4.543  0.0229 -0.4498 -0.8183
 7860SOL    HW225022   3.353   1.993   4.644 -0.7773 -0.0624 -0.0375
 7861SOL     OW25023   7.554   2.686   8.429 -0.5549  0.2335  0.0634
 7861SOL    HW125024   7.570   2.673   8.522 -0.8214 -0.0800  0.0675
 7861SOL    HW225025   7.479   2.745   8.425 -0.6009  0.1753  0.0506
 7862SOL     OW25026   3.416   2.459   2.652  0.7222  0.4136 -0.0040
 7862SOL    HW125027   3.479   2.459   2.725 -0.2908  0.5692  0.8956
 7862SOL    HW225028   3.340   2.506   2.686 -0.1655 -0.3922 -0.8317
 7863SOL     OW25029   1.887   3.125   4.329  0.2682 -0.4647 -0.1556
 7863SOL    HW125030   1.799   3.103   4.357  0.5186 -0.0822  0.9738
 7863SOL    HW225031   1.935   3.042   4.334  0.2640 -0.4381  0.3817
 7864SOL     OW25032   7.911   0.741   8.105 -0.0994  0.6942  0.5734
 7864SOL    HW125033   7.974   0.708   8.041 -0.6531  0.4825  0.1281
 7864SOL    HW225034   7.943   0.709   8.189 -0.2128 -0.3340  0.2294
 7865SOL     OW25035   6.196   3.170   9.854 -0.5506 -0.4373 -0.2339
 7865SOL    HW125036   6.127   3.127   9.803 -0.2546  0.0382 -1.0474
 7865SOL    HW225037   6.239   3.228   9.792 -0.2710  0.2652  0.6019
 7866SOL     OW25038   3.907   0.432   5.433 -0.0874  0.5679 -0.4591
 7866SOL    HW125039   3.949   0.511   5.399 -2.9856  1.1458 -3.1795
 7866SOL    HW225040   3.923   0.365   5.366 -3.0037  0.7322 -1.4586
 7867SOL     OW25041   6.447   5.781   5.981 -0.1821 -0.0875  0.0794
 7867SOL    HW125042   6.457   5.686   5.987  0.9597  0.0477  0.6163
 7867SOL    HW225043   6.533   5.813   5.956 -0.1914  0.9119  1.2152
 7868SOL     OW25044   1.730   2.216   7.086  0.0016 -0.1929  0.1505
 7868SOL    HW125045   1.652   2.247   7.040  0.5519  0.3103 -0.4740
 7868SOL    HW225046   1.738   2.124   7.061 -1.2379 -0.6919  1.4366
 7869SOL     OW25047   6.875   6.355   7.196 -0.3098 -0.0269  0.5850
 7869SOL    HW125048   6.835   6.442   7.199 -0.5027 -0.0919 -0.0996
 7869SOL    HW225049   6.898   6.341   7.104  0.0260 -0.5641  0.7409
 7870SOL     OW25050   2.974   7.795   6.285 -0.7955  0.2345 -0.6604
 7870SOL    HW125051   2.887   7.755   6.290 -1.8172  2.1386 -1.9691
 7870SOL    HW225052   2.987   7.837   6.371 -0.0111 -2.1426  0.4628
 7871SOL     OW25053   1.642   2.853   0.938  0.0782  0.0297 -0.7285
 7871SOL    HW125054   1.584   2.873   0.863  0.6929  0.9898 -0.9639
 7871SOL    HW225055   1.730   2.872   0.906  0.3327  0.6494  0.3065
 7872SOL     OW25056   1.930   6.816   3.312 -0.1944 -0.0054  1.0037
 7872SOL    HW125057   2.023   6.820   3.335  0.3683 -1.1204 -0.7771
 7872SOL    HW225058   1.920   6.883   3.245 -1.0869  1.2153  2.3247
 7873SOL     OW25059   1.371   5.667  11.288  0.1847 -0.0025 -0.2527
 7873SOL    HW125060   1.423   5.629  11.358  1.7757 -0.0796 -1.4300
 7873SOL    HW225061   1.402   5.757  11.280 -0.4211  0.1972 -0.4472
 7874SOL     OW25062   7.917   0.179   0.987  0.5574 -0.1691  0.0730
 7874SOL    HW125063   7.890   0.212   1.072 -0.6677  1.8967 -1.0512
 7874SOL    HW225064   8.013   0.187   0.987  0.4492  1.2963  0.6773
 7875SOL     OW25065   6.816   6.109   8.375  0.2126  0.3300 -0.0253
 7875SOL    HW125066   6.796   6.111   8.469 -1.0967  0.3094 -0.2815
 7875SOL    HW225067   6.910   6.095   8.371  0.6853  2.5483  1.3154
 7876SOL     OW25068   1.189   6.179   1.423  0.1838 -0.3694 -0.3338
 7876SOL    HW125069   1.106   6.227   1.416  0.9431  1.0085 -0.3381
 7876SOL    HW225070   1.211   6.181   1.516 -0.3692 -1.8051 -0.1510
 7877SOL     OW25071   0.930   5.076  11.573 -0.1980  0.2819  0.0727
 7877SOL    HW125072   0.996   5.009  11.555 -1.6944 -1.0117 -0.9844
 7877SOL    HW225073   0.881   5.042  11.648 -1.5007 -0.3026 -0.9919
 7878SOL     OW25074   6.368   4.413   0.863 -0.9587  0.3738  0.3655
 7878SOL    HW125075   6.423   4.344   0.899  0.0327  1.6050  1.2637
 7878SOL    HW225076   6.297   4.423   0.927 -0.2084  1.2847  1.0807
 7879SOL     OW25077   1.892   3.582   7.528  0.4772  0.6138  0.4474
 7879SOL    HW125078   1.862   3.520   7.462 -1.2784  0.9489  0.8809
 7879SOL    HW225079   1.866   3.543   7.612  0.4478  1.3461  0.7923
 7880SOL     OW25080   0.332   0.500   8.286  0.5283 -0.0118  0.5709
 7880SOL    HW125081   0.313   0.480   8.194 -0.0129 -0.8469  0.8539
 7880SOL    HW225082   0.410   0.449   8.306 -0.1423 -0.9180  0.9470
 7881SOL     OW25083   7.287   1.644   4.087 -0.6026  0.3946 -0.0937
 7881SOL    HW125084   7.323   1.578   4.028  0.6098  0.7124  0.2599
 7881SOL    HW225085   7.317   1.618   4.174 -0.1124  1.3831  0.0514
 7882SOL     OW25086   5.181   6.912   4.424  0.3357  0.5842  0.5168
 7882SOL    HW125087   5.180   7.007   4.411 -1.1526  0.5276  0.0568
 7882SOL    HW225088   5.237   6.879   4.353 -0.2111  1.0177 -0.1270
 7883SOL     OW25089   6.891   2.304   1.554  0.5541  0.2022  0.0244
 7883SOL    HW125090   6.839   2.255   1.618 -0.1892  0.6535 -0.2170
 7883SOL    HW225091   6.979   2.309   1.592 -0.1034  1.3291  1.5046
 7884SOL     OW25092   5.109   1.175   2.281 -0.5518  0.0346 -0.3964
 7884SOL    HW125093   5.149   1.116   2.345 -2.2203  0.4414  1.0957
 7884SOL    HW225094   5.157   1.257   2.291  1.0398 -0.6806 -1.6978
 7885SOL     OW25095   2.043   3.773  10.200 -0.1485 -0.5251 -0.0241
 7885SOL    HW125096   2.127   3.744  10.164 -0.8858 -0.8866 -1.5029
 7885SOL    HW225097   1.980   3.755  10.131 -1.3568  0.3427  0.8267
 7886SOL     OW25098   4.603   3.269   4.685  0.4399  0.2046  0.2316
 7886SOL    HW125099   4.654   3.286   4.765 -1.3707  1.4671  1.1762
 7886SOL    HW225100   4.592   3.355   4.645 -0.4640 -0.1308 -0.2481
 7887SOL     OW25101   7.935   7.417  11.755 -0.2111 -0.6832  0.4583
 7887SOL    HW125102   7.966   7.330  11.780  1.1139 -0.9999 -2.0168
 7887SOL    HW225103   7.871   7.401  11.686 -1.0714  0.2810  1.0035
 7888SOL     OW25104   6.213   5.002   8.714  0.3747  0.2408  0.2825
 7888SOL    HW125105   6.169   5.003   8.629  0.7263  1.4048  0.1037
 7888SOL    HW225106   6.149   5.035   8.776 -0.4509 -2.1098  0.8098
 7889SOL     OW25107   0.093   2.102   5.023 -0.3279 -0.4306 -0.1126
 7889SOL    HW125108   0.020   2.046   4.995 -0.3768 -1.2645  1.5230
 7889SOL    HW225109   0.055   2.159   5.090  0.9448 -2.5791  2.6356
 7890SOL     OW25110   3.590   6.109   9.701 -0.3745  0.0601 -0.0763
 7890SOL    HW125111   3.559   6.170   9.768 -0.8205  1.3475 -1.3940
 7890SOL    HW225112   3.512   6.087   9.651  0.1386  0.0344 -0.8720
 7891SOL     OW25113   5.865   4.807   9.980 -0.0719  0.0460 -0.5461
 7891SOL    HW125114   5.953   4.784  10.012  0.5811  0.5274 -1.8976
 7891SOL    HW225115   5.877   4.892   9.939 -1.3724  0.5002 -0.0389
 7892SOL     OW25116   3.045   3.013   7.466  0.0416  0.7704  0.4639
 7892SOL    HW125117   3.029   2.996   7.373 -2.1953 -0.7079  1.0389
 7892SOL    HW225118   2.979   3.078   7.490 -1.9388 -1.5092  1.7243
 7893SOL     OW25119   2.326   1.569   9.487 -0.9220  0.0526 -0.4173
 7893SOL    HW125120   2.360   1.487   9.452  0.2684  0.4297 -0.1596
 7893SOL    HW225121   2.382   1.636   9.450 -0.8424  0.6159  0.6879
 7894SOL     OW25122   1.364   5.176   9.292  0.0862  0.0076 -0.1100
 7894SOL    HW125123   1.429   5.214   9.233 -1.4663  2.2013 -0.5695
 7894SOL    HW225124   1.413   5.152   9.370  1.9854 -1.7509 -1.7194
 7895SOL     OW25125   6.536   3.233   4.535  0.1149 -0.2676  0.2088
 7895SOL    HW125126   6.505   3.165   4.595  1.2316 -1.6527 -0.7208
 7895SOL    HW225127   6.608   3.192   4.487  0.9774  1.6534 -0.2454
 7896SOL     OW25128   3.203   6.983   4.824 -0.7497 -0.5218  0.2109
 7896SOL    HW125129   3.163   6.896   4.832  1.4958 -1.6774 -0.3143
 7896SOL    HW225130   3.261   6.991   4.899 -0.0412  0.0102 -0.3682
 7897SOL     OW25131   3.079   6.887   8.289 -0.2372 -0.1686 -0.2242
 7897SOL    HW125132   3.035   6.955   8.340 -0.3747  0.8119 -1.5946
 7897SOL    HW225133   3.024   6.875   8.211  2.5563  2.2203 -2.8038
 7898SOL     OW25134   6.882   3.569   0.586  0.2654  0.2861 -0.6343
 7898SOL    HW125135   6.930   3.579   0.668  0.1022 -1.8554 -0.2229
 7898SOL    HW225136   6.947   3.589   0.518  0.5148  1.6519 -0.0341
 7899SOL     OW25137   6.690   5.443  10.122  0.0447  0.2650  0.3743
 7899SOL    HW125138   6.702   5.490  10.039  0.3039 -0.6914 -0.1534
 7899SOL    HW225139   6.596   5.448  10.138 -0.1712 -0.4131 -0.5412
 7900SOL     OW25140   1.967   3.408  10.216  0.1022  0.0057  0.2927
 7900SOL    HW125141   2.045   3.356  10.235 -0.3326 -0.8091 -0.1313
 7900SOL    HW225142   1.990   3.457  10.137 -0.1680 -1.0230 -0.4455
 7901SOL     OW25143   3.553   5.619   4.318 -0.0824  0.3599 -0.4472
 7901SOL    HW125144   3.644   5.646   4.325 -0.6983  2.5705 -0.2089
 7901SOL    HW225145   3.526   5.603   4.409 -0.0263  0.0446 -0.4860
 7902SOL     OW25146   2.208   7.379   5.999 -0.2182 -0.3924 -0.0385
 7902SOL    HW125147   2.170   7.376   5.911 -1.1927  0.4126  0.3273
 7902SOL    HW225148   2.212   7.288   6.027 -0.5066 -0.6037 -0.6791
 7903SOL     OW25149   3.714   4.509   4.613 -0.2720  0.6875 -0.3708
 7903SOL    HW125150   3.797   4.477   4.649  0.7533  1.6581 -1.7770
 7903SOL    HW225151   3.652   4.501   4.686  1.0906  0.1280  0.7795
 7904SOL     OW25152   6.013   0.563   2.715  0.4642 -0.1428 -0.1098
 7904SOL    HW125153   6.058   0.478   2.716  2.2661  0.7341 -0.9785
 7904SOL    HW225154   6.003   0.586   2.807  1.9232 -0.3643  0.1363
 7905SOL     OW25155   7.047   4.782   2.933  0.0231  0.6939 -0.6718
 7905SOL    HW125156   7.132   4.765   2.892  0.4980  1.0936  0.1243
 7905SOL    HW225157   7.069   4.820   3.018 -0.7928 -2.4946  1.1624
 7906SOL     OW25158   4.586   6.855   6.128  0.1365  0.2480 -0.1716
 7906SOL    HW125159   4.509   6.835   6.074  1.0552 -0.8894 -1.1039
 7906SOL    HW225160   4.571   6.945   6.157 -1.8545 -0.1527  0.2281
 7907SOL     OW25161   1.879   0.692  10.599  0.2699  0.0275  0.3675
 7907SOL    HW125162   1.933   0.730  10.529 -0.7372 -0.9310 -1.0027
 7907SOL    HW225163   1.790   0.722  10.579 -0.0589 -0.4283  1.1162
 7908SOL     OW25164   3.831   2.486   5.428 -0.2166 -0.0460 -0.0845
 7908SOL    HW125165   3.795   2.574   5.414  0.5533  0.4487  0.8642
 7908SOL    HW225166   3.861   2.487   5.519 -1.1827 -1.6746  0.2872
 7909SOL     OW25167   4.258   0.961   9.760 -0.2792  0.1567 -0.2879
 7909SOL    HW125168   4.171   0.987   9.730 -1.1742  0.2599  2.1926
 7909SOL    HW225169   4.243   0.925   9.848  1.8996 -1.8933 -0.6625
 7910SOL     OW25170   7.940   0.471   3.887  0.2419 -0.0856  0.5404
 7910SOL    HW125171   7.979   0.556   3.908 -1.6411  0.5261  1.8207
 7910SOL    HW225172   7.942   0.423   3.970 -0.0518 -0.7431  0.1718
 7911SOL     OW25173   4.497   2.988   5.026  0.7905 -0.0847 -0.1178
 7911SOL    HW125174   4.568   2.983   5.091  0.4117  0.6848  0.3656
 7911SOL    HW225175   4.496   3.080   4.999  2.0888 -0.6984 -2.5421
 7912SOL     OW25176   1.012   3.810   1.746  0.7730  0.2154  0.2995
 7912SOL    HW125177   0.973   3.763   1.819 -0.8826 -2.0108 -1.8161
 7912SOL    HW225178   1.078   3.749   1.711  0.4851  0.5766 -0.9101
 7913SOL     OW25179   0.749   6.599   8.909  0.6298 -0.2720 -0.0188
 7913SOL    HW125180   0.818   6.532   8.911 -0.0553 -1.0040 -0.1214
 7913SOL    HW225181   0.696   6.581   8.987  1.4983  1.3532  1.0135
 7914SOL     OW25182   4.760   0.193   1.553  0.2650 -0.0202  0.1585
 7914SOL    HW125183   4.756   0.288   1.539 -2.4186  0.2756  2.1032
 7914SOL    HW225184   4.710   0.156   1.480  1.7209 -0.0267 -0.8703
 7915SOL     OW25185   3.996   4.983   6.228 -0.5768  0.3844 -0.2736
 7915SOL    HW125186   3.950   4.923   6.169  0.4401 -0.2491 -0.4449
 7915SOL    HW225187   3.960   5.069   6.207 -0.5135  0.1198 -1.5425
 7916SOL     OW25188   3.903   4.502   0.412 -0.6746 -0.0732 -0.2911
 7916SOL    HW125189   3.809   4.499   0.396 -0.4367 -0.9672 -1.6615
 7916SOL    HW225190   3.943   4.476   0.329  0.8085  0.7589  0.1133
 7917SOL     OW25191   1.814   7.115   9.591  0.3958 -0.6103  0.2348
 7917SOL    HW125192   1.887   7.082   9.538  0.5964  0.3592 -0.1198
 7917SOL    HW225193   1.853   7.185   9.643  0.0841 -1.2235  1.3153
 7918SOL     OW25194   1.965   5.748   3.363 -0.0252  0.0338  0.0034
 7918SOL    HW125195   2.015   5.781   3.288 -0.8408 -0.2568 -0.6813
 7918SOL    HW225196   1.891   5.702   3.324 -1.4054  1.3178  1.0093
 7919SOL     OW25197   5.439   1.315   0.914  0.5949 -0.1391  0.6421
 7919SOL    HW125198   5.374   1.358   0.860  0.6585  1.7202  1.9462
 7919SOL    HW225199   5.389   1.276   0.986  0.7558 -0.0798  0.7895
 7920SOL     OW25200   7.606   1.024   7.120  0.6353 -0.2089  0.0249
 7920SOL    HW125201   7.622   0.934   7.149 -0.7577 -0.1513  1.0734
 7920SOL    HW225202   7.656   1.078   7.181  0.5712 -0.2131  0.0795
 7921SOL     OW25203   2.949   7.872   0.540  0.3179  0.2107  0.1486
 7921SOL    HW125204   2.974   7.952   0.586 -0.4131  1.9087 -2.2614
 7921SOL    HW225205   3.015   7.862   0.472  0.0787 -0.9459  0.0728
 7922SOL     OW25206   7.486   4.783   7.247 -0.1790  0.7183  0.1375
 7922SOL    HW125207   7.503   4.788   7.153 -0.6721 -0.1721 -0.0067
 7922SOL    HW225208   7.561   4.827   7.287 -0.2933  1.7066 -0.6860
 7923SOL     OW25209   0.265   7.093  12.006  0.6115 -0.7151  0.1062
 7923SOL    HW125210   0.297   7.004  12.016  0.9286 -0.6932 -0.6663
 7923SOL    HW225211   0.320   7.145  12.065  0.3465 -1.0418  0.6464
 7924SOL     OW25212   0.363   1.094   8.282 -0.2451 -0.4872  0.0522
 7924SOL    HW125213   0.371   1.033   8.208 -0.1227  0.6344 -0.8850
 7924SOL    HW225214   0.330   1.174   8.243  1.9249  0.8697  0.7994
 7925SOL     OW25215   7.079   6.303   8.681  0.2629 -0.5721  0.1655
 7925SOL    HW125216   7.132   6.223   8.675  1.7532  0.1765  2.2885
 7925SOL    HW225217   7.096   6.349   8.598  3.1323 -0.3086  0.7775
 7926SOL     OW25218   6.883   2.830   8.093  0.1244  0.7373  0.6815
 7926SOL    HW125219   6.869   2.811   8.186  0.9684 -1.0482  0.4930
 7926SOL    HW225220   6.823   2.902   8.074  0.3742  1.5611  2.7399
 7927SOL     OW25221   5.264   6.859   9.841 -0.4203  0.6704 -0.5390
 7927SOL    HW125222   5.185   6.908   9.862 -0.3333  0.7134 -0.2991
 7927SOL    HW225223   5.253   6.775   9.885 -0.5219  0.5139 -0.8616
 7928SOL     OW25224   0.122   2.438   5.787 -0.2723  0.0475 -0.2926
 7928SOL    HW125225   0.068   2.441   5.708 -0.3641 -3.2601 -0.5182
 7928SOL    HW225226   0.079   2.372   5.842  1.3145  0.2882  1.3035
 7929SOL     OW25227   6.806   3.795   6.739 -0.0465  0.0126 -0.0821
 7929SOL    HW125228   6.808   3.740   6.660 -0.7836  1.2993 -1.0371
 7929SOL    HW225229   6.739   3.755   6.794  0.0682 -0.5712 -0.3542
 7930SOL     OW25230   4.085   1.220   1.662 -0.2388 -0.5138 -0.0929
 7930SOL    HW125231   4.043   1.159   1.602 -0.4126 -1.6563  1.1489
 7930SOL    HW225232   4.152   1.263   1.608 -2.7682  1.2388 -2.0729
 7931SOL     OW25233   3.777   5.965   0.311 -0.0255  0.5578 -0.2059
 7931SOL    HW125234   3.703   5.917   0.273  1.1534  0.2888 -2.3309
 7931SOL    HW225235   3.803   5.913   0.387 -0.2354 -0.9363 -1.1145
 7932SOL     OW25236   6.426   5.957  12.064  0.7308 -0.0789 -0.2455
 7932SOL    HW125237   6.348   6.012  12.064  0.2208 -0.7840  0.3383
 7932SOL    HW225238   6.420   5.908  11.982  0.4368 -0.2952 -0.0972
 7933SOL     OW25239   4.097   3.823   2.593 -0.0167  0.9089 -0.1864
 7933SOL    HW125240   4.170   3.772   2.559 -0.4686  0.3303 -0.3151
 7933SOL    HW225241   4.129   3.913   2.595  0.7629  0.6373 -0.0454
 7934SOL     OW25242   1.792   2.206   6.475  0.5797 -0.2624 -0.0968
 7934SOL    HW125243   1.797   2.130   6.533  1.9799 -0.7461 -0.8172
 7934SOL    HW225244   1.856   2.268   6.512  0.2694  0.1033 -0.1683
 7935SOL     OW25245   1.057   0.282  10.780  0.1635 -0.5034 -0.0314
 7935SOL    HW125246   0.971   0.240  10.768  0.0267 -0.0621 -0.6471
 7935SOL    HW225247   1.118   0.209  10.791 -0.3962 -0.8205  1.2499
 7936SOL     OW25248   6.786   1.776   5.401 -0.1836  0.7102 -0.3648
 7936SOL    HW125249   6.792   1.681   5.403  0.3521  0.7213 -1.2092
 7936SOL    HW225250   6.696   1.794   5.373 -1.2208  0.4962  2.4935
 7937SOL     OW25251   7.604   2.604   2.041 -0.4638 -0.0271  0.4609
 7937SOL    HW125252   7.597   2.698   2.059 -0.4818 -0.1135  0.9231
 7937SOL    HW225253   7.592   2.563   2.126  0.4116 -0.4110  0.4133
 7938SOL     OW25254   6.395   6.441   6.974 -0.0741  0.0200  0.0060
 7938SOL    HW125255   6.352   6.515   6.931 -0.5545  0.0717  0.5590
 7938SOL    HW225256   6.480   6.475   7.001  0.8058 -0.3795 -2.0353
 7939SOL     OW25257   2.156   3.008   2.578  0.6595  0.2719  0.3333
 7939SOL    HW125258   2.064   3.013   2.604  0.6005 -0.6562  0.3666
 7939SOL    HW225259   2.204   3.051   2.649  0.2385  0.8822  0.2452
 7940SOL     OW25260   4.698   4.114   0.909  0.1247 -0.1904  0.9396
 7940SOL    HW125261   4.781   4.156   0.929  0.5417  0.1510 -1.2751
 7940SOL    HW225262   4.715   4.020   0.919  1.3988 -0.2739 -1.2700
 7941SOL     OW25263   5.658   3.989   2.858 -0.0964 -0.0944 -0.2254
 7941SOL    HW125264   5.669   4.084   2.858  0.1740 -0.0726 -2.2331
 7941SOL    HW225265   5.596   3.972   2.929  0.9799  1.3958  1.1463
 7942SOL     OW25266   2.123   5.315   0.105 -0.0237 -0.2314 -0.0646
 7942SOL    HW125267   2.041   5.293   0.150  0.2558 -0.0366  0.5586
 7942SOL    HW225268   2.126   5.255   0.030 -1.6591  1.0093 -1.2107
 7943SOL     OW25269   6.229   3.090  11.692 -0.7164 -0.3815 -0.0339
 7943SOL    HW125270   6.216   3.125  11.780 -1.4020 -0.9443  0.1022
 7943SOL    HW225271   6.312   3.043  11.696 -0.6115 -0.1724  0.2351
 7944SOL     OW25272   1.308   0.812   7.941  0.2806  0.7795 -0.4853
 7944SOL    HW125273   1.366   0.824   7.866 -0.1046 -1.2471 -1.1857
 7944SOL    HW225274   1.344   0.736   7.987 -1.0062  0.3560 -0.1360
 7945SOL     OW25275   7.788   3.491   0.310  0.2359  0.5127  0.4401
 7945SOL    HW125276   7.698   3.471   0.283  0.8974 -1.2248 -0.5876
 7945SOL    HW225277   7.777   3.548   0.387 -1.7821 -2.0420  2.2140
 7946SOL     OW25278   1.158   0.184  11.787 -0.2838 -0.2847  0.4267
 7946SOL    HW125279   1.119   0.236  11.857 -0.7760 -1.8876  1.3899
 7946SOL    HW225280   1.100   0.108  11.778 -0.8804  0.3820 -2.5000
 7947SOL     OW25281   6.133   4.655   6.374  0.0972  0.0709 -0.4984
 7947SOL    HW125282   6.173   4.669   6.460 -0.7286 -1.6238  0.2279
 7947SOL    HW225283   6.083   4.735   6.357 -0.1627  0.2314  0.8782
 7948SOL     OW25284   4.408   2.106   5.501 -0.2636 -0.6104 -0.3134
 7948SOL    HW125285   4.437   2.016   5.485  0.3950 -0.3896 -0.4179
 7948SOL    HW225286   4.447   2.156   5.430 -0.1551 -0.1560  0.0640
 7949SOL     OW25287   2.510   3.821   5.301 -0.0353  0.2197  0.3111
 7949SOL    HW125288   2.502   3.831   5.206  1.4612 -0.5303  0.0646
 7949SOL    HW225289   2.563   3.895   5.329  0.6478 -0.2754  0.3485
 7950SOL     OW25290   5.869   1.290   6.970 -0.2314 -0.0065  0.2599
 7950SOL    HW125291   5.920   1.220   7.011 -0.8959 -1.7522 -1.7409
 7950SOL    HW225292   5.907   1.299   6.883 -0.3353  2.0029  0.3793
 7951SOL     OW25293   2.811   3.285   3.780  0.7816 -0.0732  0.4794
 7951SOL    HW125294   2.834   3.348   3.849  1.3690  0.7397 -0.4234
 7951SOL    HW225295   2.716   3.276   3.787  0.9224 -0.6534  1.9198
 7952SOL     OW25296   1.177   6.545   1.431 -0.1945 -0.0079 -0.0510
 7952SOL    HW125297   1.173   6.639   1.450  2.2884  0.2732 -0.4855
 7952SOL    HW225298   1.261   6.517   1.468 -0.2759 -1.7566 -1.0795
 7953SOL     OW25299   4.931   6.779   1.282  0.6303 -0.1782  0.9100
 7953SOL    HW125300   4.849   6.756   1.327  0.5802 -1.9461 -0.0025
 7953SOL    HW225301   4.911   6.860   1.236 -0.7808 -0.8432  0.3024
 7954SOL     OW25302   0.871   4.502   0.705 -0.6054 -0.4143  0.4874
 7954SOL    HW125303   0.886   4.563   0.777  0.9840 -0.4169  0.1947
 7954SOL    HW225304   0.786   4.527   0.669 -0.0952  1.4957  0.5199
 7955SOL     OW25305   6.526   1.682   3.896  0.2792  0.6614  0.2131
 7955SOL    HW125306   6.436   1.688   3.929  0.3854  1.6638  0.3327
 7955SOL    HW225307   6.538   1.762   3.846  0.7268 -0.0016 -0.7765
 7956SOL     OW25308   6.893   4.934  11.487 -0.2423 -0.6851 -0.4840
 7956SOL    HW125309   6.829   4.881  11.441 -1.7291 -0.7416  1.5430
 7956SOL    HW225310   6.868   5.025  11.467  0.7708 -0.6820 -1.9012
 7957SOL     OW25311   5.948   5.783  11.487  0.3258 -0.4705 -0.3083
 7957SOL    HW125312   5.942   5.784  11.583  0.4179  2.3104 -0.2504
 7957SOL    HW225313   5.874   5.729  11.459  0.2891 -1.3182  1.3245
 7958SOL     OW25314   1.269   7.675   5.263 -0.5516 -0.3224  0.1717
 7958SOL    HW125315   1.181   7.670   5.227 -0.9952  1.0479  0.9974
 7958SOL    HW225316   1.320   7.720   5.196 -0.3551 -1.4777 -0.4812
 7959SOL     OW25317   3.664   7.285   4.811  0.1407  0.3429  0.0276
 7959SOL    HW125318   3.703   7.224   4.748 -0.1752  0.6515 -0.4772
 7959SOL    HW225319   3.653   7.366   4.762  1.2720  1.0546  0.9142
 7960SOL     OW25320   5.774   4.185   9.251 -0.5679 -0.1977 -0.2551
 7960SOL    HW125321   5.837   4.188   9.179  1.8306 -1.7225  1.6176
 7960SOL    HW225322   5.817   4.231   9.323 -1.9127 -0.6424  0.8891
 7961SOL     OW25323   7.721   1.935   7.504  0.1887 -0.3700  0.3588
 7961SOL    HW125324   7.700   1.844   7.528  0.3692 -0.0516  1.8012
 7961SOL    HW225325   7.747   1.976   7.586 -0.9096  1.2823 -0.0653
 7962SOL     OW25326   4.161   2.336   8.682  0.3620 -0.1180  0.0938
 7962SOL    HW125327   4.178   2.260   8.738  1.7216 -0.3891 -0.6307
 7962SOL    HW225328   4.198   2.410   8.731  1.7658 -0.3884 -0.5048
 7963SOL     OW25329   6.855   2.486   0.599 -0.5232 -0.1002  0.5690
 7963SOL    HW125330   6.802   2.419   0.557  0.9661 -0.8112 -0.2591
 7963SOL    HW225331   6.792   2.543   0.643 -1.8628 -1.6700  0.7615
 7964SOL     OW25332   4.471   7.047   2.284  0.0727 -0.3768  0.3521
 7964SOL    HW125333   4.421   6.967   2.269 -2.5419  1.0643  0.8186
 7964SOL    HW225334   4.485   7.083   2.196 -2.1495  0.5327  0.3054
 7965SOL     OW25335   6.715   5.210   9.040  0.6042  0.1211 -0.8893
 7965SOL    HW125336   6.678   5.298   9.053 -1.1542 -0.6304 -0.5366
 7965SOL    HW225337   6.758   5.191   9.123 -0.7451 -0.1133 -0.2117
 7966SOL     OW25338   3.838   2.174   3.424  0.1478  0.2802  0.2384
 7966SOL    HW125339   3.910   2.224   3.461  1.5981 -2.0163  0.7024
 7966SOL    HW225340   3.770   2.176   3.492  0.2990  1.2750  0.3759
 7967SOL     OW25341   5.677   4.013   0.506 -0.2456  0.0044  0.1607
 7967SOL    HW125342   5.647   3.957   0.435  0.6172 -0.2605 -0.0082
 7967SOL    HW225343   5.772   4.007   0.503 -0.0646  2.1027 -0.3757
 7968SOL     OW25344   3.415   0.110   0.490  0.5443 -0.1646  0.3265
 7968SOL    HW125345   3.359   0.179   0.454 -1.4323 -0.9455  1.7336
 7968SOL    HW225346   3.389   0.103   0.582  0.0977 -3.2726  0.0582
 7969SOL     OW25347   0.964   3.060   6.326 -0.1885  0.2440 -0.7790
 7969SOL    HW125348   1.032   3.031   6.266 -1.1617 -3.3966 -0.3869
 7969SOL    HW225349   0.907   3.116   6.273  1.4669  0.9346 -1.8965
 7970SOL     OW25350   3.368   0.988  11.815 -0.3658 -1.0649  0.1002
 7970SOL    HW125351   3.381   0.973  11.909 -1.9387 -0.6621  0.4151
 7970SOL    HW225352   3.284   0.946  11.795 -1.3304  1.0232 -0.5440
 7971SOL     OW25353   3.355   7.608   1.946 -0.1782  0.8511 -0.2915
 7971SOL    HW125354   3.374   7.592   2.038  0.9089 -0.3355 -0.6804
 7971SOL    HW225355   3.292   7.680   1.946 -0.0074  1.0381  1.3544
 7972SOL     OW25356   0.120   7.800   0.302  0.3838 -0.3179  0.4424
 7972SOL    HW125357   0.056   7.866   0.274 -0.8423 -2.2934 -1.8392
 7972SOL    HW225358   0.068   7.734   0.348  0.8270 -1.5674 -0.7540
 7973SOL     OW25359   3.017   3.131  12.299  0.8083  0.1536 -0.7384
 7973SOL    HW125360   2.989   3.053  12.347 -1.6945  1.3219 -0.0860
 7973SOL    HW225361   3.078   3.099  12.233  0.9169 -2.1367  0.3803
 7974SOL     OW25362   0.893   1.906   4.731  0.0589  0.3846 -0.2037
 7974SOL    HW125363   0.862   1.964   4.662 -0.5033  1.5041  0.9319
 7974SOL    HW225364   0.813   1.873   4.772  0.3392  1.3749  1.2075
 7975SOL     OW25365   7.429   3.947  11.155  0.3302  0.0856  0.2565
 7975SOL    HW125366   7.434   4.020  11.094 -0.6754 -0.5838 -0.6715
 7975SOL    HW225367   7.520   3.924  11.172  0.6446  0.0606 -1.2971
 7976SOL     OW25368   0.184   3.677   2.322  0.1945  0.0006  0.2419
 7976SOL    HW125369   0.129   3.735   2.376 -1.9752 -0.3642 -1.4380
 7976SOL    HW225370   0.272   3.714   2.330 -0.0846  0.2783  3.5169
 7977SOL     OW25371   6.260   7.688   8.995  0.1697  0.2941 -0.4914
 7977SOL    HW125372   6.247   7.622   8.927 -0.7690 -1.4058  1.2414
 7977SOL    HW225373   6.220   7.767   8.960  1.4606  0.0562 -2.6951
 7978SOL     OW25374   2.426   4.027   2.801  0.1068  0.1888 -0.4440
 7978SOL    HW125375   2.425   4.113   2.843  2.9086  0.4608 -0.7100
 7978SOL    HW225376   2.494   3.978   2.848 -0.7529 -1.5425 -0.9352
 7979SOL     OW25377   0.452   3.757   4.318 -0.0276 -0.8558  0.3486
 7979SOL    HW125378   0.428   3.780   4.228 -1.0389  0.4607  0.9134
 7979SOL    HW225379   0.477   3.665   4.314  0.3730 -0.7077 -1.3522
 7980SOL     OW25380   7.377   5.853   2.392 -0.2179 -0.2204  0.3664
 7980SOL    HW125381   7.465   5.882   2.417  0.4479 -2.4825  0.8482
 7980SOL    HW225382   7.326   5.858   2.473  0.2675 -1.6278  0.7820
 7981SOL     OW25383   5.525   6.382   3.984 -0.4904 -0.1620  0.3534
 7981SOL    HW125384   5.592   6.313   3.984 -0.3819 -0.0688  1.2308
 7981SOL    HW225385   5.572   6.460   3.955 -0.7270 -0.5409 -1.1296
 7982SOL     OW25386   3.201   2.471   1.602  0.1765  0.2382 -0.5728
 7982SOL    HW125387   3.233   2.488   1.513  0.0490  0.3784 -0.5922
 7982SOL    HW225388   3.154   2.551   1.626 -0.3161 -0.0424 -0.6143
 7983SOL     OW25389   1.773   7.248  12.420 -0.0249  0.1902  0.2203
 7983SOL    HW125390   1.787   7.248  12.326  0.3720  1.1195  0.2679
 7983SOL    HW225391   1.757   7.340  12.442  2.4842  0.4358  1.4067
 7984SOL     OW25392   5.785   3.845   9.824  0.4537 -0.6452  0.1384
 7984SOL    HW125393   5.780   3.936   9.796  2.2046 -0.2963  0.8697
 7984SOL    HW225394   5.694   3.823   9.847  0.0129  0.9338  0.0534
 7985SOL     OW25395   3.157   5.612   7.954  0.0322 -0.4258  0.3750
 7985SOL    HW125396   3.232   5.554   7.970  0.2824 -0.1838  0.1032
 7985SOL    HW225397   3.196   5.689   7.912 -0.4551 -0.5619 -0.3320
 7986SOL     OW25398   2.667   5.149   9.304 -0.0551  0.4399 -0.0607
 7986SOL    HW125399   2.737   5.104   9.352 -0.3493 -0.9957 -0.9111
 7986SOL    HW225400   2.586   5.108   9.334 -0.4011  0.9349 -0.2989
 7987SOL     OW25401   3.826   1.314   0.366  0.1374  0.4792 -0.2604
 7987SOL    HW125402   3.862   1.401   0.348  1.7090 -0.3141 -1.1223
 7987SOL    HW225403   3.856   1.260   0.293  0.8686 -1.2656  1.2459
 7988SOL     OW25404   4.814   4.149   8.087 -0.2031  0.0267 -0.3299
 7988SOL    HW125405   4.742   4.096   8.121 -0.8453  1.2683  0.2910
 7988SOL    HW225406   4.892   4.111   8.127 -0.5997 -0.7175 -0.2328
 7989SOL     OW25407   4.040   3.666  11.269 -0.1274 -0.4176  0.4487
 7989SOL    HW125408   4.075   3.594  11.216  1.0374 -0.2577  0.9722
 7989SOL    HW225409   4.116   3.700  11.317 -0.4802  1.7257 -0.4163
 7990SOL     OW25410   3.658   0.459  12.284  0.1660 -0.2843  0.5017
 7990SOL    HW125411   3.610   0.376  12.290  0.0241 -0.4089 -1.6872
 7990SOL    HW225412   3.619   0.504  12.210  1.1535  1.1668  0.8196
 7991SOL     OW25413   2.950   3.265   6.770 -0.4927  0.2584  0.1030
 7991SOL    HW125414   2.909   3.348   6.747 -0.4736  0.0739 -0.6351
 7991SOL    HW225415   2.878   3.202   6.769 -0.3509  0.0988 -0.2914
 7992SOL     OW25416   4.222   0.136  11.147 -0.0710 -0.4020 -0.3029
 7992SOL    HW125417   4.294   0.102  11.201  1.5403 -0.0264 -2.0748
 7992SOL    HW225418   4.174   0.059  11.119 -0.8369 -0.6129  1.4829
 7993SOL     OW25419   3.354   4.999   3.506  0.0181 -0.0381  0.2035
 7993SOL    HW125420   3.396   4.921   3.469 -2.5885 -0.8892 -1.2423
 7993SOL    HW225421   3.350   4.982   3.600 -0.1533 -1.4904 -0.0399
 7994SOL     OW25422   3.031   3.719  12.047 -0.6260 -0.0921 -0.0329
 7994SOL    HW125423   2.991   3.761  11.971  0.3646  0.3232 -0.3413
 7994SOL    HW225424   2.975   3.643  12.065 -0.9263 -0.1394 -1.1195
 7995SOL     OW25425   7.306   6.034   1.946 -0.0024  0.0085 -0.1615
 7995SOL    HW125426   7.338   6.105   1.890 -1.0654  1.5075  1.0381
 7995SOL    HW225427   7.377   5.969   1.946  0.6927  0.7019 -1.8938
 7996SOL     OW25428   7.117   3.138  10.361 -0.0736 -0.2102 -0.3317
 7996SOL    HW125429   7.084   3.067  10.415 -0.9223  0.0938 -0.4250
 7996SOL    HW225430   7.165   3.095  10.290 -0.4207 -0.6794 -0.2852
 7997SOL     OW25431   5.327   3.174   1.496 -0.0819  0.4925 -0.1034
 7997SOL    HW125432   5.325   3.192   1.402  2.5080 -3.9871 -1.2907
 7997SOL    HW225433   5.237   3.152   1.519 -0.1162 -3.3396 -2.9548
 7998SOL     OW25434   1.767   1.088   8.230  0.4508 -0.2579  0.0160
 7998SOL    HW125435   1.721   1.077   8.147  1.3627 -0.3244 -0.4920
 7998SOL    HW225436   1.807   1.175   8.223  1.3735 -0.6842 -0.0428
 7999SOL     OW25437   1.603   7.064   8.372  0.2257 -0.4092  0.2714
 7999SOL    HW125438   1.617   6.970   8.359 -0.7926 -0.4421 -0.7676
 7999SOL    HW225439   1.667   7.106   8.315  0.6174 -0.4585  0.6653
 8000SOL     OW25440   2.277   0.625   7.233  0.2181 -0.4816 -0.0327
 8000SOL    HW125441   2.280   0.631   7.138  0.3390 -0.0319 -0.0023
 8000SOL    HW225442   2.331   0.549   7.254  1.3968  0.2758 -0.2385
 8001SOL     OW25443   5.529   7.281   1.750  0.8670  0.5768  0.0617
 8001SOL    HW125444   5.547   7.325   1.833  2.6432  0.9479 -0.4782
 8001SOL    HW225445   5.434   7.280   1.744  0.6803  0.3876  2.1665
 8002SOL     OW25446   0.093   4.650   0.149 -0.3601  0.0371  0.2809
 8002SOL    HW125447   0.052   4.734   0.168  0.9425  0.7681  0.0318
 8002SOL    HW225448   0.027   4.601   0.101 -0.1540  2.1493 -2.4659
 8003SOL     OW25449   0.689   6.580   8.567 -0.1397 -0.3830 -0.2304
 8003SOL    HW125450   0.721   6.657   8.615  0.7184 -0.6997 -0.2774
 8003SOL    HW225451   0.733   6.506   8.609  0.2168 -0.7128 -1.1613
 8004SOL     OW25452   4.997   4.534   9.775 -0.0175  0.2849  0.3448
 8004SOL    HW125453   4.997   4.462   9.838  1.3659 -2.5542 -2.6159
 8004SOL    HW225454   5.085   4.571   9.783 -0.7546  1.8445  1.9229
 8005SOL     OW25455   3.138   2.029   0.837  0.0285  0.2303  0.4013
 8005SOL    HW125456   3.151   2.050   0.929  0.2308  0.9308  0.2215
 8005SOL    HW225457   3.086   2.102   0.803  1.4537  0.9055 -0.4303
 8006SOL     OW25458   2.469   4.060   0.288  0.1100  0.5933 -0.2605
 8006SOL    HW125459   2.404   4.112   0.335 -0.2949  0.3638 -0.5635
 8006SOL    HW225460   2.530   4.124   0.252 -1.1815  0.9816 -1.8665
 8007SOL     OW25461   7.186   6.111   2.181  0.3271  0.2709 -0.7822
 8007SOL    HW125462   7.218   6.089   2.094 -1.5022  2.3040 -2.0652
 8007SOL    HW225463   7.232   6.192   2.204  0.7593 -0.2183  0.1620
 8008SOL     OW25464   1.772   5.609   3.169  0.1070 -0.0098 -0.2957
 8008SOL    HW125465   1.761   5.657   3.086 -1.3459 -2.0723 -1.3884
 8008SOL    HW225466   1.760   5.517   3.145  1.1370 -0.8036  1.9966
 8009SOL     OW25467   7.297   3.061   6.137 -0.3792 -0.3404 -0.1107
 8009SOL    HW125468   7.339   3.026   6.216 -1.7171 -0.2842  0.6755
 8009SOL    HW225469   7.223   3.001   6.121 -2.3244  1.6365  0.8775
 8010SOL     OW25470   2.908   0.955   7.345 -0.0004  0.0467  0.0482
 8010SOL    HW125471   2.904   0.988   7.435  1.5471 -0.4713  0.3407
 8010SOL    HW225472   2.939   1.030   7.294  1.8809 -0.4040  0.4427
 8011SOL     OW25473   3.673   1.093   0.378 -0.2516 -0.0071  0.2556
 8011SOL    HW125474   3.664   1.063   0.468 -1.0420  0.3530  0.3132
 8011SOL    HW225475   3.743   1.157   0.380  0.1045 -0.4019  0.5057
 8012SOL     OW25476   2.678   2.219  12.064  0.6095 -0.1635 -0.0150
 8012SOL    HW125477   2.642   2.286  12.122  0.5064  0.2639 -0.5646
 8012SOL    HW225478   2.770   2.212  12.090  0.6736  0.3429 -0.0938
 8013SOL     OW25479   0.745   1.398   6.994 -0.1746 -0.4936  0.1946
 8013SOL    HW125480   0.797   1.461   6.945 -0.1446 -0.1034  0.7165
 8013SOL    HW225481   0.809   1.338   7.033 -0.1608 -0.4453  0.2464
 8014SOL     OW25482   2.842   7.049   4.021  0.2160 -0.0332  0.1525
 8014SOL    HW125483   2.770   7.112   4.022 -0.6915 -0.9614  3.2019
 8014SOL    HW225484   2.799   6.964   4.029  1.6001 -0.7295  0.3515
 8015SOL     OW25485   0.308   7.978   1.233 -0.5464  0.4967  0.0642
 8015SOL    HW125486   0.277   7.936   1.313 -0.1212 -0.4461 -0.2603
 8015SOL    HW225487   0.401   7.995   1.249 -0.8414  1.9127  0.4357
 8016SOL     OW25488   7.970   1.966   2.515  0.2108 -0.0972  0.0533
 8016SOL    HW125489   8.052   1.967   2.464 -0.4311 -0.0200 -1.0138
 8016SOL    HW225490   7.961   2.057   2.545  0.4627 -0.0823  0.0923
 8017SOL     OW25491   7.831   1.995   6.052  0.0082  0.4071 -0.1706
 8017SOL    HW125492   7.796   2.051   6.122 -0.6897  0.0123 -0.1911
 8017SOL    HW225493   7.926   2.005   6.058  0.2010 -1.7855  2.7008
 8018SOL     OW25494   6.648   1.371  10.155  0.1311  0.2746 -0.4800
 8018SOL    HW125495   6.571   1.360  10.101 -0.3388  0.8219  0.0557
 8018SOL    HW225496   6.722   1.347  10.099 -0.4727 -0.8726 -0.7874
 8019SOL     OW25497   2.781   4.808   7.376  0.2452  0.0874 -0.5830
 8019SOL    HW125498   2.817   4.761   7.301  1.8562 -3.1754  1.9487
 8019SOL    HW225499   2.698   4.764   7.395 -1.0461  2.0451 -1.3737
 8020SOL     OW25500   1.893   2.854   2.792 -0.2986  0.5278  0.3261
 8020SOL    HW125501   1.898   2.913   2.716 -2.0544  0.3936  0.0657
 8020SOL    HW225502   1.973   2.872   2.842  1.0441  0.4007 -1.6904
 8021SOL     OW25503   2.110   3.866   4.754  0.0992  0.1394 -0.1226
 8021SOL    HW125504   2.025   3.907   4.740  0.2300 -0.2226 -2.4511
 8021SOL    HW225505   2.128   3.820   4.672  1.6461 -1.4709  1.0432
 8022SOL     OW25506   6.563   5.575   9.807  0.1823 -0.2441 -0.0903
 8022SOL    HW125507   6.553   5.580   9.712 -0.3685 -1.4717 -0.1192
 8022SOL    HW225508   6.495   5.634   9.841 -1.6659 -2.0364 -0.4487
 8023SOL     OW25509   2.884   5.611  10.632 -0.1848  0.3493 -0.3978
 8023SOL    HW125510   2.840   5.543  10.582 -2.2514  1.7195 -0.5663
 8023SOL    HW225511   2.950   5.646  10.573 -0.6508  0.0012 -1.1332
 8024SOL     OW25512   0.578   1.933   9.845 -0.1671  0.0578  0.2265
 8024SOL    HW125513   0.553   1.988   9.919  0.8136  0.1818  0.4736
 8024SOL    HW225514   0.524   1.966   9.772  0.5495  1.4992  0.3115
 8025SOL     OW25515   3.922   1.440   7.560  0.3107 -1.2922  0.2443
 8025SOL    HW125516   3.895   1.484   7.479 -0.9858 -2.5737 -0.0552
 8025SOL    HW225517   4.000   1.488   7.588 -0.2532  0.3121 -0.7925
 8026SOL     OW25518   5.221   7.160   4.322 -0.6741 -0.3457 -0.1898
 8026SOL    HW125519   5.156   7.219   4.283 -0.3446 -0.2401 -0.5927
 8026SOL    HW225520   5.300   7.173   4.269  0.3483  1.1011  1.5871
 8027SOL     OW25521   4.117   6.822   0.087  0.0951 -0.0420  0.0512
 8027SOL    HW125522   4.064   6.866   0.153  1.6011 -0.4042  1.5643
 8027SOL    HW225523   4.128   6.733   0.120 -0.3365 -0.6822 -1.4392
 8028SOL     OW25524   5.729   0.033  11.318  0.2797 -0.2894 -0.8618
 8028SOL    HW125525   5.736   0.053  11.224  1.9168  0.6165 -0.5712
 8028SOL    HW225526   5.677   0.105  11.354  1.5710  0.6049 -0.7245
 8029SOL     OW25527   1.800   3.688   3.198  0.3426 -0.0237  0.2485
 8029SOL    HW125528   1.776   3.608   3.152  0.5839  0.1285 -0.1434
 8029SOL    HW225529   1.717   3.734   3.211  0.1284 -0.6026  0.9884
 8030SOL     OW25530   5.874   4.650  10.841 -0.5216  0.0427 -0.1879
 8030SOL    HW125531   5.942   4.707  10.805 -0.1180 -1.3206 -1.7137
 8030SOL    HW225532   5.904   4.630  10.930 -0.1387  1.3122 -0.0081
 8031SOL     OW25533   2.503   4.511   5.157 -0.0763  0.2184 -0.5611
 8031SOL    HW125534   2.598   4.512   5.163 -0.1500  1.5250  2.3653
 8031SOL    HW225535   2.484   4.480   5.069  2.9828 -2.1524 -0.5405
 8032SOL     OW25536   0.842   2.512   9.521  0.1702  0.2209  0.3059
 8032SOL    HW125537   0.933   2.524   9.551 -0.4502  0.8491  2.0734
 8032SOL    HW225538   0.810   2.438   9.573 -0.5784  0.5307  0.2931
 8033SOL     OW25539   1.024   6.631   9.181 -0.5396  0.0728  0.1448
 8033SOL    HW125540   0.966   6.602   9.251  0.1136  0.5631  0.9102
 8033SOL    HW225541   1.051   6.719   9.208  1.5180 -0.5980  0.4446
 8034SOL     OW25542   3.974   7.961   1.174  0.6225 -0.4241 -0.7526
 8034SOL    HW125543   4.019   7.999   1.249 -0.6217  1.3495 -0.8410
 8034SOL    HW225544   3.985   8.025   1.104 -2.6696  0.5645 -0.5364
 8035SOL     OW25545   2.431   7.827   4.593 -0.1999  0.2876 -0.0180
 8035SOL    HW125546   2.396   7.739   4.578 -1.5086  0.7865 -0.0048
 8035SOL    HW225547   2.470   7.852   4.510  0.3616 -0.3674  0.0325
 8036SOL     OW25548   1.384   4.707   2.662 -0.2499  0.3660  0.1759
 8036SOL    HW125549   1.422   4.733   2.579  0.5187  0.8854  0.6729
 8036SOL    HW225550   1.301   4.754   2.667 -0.0755  0.7052 -0.0899
 8037SOL     OW25551   6.595   2.732   0.913 -0.1420  0.0706 -0.5618
 8037SOL    HW125552   6.518   2.780   0.944  1.8945  2.6116  0.9426
 8037SOL    HW225553   6.620   2.776   0.832 -0.3250 -0.8604 -1.1407
 8038SOL     OW25554   5.778   5.479   3.845  0.5334 -0.7993 -0.7080
 8038SOL    HW125555   5.717   5.441   3.782  0.5132 -0.1891 -1.0592
 8038SOL    HW225556   5.857   5.497   3.793 -0.0976  1.3712 -0.9836
 8039SOL     OW25557   0.048   5.060   6.353 -0.2978  0.6822 -0.4338
 8039SOL    HW125558   0.060   5.124   6.282 -1.4984  1.9048  0.3964
 8039SOL    HW225559  -0.047   5.052   6.362 -0.1796  0.5890  1.0380
 8040SOL     OW25560   7.371   1.780   5.473  0.4157  0.3279 -0.4158
 8040SOL    HW125561   7.445   1.840   5.468  2.2484 -1.8671 -1.4992
 8040SOL    HW225562   7.388   1.726   5.550 -0.6281  0.4621 -0.0703
 8041SOL     OW25563   6.622   6.130  12.104  0.0045 -0.4348 -0.4529
 8041SOL    HW125564   6.660   6.155  12.019  0.8732 -0.5966 -0.1203
 8041SOL    HW225565   6.549   6.072  12.081 -0.6195  0.5851 -1.1411
 8042SOL     OW25566   2.334   1.833   7.181  0.3562 -0.3591  0.4776
 8042SOL    HW125567   2.366   1.755   7.227 -1.6238 -1.4442  0.1398
 8042SOL    HW225568   2.333   1.807   7.089  0.9856  0.5720  0.1984
 8043SOL     OW25569   1.919   1.700   6.945  0.2608 -0.4668  0.7123
 8043SOL    HW125570   1.935   1.621   6.893  1.1168 -0.9791  1.7122
 8043SOL    HW225571   1.966   1.769   6.899  2.1872 -1.1799  1.4863
 8044SOL     OW25572   3.299   5.568   9.946  0.2680 -0.0025  0.3505
 8044SOL    HW125573   3.275   5.631   9.878 -1.2622 -0.6783  0.2346
 8044SOL    HW225574   3.395   5.566   9.944  0.2764  0.7234 -1.1057
 8045SOL     OW25575   5.529   4.140   4.983 -0.1867 -0.1625 -0.0332
 8045SOL    HW125576   5.566   4.228   4.984  0.7214 -0.5333 -0.4336
 8045SOL    HW225577   5.583   4.091   5.045 -0.6470 -0.4630  0.1384
 8046SOL     OW25578   5.122   1.826   0.772 -0.4154 -0.1913 -0.5182
 8046SOL    HW125579   5.185   1.866   0.832 -1.4592  0.3728  0.2204
 8046SOL    HW225580   5.096   1.897   0.713 -1.0905 -0.1793 -0.2056
 8047SOL     OW25581   6.293   6.203  10.915  0.3729  0.5255 -0.3101
 8047SOL    HW125582   6.232   6.170  10.850  2.1629 -0.8825 -1.3468
 8047SOL    HW225583   6.241   6.207  10.996 -0.6261 -2.5245 -0.6730
 8048SOL     OW25584   3.893   6.265   3.939  0.9724 -0.1023 -0.3841
 8048SOL    HW125585   3.878   6.349   3.894  2.5896  1.3297  1.5204
 8048SOL    HW225586   3.943   6.213   3.877  1.0909  0.8786 -1.1336
 8049SOL     OW25587   6.511   1.001   0.636  0.1049  0.3127  0.3787
 8049SOL    HW125588   6.446   1.014   0.567  1.4685  0.5353 -0.9145
 8049SOL    HW225589   6.524   0.906   0.640  1.6436  0.3989 -1.3001
 8050SOL     OW25590   3.541   5.531   2.207  0.5509  0.2379 -0.4640
 8050SOL    HW125591   3.601   5.605   2.201  2.3796 -1.0383  0.9359
 8050SOL    HW225592   3.467   5.563   2.257  1.3030  1.1251  0.1011
 8051SOL     OW25593   2.323   3.500   8.942 -0.0749  0.5770  0.1558
 8051SOL    HW125594   2.325   3.545   9.026  2.2321  0.7217  0.1049
 8051SOL    HW225595   2.383   3.426   8.954 -1.5074 -0.7694 -0.6749
 8052SOL     OW25596   0.172   5.307   8.361  0.0027  0.4730 -0.5842
 8052SOL    HW125597   0.267   5.295   8.356  0.0372  0.3266  0.3225
 8052SOL    HW225598   0.154   5.320   8.454 -0.8570  0.6114 -0.7623
 8053SOL     OW25599   7.695   2.753   8.691  0.0199  0.6289 -0.1688
 8053SOL    HW125600   7.770   2.806   8.717  1.6040 -0.7202 -1.6580
 8053SOL    HW225601   7.717   2.664   8.720  0.4617 -0.3499 -3.1544
 8054SOL     OW25602   7.901   2.673   3.933 -0.6440 -0.2120 -1.1921
 8054SOL    HW125603   7.894   2.769   3.941  0.5247 -0.2093  0.3950
 8054SOL    HW225604   7.810   2.642   3.938 -0.9125  0.7142  0.7036
 8055SOL     OW25605   6.526   6.496  12.434 -0.3510  0.0994 -0.6406
 8055SOL    HW125606   6.513   6.434  12.362  0.9086  0.8647 -1.5749
 8055SOL    HW225607   6.437   6.520  12.460 -0.8447 -0.4713 -1.7026
 8056SOL     OW25608   3.890   3.556   5.302  0.2647  0.0254  0.6841
 8056SOL    HW125609   3.919   3.611   5.229  1.1291 -0.5241  0.5968
 8056SOL    HW225610   3.871   3.618   5.372 -0.7276  0.5757 -0.0392
 8057SOL     OW25611   4.901   7.747   7.306  0.1036  0.1197 -0.4416
 8057SOL    HW125612   4.867   7.836   7.295 -3.8625 -0.8990  1.7641
 8057SOL    HW225613   4.915   7.738   7.400  2.3627 -1.0913 -0.8102
 8058SOL     OW25614   0.563   7.432   6.792 -0.0387 -0.5674  0.0587
 8058SOL    HW125615   0.519   7.507   6.752  2.4072  0.4357 -0.9737
 8058SOL    HW225616   0.492   7.374   6.819 -1.9618  1.1210 -1.0754
 8059SOL     OW25617   2.999   7.044   2.916  0.4816  0.3113 -0.0080
 8059SOL    HW125618   2.998   6.950   2.932  2.4574  0.1303 -0.7200
 8059SOL    HW225619   2.975   7.054   2.824  1.2169  0.4215 -0.1929
 8060SOL     OW25620   7.399   6.451  11.720  0.0087 -0.4011  0.1361
 8060SOL    HW125621   7.318   6.419  11.761  0.0524 -1.7489 -0.7709
 8060SOL    HW225622   7.402   6.407  11.635  0.3886  1.6120 -0.9664
 8061SOL     OW25623   4.946   0.896   0.797 -0.4886 -0.0020 -0.4296
 8061SOL    HW125624   4.888   0.972   0.804 -1.3725 -0.7829  1.8145
 8061SOL    HW225625   5.023   0.920   0.848 -0.8704 -0.6550  0.4843
 8062SOL     OW25626   3.992   7.692   1.055 -0.2803  0.0959  0.6182
 8062SOL    HW125627   3.984   7.780   1.091  0.8746  0.7446 -0.6027
 8062SOL    HW225628   3.980   7.703   0.961  0.0104 -1.0346  0.4287
 8063SOL     OW25629   0.621   0.552   9.586  0.0328 -0.4607 -0.3472
 8063SOL    HW125630   0.607   0.538   9.680 -1.5811  2.0583 -0.1167
 8063SOL    HW225631   0.668   0.635   9.582 -0.6235 -0.1337 -1.7960
 8064SOL     OW25632   7.050   5.035   4.933 -0.5203 -0.0975 -0.1405
 8064SOL    HW125633   7.014   5.095   4.997 -0.0167 -0.6045  0.6339
 8064SOL    HW225634   6.990   5.039   4.859 -2.4708 -1.3123  1.3031
 8065SOL     OW25635   1.940   6.716  10.321  0.1866  0.1052 -0.4526
 8065SOL    HW125636   2.021   6.667  10.313  0.4682  0.5226 -0.2383
 8065SOL    HW225637   1.910   6.700  10.410  0.8128  1.1062 -0.0399
 8066SOL     OW25638   3.587   6.983   1.448  0.4943  0.1710 -0.1499
 8066SOL    HW125639   3.516   6.952   1.391 -0.8325 -2.4408  2.6335
 8066SOL    HW225640   3.651   6.913   1.447  0.0959 -0.2920  2.0133
 8067SOL     OW25641   4.757   3.567  12.410 -0.3159 -0.1348 -0.3953
 8067SOL    HW125642   4.831   3.596  12.357 -0.5430  1.1638 -0.0277
 8067SOL    HW225643   4.680   3.600  12.363 -0.5343  0.7665  0.5603
 8068SOL     OW25644   2.529   4.522   7.297  0.5509  0.8629 -1.0568
 8068SOL    HW125645   2.495   4.561   7.377  1.1426 -1.4479  0.4139
 8068SOL    HW225646   2.624   4.523   7.308  0.5885 -2.2047 -0.2239
 8069SOL     OW25647   7.175   4.293   9.947  0.2093 -0.4430  0.0810
 8069SOL    HW125648   7.141   4.381   9.961  1.0690 -0.4503  2.6026
 8069SOL    HW225649   7.121   4.257   9.876  0.2998  2.3199 -1.5077
 8070SOL     OW25650   6.199   4.137   7.123  0.6295  1.0711 -0.0308
 8070SOL    HW125651   6.136   4.103   7.186  0.8104 -1.3538 -1.0282
 8070SOL    HW225652   6.284   4.125   7.167  0.7161 -0.1509 -0.4879
 8071SOL     OW25653   1.153   1.597   2.205 -0.1442 -0.0819  0.4435
 8071SOL    HW125654   1.137   1.528   2.140  1.6822  0.1658 -0.3151
 8071SOL    HW225655   1.086   1.662   2.187  1.5128  0.9607 -2.6607
 8072SOL     OW25656   5.628   7.658   8.532  0.5667  0.1318  0.1076
 8072SOL    HW125657   5.547   7.707   8.518  0.8599  0.4431 -0.5270
 8072SOL    HW225658   5.662   7.690   8.615 -0.6083 -0.9156  1.0331
 8073SOL     OW25659   3.003   3.251   6.416  0.2023 -0.1054 -0.0358
 8073SOL    HW125660   2.945   3.266   6.341  1.5324  0.3826 -1.0151
 8073SOL    HW225661   2.986   3.161   6.442  1.3529 -1.1077 -2.4412
 8074SOL     OW25662   6.151   0.443   1.039  0.0757  0.0487 -0.0860
 8074SOL    HW125663   6.160   0.537   1.024 -2.0368  0.2995 -0.1737
 8074SOL    HW225664   6.229   0.405   1.001  0.0501  1.6082 -1.8619
 8075SOL     OW25665   0.015   7.225   4.553 -0.0395  0.1852 -0.4794
 8075SOL    HW125666   0.012   7.167   4.477 -1.5635  0.1242 -0.4014
 8075SOL    HW225667  -0.063   7.203   4.603 -0.0456  1.5216  0.1412
 8076SOL     OW25668   2.031   0.166   0.247  0.0994 -0.3047  0.6338
 8076SOL    HW125669   2.041   0.153   0.153  1.6503 -3.1538  1.0763
 8076SOL    HW225670   2.117   0.199   0.275 -0.9773  2.5888  0.8725
 8077SOL     OW25671   3.034   6.804   6.568  0.6983  1.3184  0.4645
 8077SOL    HW125672   3.084   6.882   6.542  0.2590  1.6686  0.6635
 8077SOL    HW225673   3.066   6.735   6.510  0.2740  1.9178 -0.5064
 8078SOL     OW25674   7.306   6.673   7.851  0.2919  0.2092 -0.2855
 8078SOL    HW125675   7.359   6.697   7.927 -0.6744 -0.4840  0.6174
 8078SOL    HW225676   7.257   6.596   7.878 -0.1249 -0.0154 -1.5935
 8079SOL     OW25677   5.000   7.710   2.444  0.0049 -0.1296  0.2123
 8079SOL    HW125678   4.950   7.681   2.369  1.3189  0.2640 -0.8646
 8079SOL    HW225679   5.091   7.685   2.424  0.3989  0.0581  1.6240
 8080SOL     OW25680   1.094   6.967   2.828 -0.4114 -0.5756  0.1508
 8080SOL    HW125681   1.064   7.057   2.837  0.5429 -0.3461  1.3101
 8080SOL    HW225682   1.014   6.914   2.826 -0.9450  0.1770  0.9895
 8081SOL     OW25683   4.662   4.671   3.116 -0.2455 -0.2094  0.3879
 8081SOL    HW125684   4.684   4.753   3.072  0.7056 -0.5915  0.1105
 8081SOL    HW225685   4.747   4.629   3.131 -0.6611 -0.7471  1.3075
 8082SOL     OW25686   5.057   1.628   0.928 -0.1084  0.2561 -0.1271
 8082SOL    HW125687   5.095   1.705   0.884  0.4852 -0.7510 -1.4495
 8082SOL    HW225688   4.979   1.607   0.877 -0.3783  0.0831  0.3474
 8083SOL     OW25689   6.131   2.056   8.193  0.4409 -0.0214  0.2993
 8083SOL    HW125690   6.211   2.007   8.176 -0.0074 -0.6744  0.0306
 8083SOL    HW225691   6.063   2.009   8.144  0.2864  1.8495 -1.3782
 8084SOL     OW25692   6.757   1.856   2.596  0.4943 -0.2346 -0.1024
 8084SOL    HW125693   6.800   1.822   2.518 -0.7925  0.5154 -1.1747
 8084SOL    HW225694   6.679   1.901   2.563  0.3198  0.7450  1.5565
 8085SOL     OW25695   6.815   6.178   1.741  0.4291  0.0211  0.2126
 8085SOL    HW125696   6.827   6.265   1.704 -0.2760  0.6642  1.4285
 8085SOL    HW225697   6.904   6.143   1.749  0.6052 -0.3477 -2.4208
 8086SOL     OW25698   5.849   0.720   6.323 -0.8392 -0.0899  0.2920
 8086SOL    HW125699   5.788   0.652   6.294 -0.3927  0.4892 -2.1929
 8086SOL    HW225700   5.792   0.791   6.354 -1.4082 -0.1637 -0.5442
 8087SOL     OW25701   0.144   4.786   2.542 -0.0098  0.1045  0.1720
 8087SOL    HW125702   0.224   4.776   2.491  0.4391 -0.8523  1.0346
 8087SOL    HW225703   0.089   4.712   2.518  0.3760 -0.5890  1.3500
 8088SOL     OW25704   7.861   0.235   1.270  0.4590 -0.2407  0.8335
 8088SOL    HW125705   7.896   0.316   1.307 -0.8583 -0.0291  1.6685
 8088SOL    HW225706   7.908   0.166   1.317  0.1933  0.0433  1.5341
 8089SOL     OW25707   6.527   1.081  11.400  0.1358 -0.0816 -0.2778
 8089SOL    HW125708   6.474   1.010  11.364  0.1817  0.1959 -0.9043
 8089SOL    HW225709   6.469   1.157  11.401  0.4801  0.1934 -0.8552
 8090SOL     OW25710   6.447   7.734   6.059  0.4236 -0.5439  0.4499
 8090SOL    HW125711   6.419   7.663   6.001 -1.9418  1.2300 -0.7730
 8090SOL    HW225712   6.366   7.766   6.099  1.1972  2.0789  0.1541
 8091SOL     OW25713   3.396   7.257   1.235  0.1676 -0.6299  0.5782
 8091SOL    HW125714   3.362   7.295   1.315 -0.3034 -0.3990  0.2713
 8091SOL    HW225715   3.476   7.307   1.216 -0.4159  0.1893  0.2055
 8092SOL     OW25716   5.959   5.921   5.368 -0.1464  0.2708 -0.2562
 8092SOL    HW125717   5.920   5.834   5.357 -0.0598  0.2757 -0.5957
 8092SOL    HW225718   5.924   5.972   5.295  0.2092  0.3793 -0.3512
 8093SOL     OW25719   6.961   4.741   3.791  0.0759 -0.0286  0.7261
 8093SOL    HW125720   7.031   4.806   3.797 -1.1320  1.3736  0.1992
 8093SOL    HW225721   6.996   4.664   3.836  2.2896  0.3186 -0.2572
 8094SOL     OW25722   1.445   5.435   3.333  0.0946 -0.6665 -0.1761
 8094SOL    HW125723   1.362   5.463   3.371 -0.0951  1.1681 -1.8283
 8094SOL    HW225724   1.510   5.457   3.399 -0.4033  0.8965 -0.1808
 8095SOL     OW25725   5.147   6.364   9.553 -0.1886  0.6012 -0.2950
 8095SOL    HW125726   5.088   6.406   9.491 -0.0342  0.4553 -0.5434
 8095SOL    HW225727   5.163   6.277   9.515 -0.4840  0.3304  0.1993
 8096SOL     OW25728   4.343   4.529   3.674  0.7801  0.1486 -0.0128
 8096SOL    HW125729   4.262   4.502   3.719 -0.3422  1.1735 -1.3419
 8096SOL    HW225730   4.405   4.547   3.745 -0.6254  0.8045  1.0900
 8097SOL     OW25731   0.607   2.127  12.260  0.9897 -0.1481  0.2992
 8097SOL    HW125732   0.557   2.149  12.338  0.8686  0.4455  0.0583
 8097SOL    HW225733   0.677   2.192  12.255  1.2176 -0.4028  0.1167
 8098SOL     OW25734   0.845   2.193   9.020 -0.3316 -0.7903  0.1595
 8098SOL    HW125735   0.899   2.244   9.081 -1.0879 -1.3885  1.3689
 8098SOL    HW225736   0.856   2.103   9.048 -0.2795 -1.1411 -0.9515
 8099SOL     OW25737   1.856   4.634   1.084  0.1680  0.3433 -0.4614
 8099SOL    HW125738   1.895   4.604   1.166 -3.2252  0.0882  1.2329
 8099SOL    HW225739   1.923   4.618   1.018  2.6340 -0.5025  2.0709
 8100SOL     OW25740   3.143   0.621  10.816  0.3429  0.4316  0.5139
 8100SOL    HW125741   3.181   0.640  10.730 -0.8144  1.5661  0.2194
 8100SOL    HW225742   3.049   0.618  10.799  0.0917  0.8284  1.7750
 8101SOL     OW25743   4.585   1.510  12.191 -0.3452  0.4689  0.1218
 8101SOL    HW125744   4.636   1.464  12.258 -1.7984 -1.6554 -0.1099
 8101SOL    HW225745   4.541   1.580  12.239  0.3900  0.3998  0.9242
 8102SOL     OW25746   6.251   7.384   4.802  0.1551  0.0936 -1.3807
 8102SOL    HW125747   6.305   7.453   4.765  0.9551 -0.0781 -0.5741
 8102SOL    HW225748   6.257   7.397   4.897 -0.2462 -0.6511 -1.2451
 8103SOL     OW25749   6.361   6.465   4.450 -0.0083 -0.9460  0.2207
 8103SOL    HW125750   6.408   6.387   4.480  0.4075 -1.6592 -2.0977
 8103SOL    HW225751   6.316   6.437   4.371  0.6881  1.2954 -1.0763
 8104SOL     OW25752   7.816   4.388   2.246 -0.0539 -0.5474 -0.5785
 8104SOL    HW125753   7.830   4.310   2.194 -1.7045  0.3038 -2.4482
 8104SOL    HW225754   7.722   4.386   2.267 -0.5492  1.7059 -2.1562
 8105SOL     OW25755   3.705   7.506   5.285 -0.5157 -0.0668 -0.4152
 8105SOL    HW125756   3.646   7.575   5.253  0.5859  1.0583 -0.1114
 8105SOL    HW225757   3.657   7.466   5.357 -1.2206  0.3133 -0.6550
 8106SOL     OW25758   4.393   0.088   4.579  0.1949 -0.3024  0.5822
 8106SOL    HW125759   4.449   0.113   4.505  0.9506 -0.7494  0.9925
 8106SOL    HW225760   4.365   0.171   4.616 -0.1432 -0.0734 -0.1727
 8107SOL     OW25761   7.039   2.761   4.535  0.0231 -0.4729  0.3701
 8107SOL    HW125762   7.128   2.789   4.554  0.5716 -2.5236  1.0907
 8107SOL    HW225763   7.040   2.734   4.443  0.5374 -1.7565  0.7308
 8108SOL     OW25764   3.457   2.445   3.794  0.2025  0.3245  0.2396
 8108SOL    HW125765   3.493   2.481   3.713  2.0873 -1.1361  0.3829
 8108SOL    HW225766   3.530   2.445   3.856 -0.1341 -2.1257  0.7462
 8109SOL     OW25767   4.209   6.803  11.155 -0.4761  0.1463  0.3445
 8109SOL    HW125768   4.249   6.815  11.069 -0.2905  0.9546  0.5346
 8109SOL    HW225769   4.274   6.753  11.205  0.3669  1.5103  0.6731
 8110SOL     OW25770   5.977   4.423  11.264 -0.0057 -0.0140  0.3801
 8110SOL    HW125771   5.885   4.397  11.260 -0.6953  1.5330  3.1426
 8110SOL    HW225772   6.024   4.340  11.275 -1.3527 -0.6987  1.4493
 8111SOL     OW25773   5.111   2.919   1.208 -0.3825  0.7898 -0.0316
 8111SOL    HW125774   5.120   2.836   1.161 -1.6439  0.3688  0.4277
 8111SOL    HW225775   5.152   2.903   1.293  1.0890  1.2654 -0.6268
 8112SOL     OW25776   2.146   6.693   5.509  0.3261  0.3171  0.0412
 8112SOL    HW125777   2.178   6.640   5.435  0.5540  1.2079 -0.5084
 8112SOL    HW225778   2.056   6.715   5.486  0.3547  0.4865  0.0922
 8113SOL     OW25779   1.924   6.779   7.337  0.1452  0.4583 -0.3610
 8113SOL    HW125780   1.872   6.809   7.263  0.4944  0.4232 -0.6188
 8113SOL    HW225781   1.962   6.859   7.373  2.0714  0.2291 -1.7880
 8114SOL     OW25782   6.017   6.647   8.690  0.1202  0.5447  0.4253
 8114SOL    HW125783   5.969   6.661   8.609 -0.7823 -0.1223  0.8235
 8114SOL    HW225784   6.108   6.635   8.663 -0.5310 -2.4311 -0.8158
 8115SOL     OW25785   3.942   7.768   1.597  0.1871  0.1800 -0.4052
 8115SOL    HW125786   3.956   7.690   1.543  1.1471  0.3986 -0.4793
 8115SOL    HW225787   4.029   7.794   1.626 -0.0243  1.7594 -1.1135
 8116SOL     OW25788   5.478   0.347   0.749 -0.4689 -0.5264 -0.5550
 8116SOL    HW125789   5.449   0.357   0.659 -1.0083  0.7093 -0.2688
 8116SOL    HW225790   5.557   0.294   0.743 -0.2368 -0.0807 -1.8024
 8117SOL     OW25791   7.152   3.897   9.134  0.0856 -0.0614  0.6947
 8117SOL    HW125792   7.234   3.858   9.164  0.4509 -0.1045 -0.3044
 8117SOL    HW225793   7.084   3.850   9.182  0.5589 -1.3878  0.1127
 8118SOL     OW25794   7.322   7.924   7.056  0.1926 -0.1510 -0.4593
 8118SOL    HW125795   7.347   7.849   7.111  0.3335  0.9272  1.0188
 8118SOL    HW225796   7.256   7.971   7.108  1.1194  1.4997 -0.6968
 8119SOL     OW25797   4.554   3.380   7.085 -0.0537  0.1940 -0.3828
 8119SOL    HW125798   4.532   3.348   7.173 -1.3521 -1.4526 -1.2631
 8119SOL    HW225799   4.613   3.454   7.101  0.9523 -1.0008  1.8300
 8120SOL     OW25800   5.542   3.134   0.536  0.5997  0.0385 -0.2170
 8120SOL    HW125801   5.533   3.143   0.442 -0.1794  2.3351  0.0082
 8120SOL    HW225802   5.631   3.101   0.549  0.7643 -0.1652 -1.7256
 8121SOL     OW25803   7.441   3.541   8.119  0.5013  0.9800 -0.3510
 8121SOL    HW125804   7.459   3.597   8.194  1.6725 -0.6100  0.6108
 8121SOL    HW225805   7.526   3.506   8.094 -0.4740 -4.0052  2.0588
 8122SOL     OW25806   6.026   4.292   0.641 -0.0964 -0.2264 -0.1052
 8122SOL    HW125807   5.960   4.305   0.572 -0.8381 -2.0821  0.1722
 8122SOL    HW225808   5.974   4.277   0.720  0.6336 -1.3761  0.1851
 8123SOL     OW25809   4.130   5.374   5.301  0.4146  0.0717  0.0820
 8123SOL    HW125810   4.223   5.359   5.318 -0.0996 -2.0803  1.2457
 8123SOL    HW225811   4.090   5.287   5.303 -1.6083  0.9174 -0.6270
 8124SOL     OW25812   5.272   0.407   5.439 -0.3953  0.0052 -0.0166
 8124SOL    HW125813   5.292   0.420   5.347 -0.3721 -0.5460 -0.0935
 8124SOL    HW225814   5.327   0.333   5.465 -1.0900 -0.4509  0.1942
 8125SOL     OW25815   4.880   2.544   8.722 -0.5309 -0.4539  0.0888
 8125SOL    HW125816   4.839   2.573   8.803 -0.3045  1.1151 -0.3383
 8125SOL    HW225817   4.810   2.547   8.657 -0.4832 -0.7939  0.0192
 8126SOL     OW25818   1.316   7.420  11.014 -0.0971  0.3095  0.4200
 8126SOL    HW125819   1.388   7.402  10.953  0.3532 -0.6449  1.1978
 8126SOL    HW225820   1.344   7.497  11.063 -0.4052  1.0047 -0.4836
 8127SOL     OW25821   4.022   2.594   9.222  0.2354  0.2596  0.2305
 8127SOL    HW125822   3.966   2.537   9.170 -0.1015  0.3301  0.5050
 8127SOL    HW225823   4.011   2.563   9.312 -1.1738  1.6943  0.6124
 8128SOL     OW25824   4.187   0.215   1.357 -0.2693 -0.3281 -0.1732
 8128SOL    HW125825   4.184   0.309   1.341  1.1184  0.5381  3.6686
 8128SOL    HW225826   4.255   0.183   1.298  0.9822  1.5494  0.1496
 8129SOL     OW25827   1.859   0.127   5.836  0.2564 -0.3028  0.1358
 8129SOL    HW125828   1.900   0.086   5.759  1.5654 -1.5339  1.4253
 8129SOL    HW225829   1.769   0.143   5.809  0.8540 -0.0086 -1.8961
 8130SOL     OW25830   1.268   1.481   4.300 -0.6105 -0.0304 -0.0775
 8130SOL    HW125831   1.253   1.415   4.233 -1.1074 -1.3562  1.2938
 8130SOL    HW225832   1.263   1.565   4.253  2.0346 -0.9380 -2.2600
 8131SOL     OW25833   6.766   2.334   2.528 -0.0117 -0.3170 -0.0579
 8131SOL    HW125834   6.681   2.350   2.487  1.2943  0.0418 -2.8762
 8131SOL    HW225835   6.755   2.362   2.619 -2.9718 -0.6287 -0.2331
 8132SOL     OW25836   6.863   0.063   8.631 -0.1431  0.0183  0.8046
 8132SOL    HW125837   6.934   0.103   8.581 -0.1161 -0.7310  0.2411
 8132SOL    HW225838   6.869  -0.030   8.611 -1.4801 -0.0177  0.5094
 8133SOL     OW25839   3.066   2.495   9.734  0.0248 -0.6175  0.1107
 8133SOL    HW125840   3.086   2.526   9.822  1.6289  0.3960 -0.5538
 8133SOL    HW225841   2.997   2.553   9.703  0.7738  0.2740  0.0488
 8134SOL     OW25842   1.051   5.360   9.523 -0.0827 -0.7349 -0.3186
 8134SOL    HW125843   0.985   5.429   9.533 -0.4332 -1.1124  0.0045
 8134SOL    HW225844   1.096   5.382   9.442  0.2855  0.2745  0.1326
 8135SOL     OW25845   7.461   7.006   4.146  0.6718 -0.2410  0.1574
 8135SOL    HW125846   7.373   6.989   4.112  1.4503 -0.1479 -2.0584
 8135SOL    HW225847   7.485   6.926   4.192 -0.7031 -0.1038  1.2048
 8136SOL     OW25848   3.833   7.041   8.759 -0.2600 -0.0448  0.0626
 8136SOL    HW125849   3.740   7.051   8.776 -0.5252 -2.2868  0.2679
 8136SOL    HW225850   3.842   6.950   8.729  1.8951  0.0012  0.4108
 8137SOL     OW25851   2.653   3.594  10.051 -0.0740  0.1016 -0.4720
 8137SOL    HW125852   2.745   3.600  10.026 -0.1587 -1.5509 -1.3117
 8137SOL    HW225853   2.615   3.534   9.987 -1.9888  1.5685 -0.7939
 8138SOL     OW25854   4.938   7.082   1.563 -0.3360 -0.5248 -0.7408
 8138SOL    HW125855   5.018   7.099   1.612  0.5398 -2.4620 -1.3658
 8138SOL    HW225856   4.871   7.066   1.630  0.4128 -1.3384 -0.1565
 8139SOL     OW25857   4.932   1.946   8.798 -0.0383  0.5699 -0.2743
 8139SOL    HW125858   5.022   1.912   8.789  0.1862  1.2442 -0.6148
 8139SOL    HW225859   4.877   1.868   8.791  0.5290  0.1062  0.2203
 8140SOL     OW25860   3.898   6.336  10.564 -0.4684  0.3175  0.4032
 8140SOL    HW125861   3.958   6.391  10.615  0.1957  0.5761 -0.6274
 8140SOL    HW225862   3.890   6.255  10.614  0.6732  0.3215  0.6003
 8141SOL     OW25863   1.211   5.363   7.744  0.3383 -0.3012  0.0529
 8141SOL    HW125864   1.144   5.311   7.789  1.8400 -1.4890  1.0267
 8141SOL    HW225865   1.278   5.300   7.720  1.8649  1.0522  0.5526
 8142SOL     OW25866   3.760   3.209   3.243  0.2704 -1.0792  0.3653
 8142SOL    HW125867   3.816   3.280   3.212  0.8430 -1.7439 -0.1451
 8142SOL    HW225868   3.815   3.160   3.304 -0.6138 -0.2032  1.9366
 8143SOL     OW25869   7.536   1.124   5.829  0.7515 -0.3208  0.2056
 8143SOL    HW125870   7.621   1.111   5.871 -0.3393 -1.3079  2.2435
 8143SOL    HW225871   7.517   1.040   5.787  0.2256 -0.5282  0.8491
 8144SOL     OW25872   2.664   7.048   2.752  0.2773  0.1010  0.4976
 8144SOL    HW125873   2.629   7.024   2.838 -0.7657  0.1396  0.1005
 8144SOL    HW225874   2.587   7.073   2.701  1.0496  1.9192  0.1290
 8145SOL     OW25875   6.684   0.459   8.081  0.3547 -0.3755 -0.4988
 8145SOL    HW125876   6.661   0.522   8.149  1.5425 -0.6259  0.1604
 8145SOL    HW225877   6.642   0.378   8.109 -0.7150 -0.0358 -1.0617
 8146SOL     OW25878   2.149   2.761   6.498  0.1124  0.5779 -0.1014
 8146SOL    HW125879   2.077   2.825   6.490  0.1717  0.6250 -0.2565
 8146SOL    HW225880   2.145   2.710   6.418 -0.3995 -0.0996  0.3391
 8147SOL     OW25881   2.463   3.814   5.005 -0.3600 -0.0438 -0.2081
 8147SOL    HW125882   2.369   3.829   5.016 -0.2405  1.3403 -0.8164
 8147SOL    HW225883   2.469   3.760   4.927 -0.6079  1.2573 -1.1669
 8148SOL     OW25884   1.452   2.991   3.112 -0.5338  0.1821 -0.0547
 8148SOL    HW125885   1.527   2.973   3.054  1.0168  1.1935  1.5517
 8148SOL    HW225886   1.462   3.083   3.136 -1.3036 -0.1413  1.5876
 8149SOL     OW25887   4.697   5.794  11.790 -0.1051 -0.4054 -0.7959
 8149SOL    HW125888   4.687   5.874  11.738  2.1155  0.9738  0.7290
 8149SOL    HW225889   4.778   5.807  11.840  0.5787 -3.8046 -0.7537
 8150SOL     OW25890   5.942   0.998   7.377 -0.2976  0.1182 -0.1778
 8150SOL    HW125891   5.890   0.965   7.304  0.3576 -0.5022 -0.3747
 8150SOL    HW225892   5.878   1.031   7.439 -0.8700  0.7774 -1.0777
 8151SOL     OW25893   7.025   7.752   1.348 -0.2440  0.5543 -0.1775
 8151SOL    HW125894   6.993   7.689   1.412  0.2628  1.9136  1.4983
 8151SOL    HW225895   7.094   7.706   1.300 -1.3727 -0.8375 -0.5465
 8152SOL     OW25896   0.007   6.577   2.054 -0.0152  0.0897  0.2840
 8152SOL    HW125897  -0.074   6.580   2.003 -0.1589  2.3428  0.5750
 8152SOL    HW225898   0.037   6.668   2.058  2.6658 -0.6767  0.0001
 8153SOL     OW25899   1.840   4.018   3.392  0.3204 -0.4840 -0.3141
 8153SOL    HW125900   1.861   4.050   3.304  0.1849 -1.1762 -0.6057
 8153SOL    HW225901   1.753   4.055   3.410  0.3991 -0.2419 -0.4156
 8154SOL     OW25902   1.003   2.071   2.771 -0.1171 -0.0852 -0.6901
 8154SOL    HW125903   1.079   2.073   2.829 -0.3298 -0.3490 -0.3992
 8154SOL    HW225904   0.990   1.979   2.751 -1.4688 -0.2338  0.7394
 8155SOL     OW25905   7.567   0.898   3.754 -0.2498 -0.4382 -0.3808
 8155SOL    HW125906   7.620   0.819   3.764  0.2494 -0.1883 -0.9457
 8155SOL    HW225907   7.622   0.969   3.787 -1.5594 -0.5668  2.2898
 8156SOL     OW25908   2.117   2.437   5.127  0.4886 -0.0205  0.2247
 8156SOL    HW125909   2.084   2.523   5.099  0.6063  0.3107  1.0768
 8156SOL    HW225910   2.060   2.374   5.083  0.6266  0.4836 -0.6981
 8157SOL     OW25911   6.808   6.622   8.907  0.2235 -0.3597  0.4273
 8157SOL    HW125912   6.728   6.602   8.956  0.7357  0.5635  1.6918
 8157SOL    HW225913   6.877   6.573   8.953  0.6388  0.1515  0.3628
 8158SOL     OW25914   6.522   3.863   5.956  0.6583  0.5004  0.0226
 8158SOL    HW125915   6.455   3.872   5.888  0.4353  3.4156  0.4899
 8158SOL    HW225916   6.490   3.917   6.028  1.9387 -0.7569  1.6076
 8159SOL     OW25917   4.114   0.179   5.467 -0.2012 -0.2387  0.2868
 8159SOL    HW125918   4.067   0.216   5.393  0.5646 -0.4818 -0.3419
 8159SOL    HW225919   4.086   0.231   5.542 -1.2471 -0.2076 -0.1122
 8160SOL     OW25920   7.514   1.239  12.348 -0.1441 -0.2288 -0.5114
 8160SOL    HW125921   7.503   1.288  12.430  0.3966 -1.7991  0.5563
 8160SOL    HW225922   7.473   1.155  12.365  0.1015 -0.6332 -1.8285
 8161SOL     OW25923   1.125   6.407   7.779 -0.9061  0.1519  0.5347
 8161SOL    HW125924   1.082   6.340   7.726  1.5893  0.5897 -2.2662
 8161SOL    HW225925   1.095   6.490   7.743  0.1893  0.4634  0.3046
 8162SOL     OW25926   5.037   6.544   1.307  0.0694  0.1209  0.0920
 8162SOL    HW125927   5.000   6.633   1.313  0.9064  0.5629 -0.9620
 8162SOL    HW225928   5.023   6.519   1.216  1.3819 -0.1239 -0.0556
 8163SOL     OW25929   2.018   6.316  12.024  0.4142 -0.0063 -0.4244
 8163SOL    HW125930   2.032   6.382  11.955 -0.1562 -0.8646 -1.3821
 8163SOL    HW225931   2.043   6.361  12.104  1.6357  0.8513 -1.2360
 8164SOL     OW25932   0.391   0.895   7.753 -0.3771 -0.0779 -0.0483
 8164SOL    HW125933   0.321   0.847   7.708 -0.1351 -1.6231  1.1444
 8164SOL    HW225934   0.460   0.904   7.687 -0.1885 -1.9492 -0.1763
 8165SOL     OW25935   5.167   5.367   7.383 -0.1474  0.4980 -0.1178
 8165SOL    HW125936   5.160   5.323   7.467 -2.3788  0.0261 -0.4865
 8165SOL    HW225937   5.230   5.438   7.398  1.1141 -0.8420  1.3334
 8166SOL     OW25938   1.595   2.107   7.476  0.0843  0.1148  0.4885
 8166SOL    HW125939   1.676   2.156   7.463 -1.3407  2.0196 -1.7548
 8166SOL    HW225940   1.591   2.046   7.402  0.0607 -0.9199  1.3084
 8167SOL     OW25941   3.644   1.171   1.045 -0.0954 -0.1357 -0.5462
 8167SOL    HW125942   3.669   1.256   1.009  0.6656 -0.6422 -1.2736
 8167SOL    HW225943   3.571   1.190   1.103  0.4843  1.1035 -0.1772
 8168SOL     OW25944   0.062   0.174   8.288  0.0294 -0.3678 -0.1051
 8168SOL    HW125945  -0.031   0.189   8.302 -0.5512 -1.9639 -1.8169
 8168SOL    HW225946   0.105   0.213   8.364 -1.5827  4.6395 -1.3912
 8169SOL     OW25947   7.174   5.203   3.876  0.3301 -0.2517  0.2433
 8169SOL    HW125948   7.153   5.112   3.898 -2.3265 -0.1846 -1.5461
 8169SOL    HW225949   7.128   5.255   3.942  1.2063 -0.1803  0.8058
 8170SOL     OW25950   7.482   1.217   5.561  0.0160  0.0532  0.5919
 8170SOL    HW125951   7.471   1.204   5.656  1.1138  0.2119  0.7608
 8170SOL    HW225952   7.548   1.152   5.536  2.1478  2.0760  0.5699
 8171SOL     OW25953   6.714   5.066  11.061  0.2359 -0.2203  0.0546
 8171SOL    HW125954   6.676   5.152  11.046 -0.2980 -0.3069  0.8376
 8171SOL    HW225955   6.771   5.077  11.138  0.4366 -0.4873 -0.0499
 8172SOL     OW25956   5.914   3.394   1.194 -0.7783 -0.3547 -0.1442
 8172SOL    HW125957   5.968   3.454   1.142 -1.2516  0.2044 -0.0105
 8172SOL    HW225958   5.940   3.411   1.285  0.8909 -2.1635 -0.2227
 8173SOL     OW25959   2.349   4.310   8.150 -0.0860  0.5000  0.3160
 8173SOL    HW125960   2.410   4.367   8.104  0.5190 -0.1568  0.2757
 8173SOL    HW225961   2.401   4.270   8.220 -0.3242 -0.4671 -0.0430
 8174SOL     OW25962   3.062   0.880   4.164  0.5002  0.0357  0.2195
 8174SOL    HW125963   2.976   0.881   4.206  0.9652 -0.6400  1.2340
 8174SOL    HW225964   3.071   0.967   4.126 -0.2811  0.4030  0.8502
 8175SOL     OW25965   6.539   3.823  10.781 -0.1247  0.0655 -0.0134
 8175SOL    HW125966   6.570   3.884  10.849 -1.1351  0.1414  0.3971
 8175SOL    HW225967   6.522   3.879  10.705  2.9957 -0.2681 -1.1009
 8176SOL     OW25968   4.189   2.927  11.932  0.5709  0.1758 -0.1525
 8176SOL    HW125969   4.129   2.934  11.858  0.3058 -2.6152 -0.3344
 8176SOL    HW225970   4.270   2.894  11.894  1.1337  0.7483  0.5286
 8177SOL     OW25971   6.971   6.324   2.100  0.0204 -0.4461 -0.5124
 8177SOL    HW125972   6.895   6.272   2.126  0.3559 -0.2016  1.0531
 8177SOL    HW225973   7.046   6.272   2.129  0.3799  0.4652  0.2057
 8178SOL     OW25974   6.135   6.746   2.054  0.0087  0.0510  0.3079
 8178SOL    HW125975   6.139   6.729   1.959 -0.5432 -1.6576  0.5549
 8178SOL    HW225976   6.207   6.806   2.071  0.1277  0.3748 -1.1950
 8179SOL     OW25977   4.023   4.633   4.812  0.1780  0.1833  0.0311
 8179SOL    HW125978   4.051   4.596   4.896  1.4517  0.4541 -0.2570
 8179SOL    HW225979   4.013   4.557   4.755 -0.2546  0.0372  0.2943
 8180SOL     OW25980   4.405   1.920   8.079 -0.2997  0.0251 -0.2153
 8180SOL    HW125981   4.467   1.970   8.132 -2.1127  1.2096  0.8743
 8180SOL    HW225982   4.341   1.984   8.050 -1.4287 -1.2768 -0.7194
 8181SOL     OW25983   2.720   6.286   7.247  0.7181  0.5476 -0.1012
 8181SOL    HW125984   2.634   6.286   7.290  1.1682  0.3024  0.8040
 8181SOL    HW225985   2.702   6.251   7.159  0.1169 -0.9172  0.5703
 8182SOL     OW25986   1.896   1.476   0.856 -0.5784  0.1345 -0.2331
 8182SOL    HW125987   1.826   1.442   0.912 -1.9570  1.1903 -1.2486
 8182SOL    HW225988   1.956   1.402   0.845  0.0085  0.0156  2.9608
 8183SOL     OW25989   1.111   1.023   7.402  0.0437 -0.1129  0.3395
 8183SOL    HW125990   1.028   0.977   7.403  0.0604 -0.1486  1.3227
 8183SOL    HW225991   1.169   0.969   7.456  0.6036  0.0855 -0.0541
 8184SOL     OW25992   0.727   7.251   4.247 -0.2375 -0.0847 -0.5498
 8184SOL    HW125993   0.657   7.226   4.307 -0.3821  1.9600  0.2076
 8184SOL    HW225994   0.693   7.230   4.160 -0.4133 -2.1826 -0.0267
 8185SOL     OW25995   1.523   2.529   7.502  0.3146  0.0850  0.5112
 8185SOL    HW125996   1.585   2.483   7.445 -0.1535 -2.3975  1.8449
 8185SOL    HW225997   1.570   2.543   7.583 -1.1820 -3.4298  2.1982
 8186SOL     OW25998   4.153   5.802   9.334 -0.3012 -0.1275  0.7914
 8186SOL    HW125999   4.235   5.852   9.333 -0.1027 -0.3308  2.6765
 8186SOL    HW226000   4.089   5.862   9.371 -0.5765 -0.5485  1.0047
 8187SOL     OW26001   4.413   4.599  12.303 -0.2558  0.0841  0.2326
 8187SOL    HW126002   4.443   4.510  12.323 -1.5307 -0.2568  0.7331
 8187SOL    HW226003   4.370   4.590  12.218 -0.0778  0.2953  0.1217
 8188SOL     OW26004   1.612   3.592   0.757  0.0354  0.2982 -0.4145
 8188SOL    HW126005   1.575   3.584   0.669 -0.0085  3.4113 -0.7793
 8188SOL    HW226006   1.535   3.598   0.814 -0.0551  2.1512 -0.6634
 8189SOL     OW26007   3.953   6.405   8.009  0.2938  0.0799 -0.3628
 8189SOL    HW126008   3.914   6.425   7.924 -0.3224  0.2348 -0.0468
 8189SOL    HW226009   3.879   6.377   8.063  0.9718 -2.3333 -0.5586
 8190SOL     OW26010   2.384   5.918   6.163 -0.2615 -0.1450 -0.0125
 8190SOL    HW126011   2.334   5.993   6.196 -0.7903 -0.5805  0.1963
 8190SOL    HW226012   2.323   5.872   6.105  0.9379  1.1197 -2.4291
 8191SOL     OW26013   2.217   6.451   4.219 -0.3358 -0.2083 -0.2077
 8191SOL    HW126014   2.243   6.464   4.127 -1.1917  1.1970 -0.2821
 8191SOL    HW226015   2.294   6.411   4.260  0.2965 -0.2643 -1.3946
 8192SOL     OW26016   4.957   1.666  11.629 -0.5113 -0.3611  0.0430
 8192SOL    HW126017   5.025   1.685  11.694 -0.9746 -1.6142  0.9409
 8192SOL    HW226018   4.993   1.595  11.576 -1.7906 -2.4774  1.7970
 8193SOL     OW26019   2.242   4.246   3.783 -0.3792 -0.2154 -0.3040
 8193SOL    HW126020   2.249   4.261   3.877  1.0642  2.1460 -0.7072
 8193SOL    HW226021   2.261   4.331   3.743  0.3807 -1.4425 -2.7828
 8194SOL     OW26022   0.743   4.274   8.476 -0.6146  0.0419  0.0042
 8194SOL    HW126023   0.828   4.234   8.496 -0.9833 -1.0117 -0.4535
 8194SOL    HW226024   0.682   4.231   8.535 -1.1527 -0.6620 -1.0375
 8195SOL     OW26025   2.468   7.331  11.283  0.3264  0.0243 -0.0063
 8195SOL    HW126026   2.420   7.288  11.354 -0.3977  1.5033  0.4398
 8195SOL    HW226027   2.487   7.261  11.221 -1.1430 -0.8753  0.5059
 8196SOL     OW26028   2.600   6.118   9.482 -0.5983 -0.0602  0.2328
 8196SOL    HW126029   2.556   6.180   9.424 -2.6839 -2.2948 -0.7712
 8196SOL    HW226030   2.538   6.104   9.554  0.7029  0.4718  1.5042
 8197SOL     OW26031   4.047   2.427   8.465  0.5652  0.3302 -0.1598
 8197SOL    HW126032   4.101   2.430   8.386 -0.0123 -3.4582 -0.9022
 8197SOL    HW226033   4.108   2.407   8.536  0.7065  0.8169 -0.1389
 8198SOL     OW26034   3.110   2.904   0.981  0.1114 -0.5870 -0.4110
 8198SOL    HW126035   3.124   2.943   0.895  0.1365 -1.0487 -0.6161
 8198SOL    HW226036   3.198   2.893   1.017  0.1072 -0.5075 -0.3755
 8199SOL     OW26037   1.127   5.217   3.986 -0.1280  0.0821  0.7573
 8199SOL    HW126038   1.183   5.267   4.045  0.3341  0.6800 -0.1456
 8199SOL    HW226039   1.047   5.270   3.978  0.5239  0.9504 -0.5212
 8200SOL     OW26040   4.025   7.413   7.812  0.3492  0.6221  0.6636
 8200SOL    HW126041   3.952   7.387   7.756  1.8046 -0.5233 -0.7795
 8200SOL    HW226042   3.991   7.403   7.901 -0.8813 -1.0859  0.0596
 8201SOL     OW26043   7.617   5.366   6.691 -0.0288  0.3127 -0.3213
 8201SOL    HW126044   7.611   5.461   6.675 -2.9286  0.2768  0.0187
 8201SOL    HW226045   7.600   5.326   6.606  0.7397  0.0813 -0.3701
 8202SOL     OW26046   3.007   5.547   7.513 -0.1387 -0.2481 -0.2121
 8202SOL    HW126047   3.031   5.484   7.445 -2.9037 -0.5151 -1.0514
 8202SOL    HW226048   2.960   5.616   7.467 -0.3154  0.6007  1.1798
 8203SOL     OW26049   1.447   7.447  12.304 -0.2668 -0.5712  0.4297
 8203SOL    HW126050   1.388   7.522  12.297  0.0519 -0.3434  0.1796
 8203SOL    HW226051   1.420   7.389  12.233  0.6494  0.1253 -0.5170
 8204SOL     OW26052   3.090   5.147   7.670  0.1926 -0.3541  0.7677
 8204SOL    HW126053   3.042   5.131   7.588  1.0231  1.2919 -0.0828
 8204SOL    HW226054   3.112   5.060   7.702  0.7258 -1.0370 -1.2954
 8205SOL     OW26055   3.663   6.400   9.196 -0.7003 -0.2614  0.2930
 8205SOL    HW126056   3.613   6.482   9.191 -2.6468 -1.3806  0.1706
 8205SOL    HW226057   3.618   6.349   9.263 -1.3038 -2.3060 -1.5562
 8206SOL     OW26058   5.850   3.237   0.992  0.0236 -0.0142  0.0853
 8206SOL    HW126059   5.884   3.286   1.066  0.8569 -1.0736  0.4330
 8206SOL    HW226060   5.789   3.174   1.030 -0.2220  0.0317 -0.2263
 8207SOL     OW26061   2.234   7.083   1.404 -0.1914  0.2981  0.3351
 8207SOL    HW126062   2.260   7.106   1.493 -2.0762  1.2693  0.6694
 8207SOL    HW226063   2.151   7.127   1.390 -0.2477 -0.3282 -1.7109
 8208SOL     OW26064   4.421   0.972  11.029  0.1087  0.3315  0.0894
 8208SOL    HW126065   4.393   1.055  10.990  1.3524  0.4541 -0.5936
 8208SOL    HW226066   4.503   0.951  10.984  0.5347 -0.5624  1.2378
 8209SOL     OW26067   5.348   4.844   8.824  0.2734 -0.5437 -0.9536
 8209SOL    HW126068   5.388   4.821   8.740 -1.6069 -0.2404 -1.9834
 8209SOL    HW226069   5.263   4.801   8.823 -0.6515  1.1475 -0.1122
 8210SOL     OW26070   6.552   4.194   0.685  0.4095  0.5156 -0.4834
 8210SOL    HW126071   6.461   4.169   0.669  0.5323 -0.5522  0.3499
 8210SOL    HW226072   6.567   4.171   0.777  2.3461 -2.1145 -1.3134
 8211SOL     OW26073   4.947   5.078   5.230 -0.1651  0.1950 -0.0469
 8211SOL    HW126074   4.888   5.013   5.269 -0.5881  0.8046  0.3445
 8211SOL    HW226075   4.939   5.154   5.287  0.4988  0.5172 -0.3769
 8212SOL     OW26076   1.287   5.785  10.472  0.6962  0.1465  0.5667
 8212SOL    HW126077   1.347   5.710  10.478 -1.5849 -1.9701 -1.0355
 8212SOL    HW226078   1.320   5.836  10.398  0.7120 -0.8381 -0.1255
 8213SOL     OW26079   3.830   0.158   6.521 -0.4245 -0.1771  0.0862
 8213SOL    HW126080   3.890   0.232   6.515 -0.1018 -0.3929  0.5795
 8213SOL    HW226081   3.833   0.117   6.435 -0.3603  0.1986 -0.0884
 8214SOL     OW26082   2.895   4.738   2.878  0.1468 -0.2510 -0.0979
 8214SOL    HW126083   2.951   4.812   2.854 -1.2905  0.5908 -1.0376
 8214SOL    HW226084   2.909   4.674   2.807  1.4535 -0.9614  0.7587
 8215SOL     OW26085   1.513   0.087  10.016 -0.1351  0.1292 -0.5019
 8215SOL    HW126086   1.577   0.018  10.033  0.2009  0.3938 -0.6767
 8215SOL    HW226087   1.429   0.049  10.040 -0.0191 -0.5253 -1.1152
 8216SOL     OW26088   2.004   3.767   4.011  0.0381 -0.4668  0.6158
 8216SOL    HW126089   2.057   3.826   3.957 -0.2930  0.0322  0.8321
 8216SOL    HW226090   2.056   3.687   4.016 -0.4495 -0.9614 -1.4004
 8217SOL     OW26091   2.219   4.526   0.677 -0.7445  0.2196  0.4183
 8217SOL    HW126092   2.159   4.457   0.649 -1.6721  1.5132 -0.9646
 8217SOL    HW226093   2.173   4.572   0.747 -0.3341 -0.2552  1.0055
 8218SOL     OW26094   5.452   1.844   3.673  0.3831  0.1096  0.0609
 8218SOL    HW126095   5.409   1.908   3.616 -0.5804 -0.2210  0.4008
 8218SOL    HW226096   5.463   1.766   3.617 -0.0524 -0.0227  0.1534
 8219SOL     OW26097   6.832   3.474   0.862  0.5010  0.5389 -0.3981
 8219SOL    HW126098   6.768   3.403   0.858 -0.5818  1.4372  0.4818
 8219SOL    HW226099   6.911   3.433   0.898  0.2995 -0.4772 -1.0636
 8220SOL     OW26100   7.758   0.540   9.127 -0.3442  0.0574 -0.2313
 8220SOL    HW126101   7.730   0.617   9.176  0.3634 -0.2656  0.7206
 8220SOL    HW226102   7.735   0.465   9.182  0.0814 -0.3429 -0.5740
 8221SOL     OW26103   6.246   6.407   3.605  0.3441  0.3997  0.0176
 8221SOL    HW126104   6.286   6.488   3.576  0.3357  1.1679  2.0014
 8221SOL    HW226105   6.152   6.422   3.596  0.3722  0.1828 -0.6647
 8222SOL     OW26106   3.095   4.046   0.862  0.0879  0.0684  0.0014
 8222SOL    HW126107   3.093   4.026   0.768 -0.6402 -0.1401  0.0613
 8222SOL    HW226108   3.012   4.090   0.880 -0.7523 -1.7788  0.9492
 8223SOL     OW26109   7.669   6.139   3.675  0.2208  0.3170 -0.8661
 8223SOL    HW126110   7.581   6.104   3.689  0.9181 -1.1568  0.1205
 8223SOL    HW226111   7.655   6.226   3.639 -1.6575  0.4429  0.0501
 8224SOL     OW26112   2.869   3.907   0.457 -0.1456  0.1825  0.1808
 8224SOL    HW126113   2.818   3.981   0.490 -1.6755  0.0791 -1.7346
 8224SOL    HW226114   2.842   3.899   0.365  2.1347 -0.9589 -0.4570
 8225SOL     OW26115   1.210   4.447   6.962  0.4107  0.6884  0.4242
 8225SOL    HW126116   1.219   4.492   7.046  1.2229 -0.7604  1.1635
 8225SOL    HW226117   1.152   4.373   6.981  1.1180 -0.0207 -0.1208
 8226SOL     OW26118   2.221   5.625   3.187 -0.6677 -0.0491 -0.4525
 8226SOL    HW126119   2.197   5.533   3.199 -0.7664  0.2867  3.2442
 8226SOL    HW226120   2.303   5.622   3.137 -0.9048 -2.0973 -0.8143
 8227SOL     OW26121   5.459   4.236   2.889  0.4000 -0.0239 -0.2280
 8227SOL    HW126122   5.394   4.276   2.831  0.4542  0.4932  0.0682
 8227SOL    HW226123   5.450   4.283   2.972 -0.3516 -1.3968  0.5123
 8228SOL     OW26124   0.499   5.956   1.845  0.2449  0.0763  0.5578
 8228SOL    HW126125   0.526   5.869   1.816 -0.5415 -0.1075  0.3431
 8228SOL    HW226126   0.561   6.016   1.804  1.0659 -0.4105  1.0722
 8229SOL     OW26127   0.418   2.892   2.865  0.9547 -0.4488  0.7060
 8229SOL    HW126128   0.344   2.892   2.805  1.7475 -2.3435 -0.3307
 8229SOL    HW226129   0.455   2.980   2.857  0.0408 -0.1379 -0.3039
 8230SOL     OW26130   7.316   5.355   5.370 -0.4567 -0.1307 -0.2258
 8230SOL    HW126131   7.233   5.312   5.347 -0.0971 -0.5787 -0.6973
 8230SOL    HW226132   7.336   5.321   5.457 -0.6574 -0.1878 -0.1997
 8231SOL     OW26133   0.656   0.632   4.458 -0.0751 -0.1860 -0.5840
 8231SOL    HW126134   0.606   0.713   4.473  1.0129  0.6336 -1.2306
 8231SOL    HW226135   0.720   0.631   4.529 -0.0114 -0.4255 -0.6443
 8232SOL     OW26136   7.313   7.852   8.005  0.0991  0.2837 -0.3541
 8232SOL    HW126137   7.271   7.779   7.961  0.3293 -1.4804  2.1376
 8232SOL    HW226138   7.263   7.929   7.978 -1.9627 -1.1576 -0.8651
 8233SOL     OW26139   7.677   4.534   2.053  0.1542 -0.1843  0.6181
 8233SOL    HW126140   7.745   4.583   2.007 -1.2375  0.7088 -0.5979
 8233SOL    HW226141   7.635   4.598   2.110 -0.5601 -0.3757  0.3150
 8234SOL     OW26142   4.270   2.356   8.215 -0.9034 -0.4960  0.1250
 8234SOL    HW126143   4.328   2.385   8.144  0.9375 -0.4018  1.5694
 8234SOL    HW226144   4.330   2.328   8.285 -2.4221  3.0558  3.2353
 8235SOL     OW26145   6.973   3.359   3.724 -0.0550 -0.1012 -0.1745
 8235SOL    HW126146   7.028   3.405   3.788 -0.9899 -0.6309  1.0762
 8235SOL    HW226147   6.974   3.267   3.754 -0.7091 -0.3114 -0.7730
 8236SOL     OW26148   3.973   2.386  11.659  0.2781  0.2619 -0.0675
 8236SOL    HW126149   3.959   2.460  11.600  1.6933 -0.0996 -0.9103
 8236SOL    HW226150   4.035   2.419  11.725 -1.1699  0.6165  1.1793
 8237SOL     OW26151   3.716   3.724   3.622 -0.4080 -0.1601  0.0985
 8237SOL    HW126152   3.640   3.712   3.564 -1.1776  0.9491  0.8149
 8237SOL    HW226153   3.754   3.637   3.631 -1.3991 -0.6864 -0.5573
 8238SOL     OW26154   2.666   2.249   6.842 -0.4526  0.3833 -0.3101
 8238SOL    HW126155   2.609   2.237   6.918  0.6323 -0.9454  0.3451
 8238SOL    HW226156   2.688   2.160   6.814  0.1527  0.8546 -1.4220
 8239SOL     OW26157   0.109   4.793   6.092  0.1545 -0.5176  0.0900
 8239SOL    HW126158   0.032   4.842   6.065 -0.9049 -2.0038  0.3008
 8239SOL    HW226159   0.074   4.716   6.137  1.7980 -0.2829  1.8854
 8240SOL     OW26160   0.419   4.003  12.436 -0.0228 -0.1333  0.0631
 8240SOL    HW126161   0.372   3.920  12.447 -0.3596  0.1118  0.4793
 8240SOL    HW226162   0.377   4.063  12.497  0.2863  0.3207 -0.1655
 8241SOL     OW26163   0.736   0.607  10.145 -0.1339  0.3445  0.5145
 8241SOL    HW126164   0.686   0.608  10.226 -1.9859  0.3724 -0.5857
 8241SOL    HW226165   0.808   0.546  10.162 -2.6126 -2.6436  0.9771
 8242SOL     OW26166   3.955   7.902   5.203  0.7664 -0.2600 -0.2927
 8242SOL    HW126167   3.874   7.869   5.164  1.6234 -0.8015 -1.6747
 8242SOL    HW226168   4.024   7.857   5.156  1.9181  1.2609 -0.1219
 8243SOL     OW26169   7.735   3.567   5.773  0.5143 -0.3513  0.0769
 8243SOL    HW126170   7.760   3.605   5.689  0.7812 -1.7212 -0.4877
 8243SOL    HW226171   7.664   3.505   5.751  1.1702 -1.3597  0.7135
 8244SOL     OW26172   4.608   3.714   2.441 -0.0132 -0.0645 -0.2020
 8244SOL    HW126173   4.607   3.710   2.346  0.2738 -0.5981 -0.1843
 8244SOL    HW226174   4.693   3.679   2.466 -0.4456 -0.7877  0.2899
 8245SOL     OW26175   7.767   3.321   1.712 -0.0550 -0.1187 -0.1584
 8245SOL    HW126176   7.699   3.258   1.687 -0.8104  1.0316 -1.1495
 8245SOL    HW226177   7.718   3.401   1.734  0.6390 -0.5186  3.6441
 8246SOL     OW26178   1.055   0.850   2.136  0.0482  0.0419  0.5485
 8246SOL    HW126179   1.030   0.764   2.101  3.0554 -0.3785 -0.9600
 8246SOL    HW226180   1.124   0.831   2.199  0.3182  1.3242  0.6645
 8247SOL     OW26181   6.843   3.098   0.085  0.0131 -0.5027  0.0202
 8247SOL    HW126182   6.793   3.138   0.014  0.5882 -1.5956 -1.0320
 8247SOL    HW226183   6.799   3.127   0.165  0.7831  2.7577 -0.6073
 8248SOL     OW26184   1.339   4.084   3.658 -0.0249 -0.3518  0.0266
 8248SOL    HW126185   1.423   4.102   3.699  0.8487 -1.0898 -1.3723
 8248SOL    HW226186   1.347   3.995   3.626 -0.4991  0.3115 -2.0750
 8249SOL     OW26187   3.730   7.175   7.341 -0.1681  0.1002  0.0119
 8249SOL    HW126188   3.811   7.128   7.323 -0.7138 -0.3595 -1.3834
 8249SOL    HW226189   3.670   7.148   7.271 -1.3278  0.9054  0.6496
 8250SOL     OW26190   1.453   5.093   9.534  0.1098 -0.0095  0.3283
 8250SOL    HW126191   1.545   5.087   9.508  0.4399  0.2304  1.3808
 8250SOL    HW226192   1.456   5.118   9.627 -1.0148 -0.2953  0.4563
 8251SOL     OW26193   6.635   7.338   1.683  0.4986  0.0152 -0.2322
 8251SOL    HW126194   6.579   7.273   1.725  0.9275  0.3711  0.9379
 8251SOL    HW226195   6.583   7.419   1.683  0.4486 -0.0158 -0.5169
 8252SOL     OW26196   7.328   3.727   9.257  0.6376 -0.1097  0.0940
 8252SOL    HW126197   7.361   3.776   9.332  2.1820 -0.3692 -0.3862
 8252SOL    HW226198   7.331   3.635   9.286  0.7597 -0.1685 -0.1061
 8253SOL     OW26199   0.049   1.319   7.692  0.0517  0.1359  0.3870
 8253SOL    HW126200   0.144   1.333   7.698 -0.0750  0.8997  0.7336
 8253SOL    HW226201   0.032   1.313   7.598  0.5897 -1.1580  0.3507
 8254SOL     OW26202   5.281   0.463  11.017  0.1907  0.2299  0.2319
 8254SOL    HW126203   5.221   0.423  11.081  0.9749 -0.6830  0.4159
 8254SOL    HW226204   5.223   0.494  10.947 -0.5411 -0.2695  0.5960
 8255SOL     OW26205   6.292   3.572  10.364 -0.3564 -0.6377  0.3381
 8255SOL    HW126206   6.239   3.652  10.362  1.2379  0.4479 -1.2253
 8255SOL    HW226207   6.292   3.545  10.456 -1.3516  0.8653  0.8111
 8256SOL     OW26208   3.381   7.450   3.919 -0.2339  0.1435 -0.7203
 8256SOL    HW126209   3.454   7.395   3.893  0.6333  0.9032  0.0180
 8256SOL    HW226210   3.330   7.396   3.980 -0.4608 -0.4914 -1.4666
 8257SOL     OW26211   5.943   0.316  10.808 -0.2270 -0.1472 -0.6902
 8257SOL    HW126212   5.978   0.227  10.801 -0.5739 -0.5415  1.6426
 8257SOL    HW226213   5.854   0.309  10.774  0.1676 -0.3601 -1.7270
 8258SOL     OW26214   2.812   7.797   8.584  0.2671 -0.3378 -0.0549
 8258SOL    HW126215   2.792   7.866   8.648  1.8894 -0.2446  0.3862
 8258SOL    HW226216   2.824   7.718   8.637 -1.9079 -1.0911 -0.5841
 8259SOL     OW26217   2.587   4.587   3.733 -0.1468  0.0694 -0.0579
 8259SOL    HW126218   2.633   4.505   3.750 -0.9000 -0.2636  0.3957
 8259SOL    HW226219   2.591   4.597   3.638  0.4869 -0.1760 -0.0607
 8260SOL     OW26220   4.237   4.285   1.651 -0.4638 -0.3496 -0.3785
 8260SOL    HW126221   4.157   4.324   1.688 -1.3176 -0.6475 -1.8261
 8260SOL    HW226222   4.217   4.273   1.558  1.5725  0.3176 -0.9558
 8261SOL     OW26223   7.043   3.608   0.381  0.1984  0.3571 -0.0233
 8261SOL    HW126224   7.014   3.656   0.303  0.5248  0.7870  0.1142
 8261SOL    HW226225   7.053   3.518   0.351  2.2136  0.8375 -1.0228
 8262SOL     OW26226   4.708   5.833   0.050  0.2179 -0.1138  0.3857
 8262SOL    HW126227   4.740   5.750   0.085 -0.1896 -0.4462 -0.0108
 8262SOL    HW226228   4.786   5.887   0.039  0.7514 -1.1358 -1.1986
 8263SOL     OW26229   5.284   2.668   9.409 -0.2903  0.2373  0.5357
 8263SOL    HW126230   5.196   2.631   9.420 -0.4836  0.4317 -0.2551
 8263SOL    HW226231   5.288   2.691   9.316  0.6972 -0.0178  0.5084
 8264SOL     OW26232   4.185   4.422   1.905  0.0020 -0.0330 -0.0891
 8264SOL    HW126233   4.192   4.446   1.998 -1.6209 -0.1756  0.0936
 8264SOL    HW226234   4.093   4.400   1.893 -0.2205  1.7198 -2.1665
 8265SOL     OW26235   7.656   1.883   2.103 -0.7641 -0.2001  0.1234
 8265SOL    HW126236   7.741   1.905   2.065 -1.0725 -0.1633 -0.5721
 8265SOL    HW226237   7.613   1.830   2.035 -0.5991 -1.7613  1.1800
 8266SOL     OW26238   7.859   2.552   7.399 -0.2378 -0.2268 -0.1126
 8266SOL    HW126239   7.769   2.553   7.368 -0.3324  1.1695  0.1180
 8266SOL    HW226240   7.853   2.527   7.491 -0.4872  0.5537  0.0959
 8267SOL     OW26241   1.900   5.288   9.022  0.6441  0.4316  0.3055
 8267SOL    HW126242   1.957   5.223   8.978  0.9052 -1.0689  2.6850
 8267SOL    HW226243   1.896   5.258   9.113 -1.8539  2.0094  0.7979
 8268SOL     OW26244   7.652   0.574  10.719  0.4760  0.0220  0.4517
 8268SOL    HW126245   7.630   0.482  10.733  1.4883 -0.0853  1.5405
 8268SOL    HW226246   7.683   0.604  10.805  0.9410  1.1522 -0.0951
 8269SOL     OW26247   7.410   0.918   0.280  0.0169  0.0734  0.1885
 8269SOL    HW126248   7.358   0.841   0.256  0.7856 -0.7738  1.1497
 8269SOL    HW226249   7.501   0.888   0.276  0.2586 -0.1914  3.8875
 8270SOL     OW26250   4.925   2.205   8.900 -0.1355 -0.2047 -0.2521
 8270SOL    HW126251   4.996   2.195   8.963 -2.0589 -1.9606  1.8087
 8270SOL    HW226252   4.918   2.120   8.858 -1.0655 -0.1021 -0.3368
 8271SOL     OW26253   3.734   7.640   7.187  0.7513  0.1282  0.0936
 8271SOL    HW126254   3.779   7.681   7.113  1.0599  1.6466  1.1000
 8271SOL    HW226255   3.778   7.555   7.197  1.9950  0.7067 -0.2525
 8272SOL     OW26256   1.090   1.241   9.923 -0.1983 -0.0932 -1.1008
 8272SOL    HW126257   1.033   1.172   9.956 -0.2496  0.0928 -0.7973
 8272SOL    HW226258   1.169   1.236   9.976 -0.3738  0.3537 -0.7859
 8273SOL     OW26259   2.998   2.197   8.021 -0.3232 -0.4889 -0.0630
 8273SOL    HW126260   2.933   2.128   8.003 -1.2857 -0.2284  2.0508
 8273SOL    HW226261   2.975   2.228   8.109  1.5002  0.9760 -0.0550
 8274SOL     OW26262   0.411   6.828   7.200 -0.0647  0.4149  0.1757
 8274SOL    HW126263   0.495   6.870   7.216 -1.7459  4.6908 -0.8111
 8274SOL    HW226264   0.383   6.795   7.285  0.7177  3.0027  1.5421
 8275SOL     OW26265   1.156   1.378   2.466 -0.1033  0.1342  0.3468
 8275SOL    HW126266   1.062   1.385   2.481 -0.1301 -0.7815  0.7215
 8275SOL    HW226267   1.164   1.349   2.375 -0.2691 -1.2654  0.7507
 8276SOL     OW26268   2.489   0.092  12.174  0.0470  0.5339  0.2147
 8276SOL    HW126269   2.542   0.087  12.094  0.0843 -2.8877  0.3022
 8276SOL    HW226270   2.426   0.021  12.165 -3.7486  3.4986  0.8029
 8277SOL     OW26271   5.516   2.316   5.942  0.1164  0.0122  0.4948
 8277SOL    HW126272   5.522   2.393   5.998  3.5425 -0.0876  0.5220
 8277SOL    HW226273   5.495   2.351   5.855  1.0845  0.9508  0.6195
 8278SOL     OW26274   2.396   4.178   6.817 -0.9304 -0.1086  1.0258
 8278SOL    HW126275   2.404   4.094   6.773 -1.7240  1.0062 -1.4410
 8278SOL    HW226276   2.306   4.181   6.849 -2.1775  1.1883 -2.2288
 8279SOL     OW26277   1.953   6.775   9.279  0.2576 -0.5392  0.7021
 8279SOL    HW126278   2.011   6.739   9.211  1.1895  1.0640  0.5926
 8279SOL    HW226279   1.910   6.699   9.317  1.3928 -1.6665 -0.1911
 8280SOL     OW26280   5.650   5.899   4.103 -0.7859  0.0284  0.7113
 8280SOL    HW126281   5.699   5.974   4.069 -4.1013  0.6900 -3.5516
 8280SOL    HW226282   5.711   5.825   4.097  1.2059  1.6133  0.6278
 8281SOL     OW26283   6.505   2.352   0.139  0.6348  0.5697  0.0210
 8281SOL    HW126284   6.578   2.414   0.135  0.6486  0.4900 -1.3026
 8281SOL    HW226285   6.514   2.299   0.060 -0.6472  0.3046  0.0305
 8282SOL     OW26286   4.229   4.618   1.697  0.6380  0.1626 -0.2739
 8282SOL    HW126287   4.168   4.688   1.722  1.5018  0.5444  0.8742
 8282SOL    HW226288   4.227   4.557   1.771  1.4697  0.0620 -0.3237
 8283SOL     OW26289   1.311   6.288  12.260  0.1393  0.2890 -0.0645
 8283SOL    HW126290   1.361   6.211  12.236  0.4102  0.5415 -0.3212
 8283SOL    HW226291   1.302   6.283  12.355 -0.5404 -0.4770 -0.1608
 8284SOL     OW26292   6.813   2.072   9.893 -0.1002  0.6283 -0.1956
 8284SOL    HW126293   6.827   2.166   9.900 -0.1732  0.6513 -0.3498
 8284SOL    HW226294   6.901   2.034   9.899 -0.1863  0.6130  1.2430
 8285SOL     OW26295   1.663   5.586   0.989 -0.7684 -0.4009  0.7625
 8285SOL    HW126296   1.579   5.604   0.945  0.0465  1.7366 -0.0650
 8285SOL    HW226297   1.718   5.548   0.921 -0.1257  1.1071  0.3850
 8286SOL     OW26298   3.097   1.856   9.134 -0.1374  0.1989  0.0949
 8286SOL    HW126299   3.079   1.932   9.190 -0.3791 -0.5278  1.0438
 8286SOL    HW226300   3.166   1.809   9.181 -0.5992 -0.6144 -0.0253
 8287SOL     OW26301   1.615   6.569   8.649  0.4100 -0.0379  0.8081
 8287SOL    HW126302   1.581   6.581   8.560  0.4386 -0.4825  0.7359
 8287SOL    HW226303   1.576   6.641   8.699 -1.0967 -0.8562  0.8608
 8288SOL     OW26304   5.912   3.922   6.457  0.1630  0.5904 -0.5398
 8288SOL    HW126305   5.916   4.018   6.463 -2.0072  0.6971 -0.1706
 8288SOL    HW226306   5.832   3.898   6.503  0.3384 -1.3707 -1.1722
 8289SOL     OW26307   7.829   4.581   8.338  0.2087 -0.4048 -0.4375
 8289SOL    HW126308   7.779   4.647   8.384 -0.5074  0.7345 -2.7073
 8289SOL    HW226309   7.764   4.518   8.307  0.3850  0.0186 -1.7128
 8290SOL     OW26310   4.122   7.733   3.787 -0.1901  0.0259 -0.9371
 8290SOL    HW126311   4.150   7.824   3.789  0.6015 -0.1611 -2.3041
 8290SOL    HW226312   4.027   7.737   3.801  0.3505  0.6093  4.6673
 8291SOL     OW26313   4.224   7.960   3.730 -0.0288 -0.4499 -0.5149
 8291SOL    HW126314   4.316   7.952   3.706 -0.3389 -3.1800 -1.0973
 8291SOL    HW226315   4.178   7.974   3.647 -0.1459  1.8650 -0.1433
 8292SOL     OW26316   2.393   5.480   9.914  0.5431  0.1450  0.2439
 8292SOL    HW126317   2.363   5.406   9.967  0.3115  0.0501 -0.0211
 8292SOL    HW226318   2.485   5.460   9.895  0.0635 -0.8661 -1.1694
 8293SOL     OW26319   7.511   7.107   8.501  0.4889 -0.4530  0.2032
 8293SOL    HW126320   7.494   7.026   8.453  2.1400 -0.5754 -0.2170
 8293SOL    HW226321   7.603   7.125   8.486 -0.0694  2.1350 -0.7054
 8294SOL     OW26322   5.885   5.700   8.207  0.3266 -0.1964 -0.0286
 8294SOL    HW126323   5.870   5.745   8.291 -0.5185 -1.8315  0.7398
 8294SOL    HW226324   5.961   5.744   8.170  1.3935 -0.0923  2.1060
 8295SOL     OW26325   5.449   1.486   7.127  0.4612 -0.4079  0.1663
 8295SOL    HW126326   5.437   1.568   7.079 -2.3979 -1.7934 -1.8572
 8295SOL    HW226327   5.542   1.482   7.147  0.5810  3.6607  1.1081
 8296SOL     OW26328   3.023   5.704   4.296 -0.1923 -0.5300  0.0670
 8296SOL    HW126329   3.062   5.620   4.273  0.7607 -0.6112  1.7855
 8296SOL    HW226330   3.087   5.769   4.265  0.2445 -0.5613  0.8838
 8297SOL     OW26331   7.478   1.216   2.596  0.6265  0.1317 -0.4942
 8297SOL    HW126332   7.437   1.190   2.678  0.9639 -0.7203 -0.5766
 8297SOL    HW226333   7.416   1.276   2.556 -0.4220 -0.8885 -0.4687
 8298SOL     OW26334   1.684   4.465   9.939  0.0762 -0.2108 -0.1020
 8298SOL    HW126335   1.662   4.507  10.022 -0.8312 -0.3742 -0.2469
 8298SOL    HW226336   1.677   4.536   9.874 -1.9940 -0.6359 -0.4281
 8299SOL     OW26337   7.316   3.556   7.769  0.2809  0.1166  0.2797
 8299SOL    HW126338   7.406   3.586   7.785  0.0698  0.9208 -0.0152
 8299SOL    HW226339   7.291   3.512   7.850  0.5473  0.8583  0.7738
 8300SOL     OW26340   3.004   6.313   3.716  0.2296  0.2299 -0.6593
 8300SOL    HW126341   2.948   6.292   3.791  0.2192 -0.5241 -0.8706
 8300SOL    HW226342   2.955   6.282   3.640  0.7793 -0.1060 -0.8771
 8301SOL     OW26343   1.597   5.738   6.356  0.0058 -0.1770 -0.5210
 8301SOL    HW126344   1.688   5.766   6.358 -0.2670  0.7217  0.6712
 8301SOL    HW226345   1.561   5.779   6.278  0.4228  0.1387 -0.5528
 8302SOL     OW26346   7.972   3.566   3.626  0.1715 -0.1932 -0.0442
 8302SOL    HW126347   7.938   3.566   3.537 -0.3263  0.0576  0.1368
 8302SOL    HW226348   8.003   3.656   3.640  0.6733 -0.3504 -0.1164
 8303SOL     OW26349   3.398   4.415   0.126 -0.5381 -0.1923 -0.3976
 8303SOL    HW126350   3.440   4.465   0.196  0.7720 -3.3127  1.2362
 8303SOL    HW226351   3.452   4.336   0.117 -1.2539 -0.4399 -4.2704
 8304SOL     OW26352   6.714   7.830  10.170  0.2533  0.6633 -0.3416
 8304SOL    HW126353   6.785   7.863  10.115  2.1666 -0.8799  1.0262
 8304SOL    HW226354   6.660   7.778  10.110  0.1686  1.9429 -1.4321
 8305SOL     OW26355   6.248   4.998   1.175  0.0845  0.0843  0.5134
 8305SOL    HW126356   6.159   4.970   1.153 -0.4761  0.1716  2.4510
 8305SOL    HW226357   6.305   4.942   1.121 -1.0878 -2.0838  1.3782
 8306SOL     OW26358   2.441   5.628  11.585 -0.1462  0.1948  0.0993
 8306SOL    HW126359   2.417   5.605  11.674  0.7474 -0.5664  0.1594
 8306SOL    HW226360   2.515   5.688  11.595 -0.7797  1.0339 -0.1172
 8307SOL     OW26361   3.312   0.306   9.769  0.0976  0.3412 -0.0249
 8307SOL    HW126362   3.267   0.273   9.691 -0.1122  0.5129  0.0233
 8307SOL    HW226363   3.248   0.363   9.811  0.8045  1.6631 -0.6780
 8308SOL     OW26364   6.152   4.791  10.117  0.5437 -0.3924 -0.2251
 8308SOL    HW126365   6.130   4.842  10.194  1.7481  0.7446 -0.5937
 8308SOL    HW226366   6.157   4.701  10.148  0.6332  0.0022  0.9400
 8309SOL     OW26367   2.286   3.806   4.474 -0.4216  0.1892  0.0355
 8309SOL    HW126368   2.213   3.842   4.423 -0.4509  0.4899  0.2930
 8309SOL    HW226369   2.311   3.727   4.426  0.0079  0.8398 -0.8439
 8310SOL     OW26370   0.574   0.496   6.374  0.2848  0.1161 -0.6497
 8310SOL    HW126371   0.640   0.436   6.408 -0.1257 -0.2675 -0.5135
 8310SOL    HW226372   0.595   0.504   6.281  0.3628 -0.2184 -0.6628
 8311SOL     OW26373   4.688   7.592   3.568  0.2921  0.1276  0.8107
 8311SOL    HW126374   4.757   7.570   3.505  0.9711  1.0183  1.2304
 8311SOL    HW226375   4.608   7.595   3.515  0.9106  1.2310 -0.1062
 8312SOL     OW26376   2.389   4.013   2.078  0.3391 -0.1223 -0.5248
 8312SOL    HW126377   2.353   3.935   2.036  0.0563 -1.1797  1.5533
 8312SOL    HW226378   2.481   4.013   2.053 -0.2643  0.6616 -3.0453
 8313SOL     OW26379   7.523   3.868   8.705  0.0386  0.2813  0.1680
 8313SOL    HW126380   7.609   3.855   8.666  0.1327  0.3014  0.3657
 8313SOL    HW226381   7.510   3.963   8.703  0.0098  0.2764  0.1139
 8314SOL     OW26382   1.273   7.468  10.579 -0.3658  0.3698 -0.1049
 8314SOL    HW126383   1.269   7.485  10.485  0.9455  0.1131 -0.2197
 8314SOL    HW226384   1.340   7.401  10.589 -0.9686 -0.1063  0.9632
 8315SOL     OW26385   1.980   4.199  12.084  0.2851 -0.2072 -0.7028
 8315SOL    HW126386   2.068   4.185  12.120 -0.1386  0.0571  0.4821
 8315SOL    HW226387   1.996   4.241  11.999  1.3004  1.8786  0.4206
 8316SOL     OW26388   1.730   0.555   7.499  0.5413  0.3901  0.1832
 8316SOL    HW126389   1.825   0.544   7.500  0.7578  1.8475  1.6496
 8316SOL    HW226390   1.702   0.528   7.587 -0.4827 -0.4671 -0.3826
 8317SOL     OW26391   7.383   6.237   7.119 -0.0324 -0.5262  0.4087
 8317SOL    HW126392   7.414   6.268   7.033 -1.0086 -1.8343 -0.4464
 8317SOL    HW226393   7.293   6.209   7.103 -0.5524  0.0848  2.1008
 8318SOL     OW26394   6.551   3.982   1.193 -0.1272  0.0279  0.1704
 8318SOL    HW126395   6.589   4.044   1.255 -0.7311 -0.8039  1.4074
 8318SOL    HW226396   6.596   3.899   1.210 -0.1576 -0.1735 -0.6528
 8319SOL     OW26397   1.173   0.786   4.402  0.0235  0.1193  0.3587
 8319SOL    HW126398   1.094   0.840   4.395  0.1372  0.1272 -1.7423
 8319SOL    HW226399   1.150   0.705   4.355  0.8892 -0.3532  0.7236
 8320SOL     OW26400   1.024   4.979   5.384 -0.3772  0.2019  0.1001
 8320SOL    HW126401   0.947   5.005   5.435 -1.9352 -0.9998 -1.5058
 8320SOL    HW226402   1.094   4.973   5.449 -1.4205  2.0660  1.5090
 8321SOL     OW26403   3.140   2.727   0.679  0.2511 -0.5012 -0.2618
 8321SOL    HW126404   3.088   2.745   0.601 -1.0080  0.7311  0.8062
 8321SOL    HW226405   3.100   2.649   0.718  0.9297 -1.1633 -0.8765
 8322SOL     OW26406   3.484   1.633   0.658 -0.2548 -0.2012  0.3005
 8322SOL    HW126407   3.465   1.674   0.742 -0.6225 -1.1987  0.7256
 8322SOL    HW226408   3.407   1.651   0.604 -0.5337 -0.5514  0.5749
 8323SOL     OW26409   7.524   0.964   4.170 -0.2578 -0.0487  0.1064
 8323SOL    HW126410   7.429   0.954   4.167 -0.1329 -1.1163 -1.4309
 8323SOL    HW226411   7.558   0.887   4.124  1.3138  0.8514 -0.3171
 8324SOL     OW26412   7.122   2.555   6.483  0.1258  0.0231  0.2078
 8324SOL    HW126413   7.033   2.592   6.480  0.1059  0.0210  0.7101
 8324SOL    HW226414   7.110   2.467   6.518  0.1607 -0.5247 -1.0866
 8325SOL     OW26415   5.947   5.308   9.256 -0.3019 -0.0429 -0.2580
 8325SOL    HW126416   6.032   5.317   9.300 -1.2054  1.5203  1.2730
 8325SOL    HW226417   5.943   5.383   9.196 -0.0559 -0.8999 -1.3998
 8326SOL     OW26418   1.800   7.614  10.179 -0.1043  0.3889  0.2766
 8326SOL    HW126419   1.849   7.537  10.149  2.1960  1.2595  1.5551
 8326SOL    HW226420   1.793   7.603  10.274  1.1363  2.1416  0.6336
 8327SOL     OW26421   3.057   6.275   9.426  0.1939  0.3612 -0.0961
 8327SOL    HW126422   3.097   6.242   9.345 -0.8900  1.5023 -1.1509
 8327SOL    HW226423   3.047   6.369   9.411 -2.4638  0.2123  0.2459
 8328SOL     OW26424   6.907   1.189   9.024 -0.2774  0.2634  0.2741
 8328SOL    HW126425   6.847   1.260   9.002 -0.9153 -0.2324  0.3499
 8328SOL    HW226426   6.888   1.121   8.959  0.1639  0.0773  0.3377
 8329SOL     OW26427   2.649   2.544  11.675  0.4864 -0.1805 -0.0320
 8329SOL    HW126428   2.716   2.526  11.740 -0.0017 -1.2110  0.2094
 8329SOL    HW226429   2.591   2.608  11.716 -0.8273 -2.1030  1.3155
 8330SOL     OW26430   7.526   7.515   5.042 -0.8203 -0.1290 -0.1883
 8330SOL    HW126431   7.459   7.568   5.085 -0.5569 -0.2341  0.3582
 8330SOL    HW226432   7.547   7.563   4.962  1.0503  1.8303  1.3502
 8331SOL     OW26433   1.703   1.121   5.053 -0.6201  0.3224  0.5463
 8331SOL    HW126434   1.697   1.183   5.125 -1.0938  0.3430  0.4959
 8331SOL    HW226435   1.618   1.076   5.053  0.1574 -1.2129  1.3764
 8332SOL     OW26436   1.364   4.329   5.460  0.8207  0.1461 -0.6011
 8332SOL    HW126437   1.402   4.351   5.544  1.5777  0.0277 -0.9025
 8332SOL    HW226438   1.414   4.380   5.396 -1.6275  2.5012 -0.7713
 8333SOL     OW26439   3.696   5.319   3.549 -0.2533  0.3962 -0.2063
 8333SOL    HW126440   3.744   5.302   3.630 -1.7939  1.6991  1.0494
 8333SOL    HW226441   3.707   5.238   3.498  2.7401  0.4219  0.1975
 8334SOL     OW26442   3.214   6.406   0.476 -0.4505 -0.4801 -0.4976
 8334SOL    HW126443   3.243   6.364   0.395  0.9692 -0.5280  0.0024
 8334SOL    HW226444   3.264   6.362   0.545 -1.9689 -0.7575  0.4722
 8335SOL     OW26445   7.149   6.207   6.983 -0.0997 -0.1279 -0.1104
 8335SOL    HW126446   7.066   6.252   6.968 -0.6624 -1.2647 -0.4907
 8335SOL    HW226447   7.169   6.164   6.900  1.1265  0.5284 -0.1695
 8336SOL     OW26448   6.984   1.980   6.895 -0.3809 -0.1012  0.6836
 8336SOL    HW126449   7.043   1.911   6.866 -1.7360 -0.7193 -0.7598
 8336SOL    HW226450   7.032   2.025   6.964  0.8234 -2.0551  1.2088
 8337SOL     OW26451   6.435   5.658  11.842  0.0500 -0.1087 -0.1523
 8337SOL    HW126452   6.520   5.629  11.808  0.4734  0.3246  0.5243
 8337SOL    HW226453   6.425   5.747  11.808 -0.2501 -0.2429 -0.4247
 8338SOL     OW26454   5.483   0.003   4.041  0.3482  0.1412 -0.1721
 8338SOL    HW126455   5.542   0.070   4.006  0.5916 -0.4555 -0.9435
 8338SOL    HW226456   5.405   0.051   4.068 -0.0061  0.6219 -1.9021
 8339SOL     OW26457   4.210   5.302   6.388 -0.0552  0.0479 -0.2870
 8339SOL    HW126458   4.202   5.210   6.414 -0.4874  0.0331 -0.4672
 8339SOL    HW226459   4.123   5.338   6.402  0.1354  0.4500 -0.1434
 8340SOL     OW26460   2.317   1.190   1.017 -0.1781  0.1653 -0.2493
 8340SOL    HW126461   2.303   1.193   1.111  0.7055 -1.1933 -0.0296
 8340SOL    HW226462   2.284   1.273   0.984 -1.1478  0.3692  1.1632
 8341SOL     OW26463   5.991   7.225   0.083 -0.3115 -0.3261 -0.3377
 8341SOL    HW126464   6.064   7.164   0.070  0.9624  0.6475  1.6322
 8341SOL    HW226465   6.028   7.293   0.140 -2.3230  1.0745 -0.6332
 8342SOL     OW26466   6.754   0.276  10.662  0.1576 -0.4611 -0.1499
 8342SOL    HW126467   6.695   0.351  10.670 -0.7124 -0.8721 -1.9998
 8342SOL    HW226468   6.744   0.248  10.571  2.1825 -1.4224 -0.1185
 8343SOL     OW26469   5.657   2.661   9.897  0.2481  0.3149 -1.0504
 8343SOL    HW126470   5.669   2.570   9.869 -1.5851 -0.0201 -0.8135
 8343SOL    HW226471   5.699   2.665   9.984 -2.8497 -1.3592  0.6772
 8344SOL     OW26472   0.017   7.679  10.797 -0.4106  0.0073 -0.4120
 8344SOL    HW126473  -0.039   7.755  10.779 -0.9410 -0.2742  0.0301
 8344SOL    HW226474   0.081   7.680  10.726 -0.8961  0.4101 -0.8590
 8345SOL     OW26475   4.979   0.803  10.242 -0.1385  0.2865 -0.2449
 8345SOL    HW126476   5.067   0.819  10.277 -0.9362  2.1993  1.0544
 8345SOL    HW226477   4.931   0.764  10.315 -0.6279  0.1695 -0.6257
 8346SOL     OW26478   2.667   0.146   7.239  0.2840 -0.0691  0.2440
 8346SOL    HW126479   2.609   0.125   7.166  0.1962  0.2714  0.2159
 8346SOL    HW226480   2.709   0.228   7.213 -0.1764  0.3574  0.8234
 8347SOL     OW26481   5.348   3.452   6.645 -0.3008  0.2151  0.1564
 8347SOL    HW126482   5.254   3.465   6.634 -0.1430  0.5634 -0.9596
 8347SOL    HW226483   5.367   3.373   6.595  0.1302  0.6464 -0.3808
 8348SOL     OW26484   7.637   0.525   6.379  1.0663 -0.1124  0.4000
 8348SOL    HW126485   7.663   0.488   6.463  0.0284 -0.1172  0.7351
 8348SOL    HW226486   7.542   0.514   6.377  1.1338 -0.6490 -1.0280
 8349SOL     OW26487   6.064   1.961   9.925 -0.2880  0.4671 -0.1045
 8349SOL    HW126488   6.014   1.898   9.978  0.2088  0.2604  0.1268
 8349SOL    HW226489   6.142   1.979   9.977 -0.9379  2.1396  0.3441
 8350SOL     OW26490   0.347   0.790   4.180 -0.3617 -0.2164 -0.2766
 8350SOL    HW126491   0.361   0.767   4.088 -0.8446 -1.3622 -0.0848
 8350SOL    HW226492   0.349   0.706   4.226 -1.8452  0.1499  0.5244
 8351SOL     OW26493   3.690   4.054   6.279  0.0953  0.0892 -0.6649
 8351SOL    HW126494   3.681   3.973   6.329  0.2793  0.5460  0.1290
 8351SOL    HW226495   3.616   4.054   6.218 -0.0257 -0.5651 -0.5187
 8352SOL     OW26496   0.027   7.482   6.824 -0.6717  0.1662  0.3865
 8352SOL    HW126497  -0.059   7.523   6.825 -0.3912  0.7880 -0.0433
 8352SOL    HW226498   0.010   7.388   6.817 -1.2980  0.3345 -0.4391
 8353SOL     OW26499   2.101   4.795   9.763  0.0834  0.2051  0.1799
 8353SOL    HW126500   2.122   4.704   9.784 -0.3233 -0.0390 -0.4386
 8353SOL    HW226501   2.159   4.847   9.819 -0.2109 -0.4189  1.0892
 8354SOL     OW26502   6.830   3.691   5.172  1.0064  0.1975 -0.3226
 8354SOL    HW126503   6.775   3.766   5.194  0.2007 -0.4264 -0.1283
 8354SOL    HW226504   6.863   3.660   5.257  0.2894 -0.4302 -0.2583
 8355SOL     OW26505   7.085   3.518   8.975  0.3379 -0.6946  0.2299
 8355SOL    HW126506   7.151   3.502   8.908  1.4741 -2.2272  1.6312
 8355SOL    HW226507   7.131   3.568   9.042 -0.4198 -0.2892  0.4591
 8356SOL     OW26508   1.036   1.589   4.929 -0.1052 -0.3636  0.5611
 8356SOL    HW126509   1.099   1.525   4.964 -0.3672 -0.5950  0.6106
 8356SOL    HW226510   0.981   1.538   4.869 -1.6909 -0.6769  2.1936
 8357SOL     OW26511   1.939   6.402   9.674 -0.3356 -0.3448  0.3517
 8357SOL    HW126512   1.876   6.466   9.705 -1.5853 -1.3709  0.0197
 8357SOL    HW226513   2.012   6.409   9.736 -2.3084 -1.6295  3.0412
 8358SOL     OW26514   5.071   5.297   0.730  0.1028  0.2612 -0.1247
 8358SOL    HW126515   5.152   5.303   0.781  1.5107 -0.2005 -2.1553
 8358SOL    HW226516   5.096   5.325   0.642 -2.3964  1.8163 -0.4376
 8359SOL     OW26517   7.048   4.059   7.243 -0.7148  0.2002 -0.9539
 8359SOL    HW126518   7.092   4.067   7.327 -0.0103 -0.3174 -1.2639
 8359SOL    HW226519   7.032   4.149   7.215 -2.3875  0.3767  0.4519
 8360SOL     OW26520   6.291   0.681   9.412  0.0156  0.0566  0.1024
 8360SOL    HW126521   6.260   0.608   9.466  0.6248 -1.0322 -0.9708
 8360SOL    HW226522   6.364   0.645   9.362 -0.6560  0.9581 -1.6074
 8361SOL     OW26523   5.943   7.763  11.899  0.1493  0.7713  0.5366
 8361SOL    HW126524   5.883   7.805  11.960 -0.2892  1.1181 -0.1225
 8361SOL    HW226525   5.887   7.706  11.846  0.2609  1.7252 -0.6334
 8362SOL     OW26526   1.050   4.877   6.348 -0.5780  1.0557 -0.2489
 8362SOL    HW126527   0.966   4.922   6.359  0.6010  3.0535  1.3013
 8362SOL    HW226528   1.038   4.824   6.269 -3.8148 -0.0622  0.8314
 8363SOL     OW26529   4.752   2.386   4.971  0.2756 -0.0983 -0.1988
 8363SOL    HW126530   4.751   2.332   5.050  0.0243 -2.0167 -1.4420
 8363SOL    HW226531   4.660   2.408   4.956  0.3886  0.8098  0.3646
 8364SOL     OW26532   0.787   0.608   8.079  0.1743  0.1314 -0.4106
 8364SOL    HW126533   0.731   0.636   8.006 -1.4495 -0.6417  0.4709
 8364SOL    HW226534   0.790   0.684   8.137  0.1502  0.2244 -0.5319
 8365SOL     OW26535   6.895   1.130   5.849 -0.3299  0.0447 -0.8003
 8365SOL    HW126536   6.964   1.083   5.897  0.1589  2.7049  1.3070
 8365SOL    HW226537   6.814   1.099   5.888 -0.1147 -0.1706 -0.5185
 8366SOL     OW26538   2.379   6.575   1.938  0.3004 -0.0861 -0.3061
 8366SOL    HW126539   2.352   6.508   1.875 -1.1676  0.2737 -0.1040
 8366SOL    HW226540   2.354   6.538   2.023 -0.8304  0.8123 -0.2126
 8367SOL     OW26541   4.228   1.844   2.923 -0.1934  0.1721  0.4119
 8367SOL    HW126542   4.183   1.874   3.003 -2.8530 -1.4557 -0.3430
 8367SOL    HW226543   4.273   1.764   2.949 -2.8319 -1.5802 -0.0529
 8368SOL     OW26544   1.982   7.175   5.047 -0.0518 -0.0172  0.1112
 8368SOL    HW126545   1.972   7.081   5.062 -0.5097 -0.0590 -0.4126
 8368SOL    HW226546   1.928   7.193   4.970 -0.2767  0.7445  0.4368
 8369SOL     OW26547   5.562   4.198   6.029  0.4491 -0.7301  0.1423
 8369SOL    HW126548   5.570   4.127   5.966  0.8959 -0.4097 -0.1672
 8369SOL    HW226549   5.514   4.266   5.983 -1.2356 -1.3628  0.9051
 8370SOL     OW26550   5.672   4.579  11.095  0.5459  0.4883 -0.5676
 8370SOL    HW126551   5.693   4.661  11.140 -1.3588 -0.2606  1.8907
 8370SOL    HW226552   5.708   4.510  11.152  0.6684 -0.4492 -1.7411
 8371SOL     OW26553   4.560   7.870   8.851  0.4452 -0.6070  0.5226
 8371SOL    HW126554   4.549   7.823   8.934 -2.3501 -0.4758  0.3198
 8371SOL    HW226555   4.542   7.961   8.873  0.8051 -0.3998 -0.0284
 8372SOL     OW26556   2.194   3.024   4.100  0.0323 -0.0034  0.1519
 8372SOL    HW126557   2.100   3.043   4.102 -0.2068 -1.0975  2.0612
 8372SOL    HW226558   2.235   3.097   4.147  0.3306  1.1920 -1.8864
 8373SOL     OW26559   2.272   5.827   1.084  0.0413 -0.1120  0.0589
 8373SOL    HW126560   2.332   5.792   1.150 -0.9117  0.4097  1.2208
 8373SOL    HW226561   2.238   5.908   1.121 -0.8319 -0.0122 -0.8997
 8374SOL     OW26562   7.962   0.435  11.476 -0.7311  0.2438  0.3690
 8374SOL    HW126563   7.882   0.421  11.425  0.7941 -0.4536 -2.0050
 8374SOL    HW226564   7.981   0.529  11.466 -0.9793  0.3051  0.4820
 8375SOL     OW26565   3.937   4.994   3.267  0.0119 -0.1057 -0.0729
 8375SOL    HW126566   4.032   5.002   3.259  0.0384  0.3177  0.5613
 8375SOL    HW226567   3.913   4.924   3.206  0.8297 -0.7444  0.3260
 8376SOL     OW26568   2.740   7.644   3.224  0.0242 -0.1753 -0.0604
 8376SOL    HW126569   2.651   7.614   3.241  0.2444  0.3077  2.2410
 8376SOL    HW226570   2.796   7.589   3.278  1.1461 -0.3662 -1.3416
 8377SOL     OW26571   1.234   1.332   0.547  0.4484 -0.4552  0.1020
 8377SOL    HW126572   1.279   1.402   0.500  0.1776  0.7425  1.5267
 8377SOL    HW226573   1.141   1.354   0.538  0.0536 -2.7190 -2.5418
 8378SOL     OW26574   1.366   6.168   1.639 -0.2653 -0.1302 -0.1276
 8378SOL    HW126575   1.407   6.095   1.593  1.2129  0.4637  0.1807
 8378SOL    HW226576   1.390   6.156   1.731  1.3566  1.5182 -0.2636
 8379SOL     OW26577   2.424   2.680   1.113 -0.0599  0.2869 -0.2004
 8379SOL    HW126578   2.463   2.698   1.027 -0.3229  1.4210 -0.0944
 8379SOL    HW226579   2.473   2.605   1.146  0.1448 -0.0696 -1.2741
 8380SOL     OW26580   3.958   4.299   5.422  0.0447 -0.3728  0.4571
 8380SOL    HW126581   3.893   4.341   5.479 -0.9096 -0.9785 -0.1501
 8380SOL    HW226582   4.023   4.367   5.406 -1.0048  0.6149  0.2225
 8381SOL     OW26583   5.435   5.462  11.141  0.0419  0.2616  0.1481
 8381SOL    HW126584   5.392   5.493  11.062  1.0008  0.0639 -0.4713
 8381SOL    HW226585   5.441   5.367  11.130  0.3846  0.2560  0.3480
 8382SOL     OW26586   0.929   0.846   7.269  0.3379 -0.5471  1.0037
 8382SOL    HW126587   0.975   0.906   7.212  0.5678  0.1675  1.9244
 8382SOL    HW226588   0.903   0.774   7.211 -0.6389  0.7805 -0.2963
 8383SOL     OW26589   2.390   4.065  12.380  0.2526  0.2065  0.1452
 8383SOL    HW126590   2.431   4.061  12.294 -0.2791 -0.0195 -0.1004
 8383SOL    HW226591   2.431   3.993  12.429 -0.9856 -1.0716 -0.6130
 8384SOL     OW26592   3.329   2.560   8.295 -0.2070  0.6740  0.2673
 8384SOL    HW126593   3.259   2.523   8.349 -3.2645  0.7814 -3.2061
 8384SOL    HW226594   3.347   2.645   8.334 -2.3594  0.8285  1.0714
 8385SOL     OW26595   7.097   0.529   9.937  0.4586  0.3568  0.1082
 8385SOL    HW126596   7.015   0.529   9.888  0.4419 -2.3605 -0.0010
 8385SOL    HW226597   7.070   0.543  10.028  0.0139  0.5481 -0.0476
 8386SOL     OW26598   5.799   3.410   0.793 -0.3478 -0.4583 -0.0349
 8386SOL    HW126599   5.816   3.341   0.858 -0.6716 -0.7096 -0.2159
 8386SOL    HW226600   5.806   3.366   0.709 -1.0719 -0.3800 -0.1357
 8387SOL     OW26601   4.099   0.267   6.530 -0.3288  0.3293 -0.3783
 8387SOL    HW126602   4.146   0.318   6.597  0.3416  1.6269 -1.7914
 8387SOL    HW226603   4.167   0.215   6.488 -0.8300 -0.8678  0.2536
 8388SOL     OW26604   7.523   1.428   6.111 -0.0202 -0.0614  0.0376
 8388SOL    HW126605   7.522   1.454   6.019 -1.4395 -0.8656 -0.2027
 8388SOL    HW226606   7.467   1.493   6.155 -2.8996 -2.0139 -0.4315
 8389SOL     OW26607   5.721   4.873   7.189  0.4214  0.1745  0.1821
 8389SOL    HW126608   5.772   4.838   7.262 -0.6272 -1.3915  0.2276
 8389SOL    HW226609   5.778   4.864   7.113  0.9456  0.3292  0.5564
 8390SOL     OW26610   7.296   1.893   0.940  0.1511  0.1093  1.0358
 8390SOL    HW126611   7.261   1.820   0.991 -1.3984 -0.5261 -0.8073
 8390SOL    HW226612   7.233   1.905   0.869  1.1737  2.2505  0.3985
 8391SOL     OW26613   5.521   2.788   6.556 -0.0756 -0.3155  0.2242
 8391SOL    HW126614   5.584   2.791   6.628 -0.2697 -0.8759  0.4258
 8391SOL    HW226615   5.567   2.828   6.482  0.8863 -1.5607  0.1027
 8392SOL     OW26616   5.520   3.787   1.511  0.4770 -0.5471 -0.0460
 8392SOL    HW126617   5.474   3.703   1.516  0.5693 -0.5477  1.2316
 8392SOL    HW226618   5.599   3.768   1.460  0.7720 -1.3885  0.6904
 8393SOL     OW26619   4.790   1.683   9.710  0.4267  0.3099 -0.1352
 8393SOL    HW126620   4.822   1.614   9.652  0.7724 -0.7869  1.3108
 8393SOL    HW226621   4.821   1.657   9.797 -1.2194  1.1898  0.7490
 8394SOL     OW26622   1.683   5.030   3.678  0.2003 -0.0702 -0.2732
 8394SOL    HW126623   1.605   5.066   3.634  0.7305  1.7855  0.1991
 8394SOL    HW226624   1.648   4.967   3.741 -1.0028  1.1579  0.3407
 8395SOL     OW26625   0.729   4.228   0.934 -0.0357 -0.0153  0.2753
 8395SOL    HW126626   0.654   4.170   0.945  0.4133 -0.8192 -0.7575
 8395SOL    HW226627   0.800   4.171   0.904  0.9656  0.7525  1.0989
 8396SOL     OW26628   2.620   6.761  10.061 -0.5931  0.0152 -0.5146
 8396SOL    HW126629   2.662   6.829  10.113  1.4401 -0.3054 -1.6098
 8396SOL    HW226630   2.661   6.680  10.091  1.8270 -0.0578 -3.5039
 8397SOL     OW26631   0.353   1.670   7.636  0.4483  0.0192  0.7421
 8397SOL    HW126632   0.439   1.710   7.621  0.4493  0.0786  0.9147
 8397SOL    HW226633   0.290   1.735   7.604  0.4714 -0.0762  0.4983
 8398SOL     OW26634   1.503   5.600   7.810 -0.1531  0.1048  0.3564
 8398SOL    HW126635   1.551   5.624   7.731 -1.3495  2.9422  0.3879
 8398SOL    HW226636   1.567   5.613   7.881 -0.1453  1.2282  0.1591
 8399SOL     OW26637   7.198   1.743   5.234 -0.4139 -0.4762 -0.2827
 8399SOL    HW126638   7.219   1.708   5.321 -1.7848 -0.1994  0.1951
 8399SOL    HW226639   7.103   1.752   5.235 -0.4209 -0.1679 -1.7135
 8400SOL     OW26640   6.007   3.256   7.522 -0.2625  0.1905  0.0550
 8400SOL    HW126641   6.018   3.351   7.517 -0.4268  0.2401  0.5653
 8400SOL    HW226642   5.938   3.243   7.587 -1.1188 -0.2310 -0.8977
 8401SOL     OW26643   0.488   0.145   2.413  0.6491 -0.1578  0.2398
 8401SOL    HW126644   0.437   0.091   2.473 -0.6744  1.2839  0.4514
 8401SOL    HW226645   0.578   0.112   2.423  0.3231 -0.5740  2.3024
 8402SOL     OW26646   3.394   5.644   1.953  0.3616  0.3110  0.4651
 8402SOL    HW126647   3.485   5.676   1.953  1.2004 -1.8994  0.1216
 8402SOL    HW226648   3.373   5.630   2.045  0.2708  1.0212  0.5596
 8403SOL     OW26649   2.230   5.819  10.687  0.3007 -0.3487  0.2369
 8403SOL    HW126650   2.241   5.914  10.681  0.7527 -0.2674  1.8336
 8403SOL    HW226651   2.135   5.807  10.691  0.2276  0.0001 -0.3461
 8404SOL     OW26652   6.705   0.921  10.637  0.2034 -0.0822  0.4270
 8404SOL    HW126653   6.768   0.974  10.686  1.5660 -0.9923 -0.2693
 8404SOL    HW226654   6.646   0.985  10.598  0.7033  0.8072  1.0685
 8405SOL     OW26655   0.225   0.272  11.885  0.0757  0.1695 -0.3451
 8405SOL    HW126656   0.187   0.312  11.806 -0.2640  0.3977 -0.0698
 8405SOL    HW226657   0.316   0.254  11.861 -0.4504 -1.3150 -1.3512
 8406SOL     OW26658   5.433   4.405  11.623  0.7344  0.0961  0.0648
 8406SOL    HW126659   5.410   4.456  11.700 -0.6529 -3.0125  1.8943
 8406SOL    HW226660   5.354   4.406  11.569  0.7928  0.1041 -0.0210
 8407SOL     OW26661   4.039   7.698   0.779 -0.3930  0.1500 -0.0872
 8407SOL    HW126662   3.972   7.678   0.714 -2.0424 -2.7229  2.2473
 8407SOL    HW226663   4.116   7.648   0.751 -0.2097  0.9539 -1.0929
 8408SOL     OW26664   2.168   6.433  12.222  0.4203 -0.9856 -0.6964
 8408SOL    HW126665   2.218   6.410  12.300 -0.5352 -1.0619 -0.0903
 8408SOL    HW226666   2.188   6.525  12.206  0.9747 -1.0961 -0.6300
 8409SOL     OW26667   5.214   6.091  12.133 -0.0556 -0.5944  0.3553
 8409SOL    HW126668   5.124   6.111  12.110 -0.7258 -2.4172  1.2186
 8409SOL    HW226669   5.245   6.169  12.180 -1.3613 -0.1818  0.5534
 8410SOL     OW26670   3.139   7.524   1.163 -0.0737  0.4057  0.8155
 8410SOL    HW126671   3.068   7.467   1.192  2.0174 -1.0674  3.4549
 8410SOL    HW226672   3.096   7.608   1.145 -3.1245 -1.5447 -2.2402
 8411SOL     OW26673   5.553   6.113   0.920 -0.3465  0.5367 -0.2000
 8411SOL    HW126674   5.642   6.138   0.943 -0.1913  0.2854 -0.5218
 8411SOL    HW226675   5.559   6.020   0.898 -0.5432  0.6935 -0.9576
 8412SOL     OW26676   7.364   0.446   6.686  0.3973  0.2600  0.1033
 8412SOL    HW126677   7.459   0.437   6.678  0.5435  2.1976 -0.9517
 8412SOL    HW226678   7.330   0.374   6.632  1.2902  0.3389 -0.6107
 8413SOL     OW26679   1.956   1.556   4.557 -0.8516  0.4403 -0.2293
 8413SOL    HW126680   1.863   1.567   4.575 -0.9344  1.8649 -1.3366
 8413SOL    HW226681   1.967   1.463   4.538 -2.3076  0.4950 -1.4517
 8414SOL     OW26682   3.472   4.178   0.006  0.7119 -0.5731 -0.4308
 8414SOL    HW126683   3.564   4.190  -0.016  0.6974 -1.7250 -1.2068
 8414SOL    HW226684   3.458   4.083   0.001 -0.8497 -0.3170 -1.7961
 8415SOL     OW26685   4.649   0.397   8.797 -0.2435  0.1062  0.2599
 8415SOL    HW126686   4.620   0.425   8.711 -0.2032 -1.9578 -0.4672
 8415SOL    HW226687   4.743   0.415   8.798 -0.5189  1.7901  0.6077
 8416SOL     OW26688   0.816   1.899   5.840  0.1349  0.0536  0.2201
 8416SOL    HW126689   0.725   1.882   5.865  0.2834 -0.1108  0.6538
 8416SOL    HW226690   0.815   1.899   5.744 -0.0887 -1.2564  0.2080
 8417SOL     OW26691   5.154   2.741   5.800 -1.0034 -0.2211  0.0073
 8417SOL    HW126692   5.134   2.785   5.882  0.2287  1.5069 -0.5562
 8417SOL    HW226693   5.139   2.808   5.733  0.7645 -0.6850 -0.9034
 8418SOL     OW26694   4.176   6.435   4.636 -0.6072  0.2326  0.1937
 8418SOL    HW126695   4.237   6.372   4.675 -1.7448 -0.9860  0.1159
 8418SOL    HW226696   4.192   6.429   4.542 -2.0873 -1.5800 -0.0270
 8419SOL     OW26697   1.364   7.769   5.022  0.2118 -0.0483  0.2368
 8419SOL    HW126698   1.280   7.814   5.007  0.1933  0.2305  1.1515
 8419SOL    HW226699   1.376   7.715   4.944  0.2955  1.6328 -0.9716
 8420SOL     OW26700   0.181   1.784   4.204 -0.2707  0.1408  0.1836
 8420SOL    HW126701   0.108   1.722   4.201  0.7951 -1.1335 -1.4847
 8420SOL    HW226702   0.183   1.822   4.116  0.1240  1.3457  0.6913
 8421SOL     OW26703   7.075   6.152   2.464 -0.4001 -0.1781  0.0714
 8421SOL    HW126704   7.091   6.090   2.535  0.7601  1.5120  1.3648
 8421SOL    HW226705   7.093   6.102   2.384 -1.0801 -1.9335  0.9603
 8422SOL     OW26706   2.093   3.583   7.236  0.7760 -0.3821 -0.0478
 8422SOL    HW126707   2.039   3.547   7.306 -0.9051  2.7714  0.4725
 8422SOL    HW226708   2.049   3.556   7.156  1.1888 -1.7771  0.1707
 8423SOL     OW26709   6.113   2.183  10.429  0.0947 -0.2552  0.5047
 8423SOL    HW126710   6.196   2.139  10.447 -0.1330 -0.5864  0.7492
 8423SOL    HW226711   6.102   2.246  10.501 -0.9074 -1.7086  1.6755
 8424SOL     OW26712   0.905   5.391   4.417  0.2291 -0.4306  0.4148
 8424SOL    HW126713   0.867   5.332   4.482  0.9085  0.9450  2.1581
 8424SOL    HW226714   0.847   5.467   4.416 -0.0804 -0.6624 -1.0360
 8425SOL     OW26715   2.624   6.948   7.964  0.3969 -0.1526 -0.4209
 8425SOL    HW126716   2.639   6.935   7.870  1.1384 -0.6718 -0.2397
 8425SOL    HW226717   2.631   7.043   7.976  2.9818 -0.2708 -0.4845
 8426SOL     OW26718   1.201   3.497   9.178  0.1505 -0.1105 -0.1270
 8426SOL    HW126719   1.264   3.431   9.206 -0.4451 -1.2765 -1.4105
 8426SOL    HW226720   1.169   3.465   9.093 -0.8221  1.3759 -0.3573
 8427SOL     OW26721   3.286   5.524   8.624  0.4363 -0.2697 -0.4818
 8427SOL    HW126722   3.284   5.428   8.620  3.0280 -0.4064 -0.3675
 8427SOL    HW226723   3.219   5.552   8.563  0.7328 -2.1881 -1.7811
 8428SOL     OW26724   6.204   3.405   5.922  0.5393 -0.2247  0.4417
 8428SOL    HW126725   6.165   3.374   5.840  1.0564 -0.9527  0.4566
 8428SOL    HW226726   6.141   3.468   5.956 -0.7528 -1.5508  0.6007
 8429SOL     OW26727   5.624   5.018   7.904 -0.2034  0.6190  0.1179
 8429SOL    HW126728   5.666   5.093   7.946  0.5338  0.1882  0.1613
 8429SOL    HW226729   5.619   5.043   7.811  1.7001  0.0084 -0.1888
 8430SOL     OW26730   1.122   0.489   0.440 -0.2058 -0.0066  0.5271
 8430SOL    HW126731   1.150   0.427   0.507 -1.1252  0.6740  1.5599
 8430SOL    HW226732   1.051   0.538   0.480 -0.6604  0.5382 -0.8925
 8431SOL     OW26733   0.331   2.199   0.357 -0.1224  0.3220 -0.0378
 8431SOL    HW126734   0.411   2.202   0.305 -1.8278 -0.7416 -2.9470
 8431SOL    HW226735   0.298   2.289   0.354  1.1873  0.9141  1.7067
 8432SOL     OW26736   3.889   0.188  10.796 -0.4183  0.5077 -0.4712
 8432SOL    HW126737   3.897   0.240  10.876  0.3080 -0.8973  0.4111
 8432SOL    HW226738   3.880   0.098  10.826  1.1281 -0.2227 -1.9687
 8433SOL     OW26739   7.261   3.431   7.378  0.2047 -0.0016 -0.6589
 8433SOL    HW126740   7.295   3.520   7.383  1.3914 -0.5110  1.3524
 8433SOL    HW226741   7.171   3.438   7.407  0.8054  0.3318  1.2484
 8434SOL     OW26742   1.801   4.087   5.166 -0.2893 -0.6468 -0.0794
 8434SOL    HW126743   1.781   4.082   5.259 -1.2664  0.1310 -0.2232
 8434SOL    HW226744   1.776   4.001   5.132 -1.7364 -0.3314  0.0856
 8435SOL     OW26745   5.339   3.666   4.909  0.2396  0.7145  0.3303
 8435SOL    HW126746   5.388   3.662   4.992 -0.6421  3.5386  1.1088
 8435SOL    HW226747   5.396   3.716   4.850  0.3611 -0.2890 -0.4333
 8436SOL     OW26748   3.013   5.691   0.806  0.4112 -0.4099  0.1299
 8436SOL    HW126749   2.938   5.716   0.752  0.6000  0.6346  0.3333
 8436SOL    HW226750   3.083   5.675   0.743  0.6917  1.0248  0.0560
 8437SOL     OW26751   4.378   6.328   4.861  0.3482  0.8679 -0.0386
 8437SOL    HW126752   4.350   6.253   4.809  1.2331  0.1773  0.4648
 8437SOL    HW226753   4.474   6.325   4.860  0.3962  1.0190  1.3581
 8438SOL     OW26754   3.404   0.682   7.246 -0.1315 -0.0135 -0.2281
 8438SOL    HW126755   3.430   0.648   7.161  0.2202 -1.7856  0.5611
 8438SOL    HW226756   3.399   0.777   7.233 -0.4941 -0.2732 -2.3161
 8439SOL     OW26757   3.284   2.271   8.611  0.5451 -0.5314  0.1271
 8439SOL    HW126758   3.376   2.289   8.592  0.5074 -1.0472 -0.5448
 8439SOL    HW226759   3.235   2.323   8.547  0.3850 -0.8809 -0.0354
 8440SOL     OW26760   2.458   3.425   5.267  0.3133  0.1970  0.3538
 8440SOL    HW126761   2.496   3.487   5.205 -1.1251 -0.8502 -1.6785
 8440SOL    HW226762   2.380   3.469   5.300 -0.8597 -0.5920 -1.2985
 8441SOL     OW26763   4.346   1.932  12.018  0.0312 -0.0175 -0.3174
 8441SOL    HW126764   4.291   1.886  11.956  0.6633 -0.0520 -0.8715
 8441SOL    HW226765   4.326   1.893  12.103  0.3671 -1.1250 -0.7395
 8442SOL     OW26766   0.985   1.113   9.598 -0.0759  0.0939  0.2193
 8442SOL    HW126767   0.933   1.069   9.665  2.2935 -5.0290 -0.8182
 8442SOL    HW226768   0.927   1.118   9.521 -1.1054  1.0540  1.0240
 8443SOL     OW26769   7.915   2.261   1.486  0.1047  0.6103 -0.0458
 8443SOL    HW126770   7.854   2.316   1.535 -2.5817 -0.6033 -1.7897
 8443SOL    HW226771   7.926   2.183   1.540 -0.6178  0.4704 -0.0901
 8444SOL     OW26772   7.391   6.121   8.143 -0.1289 -0.8526  0.2963
 8444SOL    HW126773   7.316   6.088   8.094 -0.0029 -0.9923  0.1973
 8444SOL    HW226774   7.395   6.214   8.121 -0.4022 -0.8003  0.4682
 8445SOL     OW26775   1.735   2.411   4.511 -0.1055 -0.0087 -0.1846
 8445SOL    HW126776   1.818   2.407   4.559 -0.0198  3.3383  0.1935
 8445SOL    HW226777   1.682   2.340   4.548  0.8815  0.7838  3.0606
 8446SOL     OW26778   5.523   5.663  12.252 -0.5155  0.0185 -0.0354
 8446SOL    HW126779   5.486   5.751  12.260  0.0719  0.1782  1.0743
 8446SOL    HW226780   5.571   5.649  12.333 -1.6181 -1.8195  0.3706
 8447SOL     OW26781   6.512   4.347   2.842  0.0206 -0.3817 -0.2304
 8447SOL    HW126782   6.531   4.303   2.925 -3.2390 -1.0037  0.3079
 8447SOL    HW226783   6.505   4.440   2.865 -0.5775 -0.5164  0.1616
 8448SOL     OW26784   1.337   3.261   7.380 -0.0249 -0.2901 -0.1131
 8448SOL    HW126785   1.255   3.234   7.339 -0.5376  0.1346  0.5957
 8448SOL    HW226786   1.379   3.180   7.408 -0.7126 -0.4495  0.4611
 8449SOL     OW26787   2.961   0.132   4.464 -0.5746  0.0274  0.2989
 8449SOL    HW126788   2.894   0.201   4.460 -3.0074 -2.1711  0.0578
 8449SOL    HW226789   2.970   0.102   4.374 -0.8195 -1.0267  0.6059
 8450SOL     OW26790   1.840   2.084   5.507 -0.2891 -0.1269  0.0875
 8450SOL    HW126791   1.744   2.078   5.501 -0.4105  1.7690 -0.5500
 8450SOL    HW226792   1.872   2.024   5.440 -1.0562  0.1139 -0.5097
 8451SOL     OW26793   1.704   0.582   3.092 -0.2274 -0.2337  0.2682
 8451SOL    HW126794   1.655   0.643   3.038 -2.0216 -0.0910  1.9456
 8451SOL    HW226795   1.666   0.590   3.180  0.8779 -2.2378  1.0217
 8452SOL     OW26796   6.498   2.495  11.864  0.1297 -0.4769 -0.2922
 8452SOL    HW126797   6.451   2.518  11.944 -0.9399 -0.6348 -0.8663
 8452SOL    HW226798   6.505   2.578  11.816  0.2771 -0.4901 -0.2941
 8453SOL     OW26799   7.648   2.294   5.259  0.1117  0.0564  1.2174
 8453SOL    HW126800   7.673   2.217   5.310 -2.1002  0.5319  3.1897
 8453SOL    HW226801   7.638   2.364   5.324  2.5432  2.2326 -0.5607
 8454SOL     OW26802   5.329   1.541  11.170  0.4568 -0.0096  0.4018
 8454SOL    HW126803   5.372   1.456  11.180 -1.0947 -0.8350  0.3689
 8454SOL    HW226804   5.389   1.592  11.114  0.3525 -1.9128 -1.5731
 8455SOL     OW26805   2.305   7.855  12.177 -0.3426 -0.7643  0.2982
 8455SOL    HW126806   2.326   7.825  12.088 -0.8535 -1.5507  0.4290
 8455SOL    HW226807   2.338   7.785  12.234  1.2944  0.3974  0.8539
 8456SOL     OW26808   3.338   3.577   3.087 -0.2786  0.1634  0.1328
 8456SOL    HW126809   3.303   3.488   3.085 -2.5029  0.9317  1.1691
 8456SOL    HW226810   3.324   3.606   3.178  0.2393  1.6182 -0.2250
 8457SOL     OW26811   7.679   5.212   8.964  0.1529 -0.2049 -0.1494
 8457SOL    HW126812   7.585   5.195   8.969 -0.0059  0.8163  0.6502
 8457SOL    HW226813   7.703   5.185   8.875 -0.7137 -1.3131 -0.0745
 8458SOL     OW26814   6.794   6.120   9.422 -0.4637  0.7929 -0.0349
 8458SOL    HW126815   6.889   6.121   9.411 -0.1623  1.3968  2.1029
 8458SOL    HW226816   6.770   6.028   9.426  0.3844  0.6020  1.5618
 8459SOL     OW26817   2.528   7.207   6.870  0.2682 -0.3041 -0.5175
 8459SOL    HW126818   2.587   7.133   6.882 -0.0308 -0.3705  0.6625
 8459SOL    HW226819   2.473   7.182   6.796 -1.2554 -2.2645  1.1465
 8460SOL     OW26820   7.582   2.255   8.746  0.3547 -0.1872  0.4400
 8460SOL    HW126821   7.606   2.204   8.668 -1.1500 -2.1728  1.1740
 8460SOL    HW226822   7.582   2.190   8.817  0.3625  1.2951  1.8367
 8461SOL     OW26823   5.443   1.996   0.084 -0.5975  0.3980 -0.2540
 8461SOL    HW126824   5.529   2.028   0.111 -0.5275 -0.4580  0.5817
 8461SOL    HW226825   5.394   1.987   0.165 -0.9295 -0.6690 -0.5575
 8462SOL     OW26826   0.384   1.852   0.326  0.0072  0.2693  0.5101
 8462SOL    HW126827   0.311   1.896   0.283  0.4158  0.9266  0.4685
 8462SOL    HW226828   0.392   1.895   0.411 -1.0398 -1.2831  1.4370
 8463SOL     OW26829   3.455   6.360   7.724 -0.4049  0.2320 -0.2088
 8463SOL    HW126830   3.401   6.283   7.708  0.1993 -0.4107  0.7396
 8463SOL    HW226831   3.419   6.427   7.666 -1.3193 -0.5849 -0.6124
 8464SOL     OW26832   1.508   1.679  10.298 -0.0425 -0.2268  0.5171
 8464SOL    HW126833   1.505   1.703  10.205  0.3684 -0.7076  0.3748
 8464SOL    HW226834   1.439   1.732  10.339  0.2545  0.5358  0.0685
 8465SOL     OW26835   7.848   5.184  10.465 -0.4958  0.1777 -0.1654
 8465SOL    HW126836   7.886   5.271  10.452  0.5078 -0.1157  0.6524
 8465SOL    HW226837   7.861   5.165  10.558 -1.7493 -0.3752 -0.0793
 8466SOL     OW26838   0.851   1.367  10.227 -0.4310 -0.2901  0.0265
 8466SOL    HW126839   0.919   1.302  10.207  1.9795  1.6026  1.5104
 8466SOL    HW226840   0.837   1.414  10.145 -1.5292 -1.9773 -0.8165
 8467SOL     OW26841   6.607   1.112   7.937 -0.7698  0.0214 -0.0263
 8467SOL    HW126842   6.605   1.160   8.020 -0.7187  1.2526 -0.7148
 8467SOL    HW226843   6.539   1.045   7.946 -0.1416 -0.4620  1.3520
 8468SOL     OW26844   2.702   2.893   6.580 -0.0510 -0.1042  0.5194
 8468SOL    HW126845   2.691   2.802   6.550 -0.7510 -0.1147  0.7932
 8468SOL    HW226846   2.620   2.936   6.558  0.7353  0.8196 -0.7691
 8469SOL     OW26847   1.976   6.508   6.897  0.3129 -0.3220  0.1176
 8469SOL    HW126848   2.047   6.571   6.892  0.4177 -0.3426  1.1889
 8469SOL    HW226849   1.936   6.510   6.810  0.6157  0.8534 -0.0092
 8470SOL     OW26850   2.264   3.479   5.819 -0.7261  0.2650  0.4518
 8470SOL    HW126851   2.209   3.485   5.741  0.9856  0.8071 -0.7728
 8470SOL    HW226852   2.339   3.426   5.791 -0.2320  0.2087  1.8199
 8471SOL     OW26853   1.326   7.111   1.778  0.2252  0.0187 -0.0138
 8471SOL    HW126854   1.416   7.099   1.808 -0.2074  1.8083  2.3132
 8471SOL    HW226855   1.281   7.031   1.807  0.9755 -0.7684 -0.9664
 8472SOL     OW26856   4.875   0.909  11.425  0.2191  0.3914  0.7351
 8472SOL    HW126857   4.880   0.814  11.434  0.3745  0.4685  1.5234
 8472SOL    HW226858   4.782   0.929  11.417 -0.0853  0.4010  3.4777
 8473SOL     OW26859   6.878   5.259   2.555  0.2160  0.2061  0.2450
 8473SOL    HW126860   6.873   5.230   2.646  0.4984 -0.3237  0.0918
 8473SOL    HW226861   6.947   5.327   2.556  0.2640  0.1573  0.4112
 8474SOL     OW26862   4.820   3.050   2.565 -0.3917  0.1952  0.4000
 8474SOL    HW126863   4.731   3.041   2.531 -0.5882  0.0163  0.9541
 8474SOL    HW226864   4.813   3.028   2.658 -0.1219  1.9036  0.8745
 8475SOL     OW26865   3.464   2.592   5.535 -0.1649 -0.4779 -0.3290
 8475SOL    HW126866   3.556   2.617   5.523  0.4734 -2.3708  0.1257
 8475SOL    HW226867   3.419   2.673   5.557  2.1159  0.0167  3.2910
 8476SOL     OW26868   1.431   3.002   4.580 -0.3613  0.2289  0.1692
 8476SOL    HW126869   1.388   3.067   4.524 -2.7685 -1.3865  0.0372
 8476SOL    HW226870   1.386   3.010   4.664 -1.0306 -1.5502  0.0082
 8477SOL     OW26871   4.181   7.891   2.737 -0.2975 -0.1774  0.0008
 8477SOL    HW126872   4.099   7.937   2.718  0.1900  0.1632 -1.4304
 8477SOL    HW226873   4.243   7.926   2.674  1.2900  0.3954  1.8104
 8478SOL     OW26874   1.393   3.491   5.999  0.7271 -0.6368  0.2279
 8478SOL    HW126875   1.345   3.409   5.991  3.0782 -1.9252 -1.7266
 8478SOL    HW226876   1.381   3.534   5.914  0.6762  0.4149  0.7426
 8479SOL     OW26877   0.825   3.345   3.332 -0.1591 -0.0284  0.2080
 8479SOL    HW126878   0.790   3.359   3.244  0.8232  0.8724 -0.0579
 8479SOL    HW226879   0.866   3.259   3.329  0.8677  0.4711 -0.5700
 8480SOL     OW26880   0.890   2.060   1.997 -0.5053  0.2472 -0.4000
 8480SOL    HW126881   0.806   2.096   1.972 -0.9669  0.0441  0.7974
 8480SOL    HW226882   0.912   2.103   2.080  0.3044 -0.0983 -0.4181
 8481SOL     OW26883   6.851   2.754   2.527  0.0335  0.4503  0.0415
 8481SOL    HW126884   6.839   2.696   2.452 -0.0177 -0.7591  0.9649
 8481SOL    HW226885   6.764   2.791   2.544 -0.3860 -0.7973  0.7026
 8482SOL     OW26886   3.963   1.742   5.882 -0.2118  0.0186  0.3819
 8482SOL    HW126887   3.915   1.679   5.936  0.1101  0.1815  0.8669
 8482SOL    HW226888   4.042   1.760   5.932  0.4649 -0.4106 -0.5061
 8483SOL     OW26889   6.074   0.739   9.267 -0.6483  0.0763 -0.0890
 8483SOL    HW126890   6.160   0.729   9.308 -0.0844  0.6864 -1.0811
 8483SOL    HW226891   6.018   0.774   9.336  0.2509  0.9856  0.2032
 8484SOL     OW26892   7.357   7.217   2.905  0.2660 -0.3044  0.4984
 8484SOL    HW126893   7.417   7.243   2.975  1.5979  0.2888 -0.8218
 8484SOL    HW226894   7.290   7.286   2.905  0.2621 -0.2971  1.1647
 8485SOL     OW26895   4.138   2.648  11.930 -0.3848  0.0130  0.2338
 8485SOL    HW126896   4.142   2.627  11.837 -1.1609  1.8207 -0.2515
 8485SOL    HW226897   4.211   2.709  11.944 -0.9063  0.5779  0.5512
 8486SOL     OW26898   1.156   0.840   4.763 -0.5563 -0.1665 -0.3154
 8486SOL    HW126899   1.154   0.837   4.668  0.8761  1.7083 -0.4422
 8486SOL    HW226900   1.117   0.756   4.790 -2.1043 -0.2317 -2.4926
 8487SOL     OW26901   6.475   1.352   0.818  0.1190 -0.0473 -0.1073
 8487SOL    HW126902   6.469   1.345   0.723  0.9553  0.8427 -0.2373
 8487SOL    HW226903   6.564   1.323   0.839 -0.6005 -1.9195  0.5979
 8488SOL     OW26904   6.638   0.962   2.249  0.3342 -0.0906  0.3453
 8488SOL    HW126905   6.546   0.978   2.228  1.0450 -0.1147 -3.6229
 8488SOL    HW226906   6.636   0.912   2.330 -3.0398  0.8793  1.0399
 8489SOL     OW26907   2.057   7.612   0.570  0.7303  0.1249 -0.0630
 8489SOL    HW126908   1.991   7.655   0.516 -0.9214  0.2675  1.9433
 8489SOL    HW226909   2.008   7.548   0.622  2.5720 -1.5453 -0.2360
 8490SOL     OW26910   3.218   4.556   6.698  0.5558  0.1592 -0.1555
 8490SOL    HW126911   3.290   4.529   6.755 -0.2810  0.6137  1.1736
 8490SOL    HW226912   3.146   4.574   6.758 -0.9895 -1.2306 -1.5249
 8491SOL     OW26913   0.540   7.253   4.461  0.0316  0.4183 -0.3056
 8491SOL    HW126914   0.558   7.321   4.526  0.6508  0.5570 -0.6133
 8491SOL    HW226915   0.446   7.235   4.470 -0.2316  1.5950 -0.4836
 8492SOL     OW26916   0.527   2.365   5.092 -0.0968 -0.4744  0.2041
 8492SOL    HW126917   0.468   2.290   5.084 -1.1225  0.3393  0.0190
 8492SOL    HW226918   0.606   2.338   5.044 -1.0932 -0.7781 -1.3376
 8493SOL     OW26919   6.092   5.880   9.741 -0.0279 -0.4237  0.6683
 8493SOL    HW126920   6.039   5.813   9.783  0.0712 -1.6567 -1.0574
 8493SOL    HW226921   6.134   5.835   9.668 -0.3281  1.6269 -0.8526
 8494SOL     OW26922   3.306   7.871   0.891  0.3419 -0.2989 -0.5010
 8494SOL    HW126923   3.341   7.800   0.944 -2.1984 -3.1800 -2.3523
 8494SOL    HW226924   3.288   7.942   0.953  2.5048 -1.3676  1.5080
 8495SOL     OW26925   4.125   5.959   8.691  0.1637 -0.4305 -0.2241
 8495SOL    HW126926   4.135   5.972   8.597  0.8418  0.4231 -0.0523
 8495SOL    HW226927   4.033   5.979   8.708  0.7544  2.8997 -0.2435
 8496SOL     OW26928   4.268   4.165   3.928 -0.2729 -0.1007  0.5886
 8496SOL    HW126929   4.285   4.108   4.003  1.3912 -2.1379 -1.2195
 8496SOL    HW226930   4.328   4.239   3.941  1.2424 -1.2657  0.4585
 8497SOL     OW26931   1.412   7.190   0.813 -0.3808  0.0178 -0.1808
 8497SOL    HW126932   1.407   7.216   0.905 -0.7630 -0.0165 -0.1882
 8497SOL    HW226933   1.477   7.119   0.812  0.4963  0.8027 -0.1299
 8498SOL     OW26934   2.446   1.301   6.137  0.1890  0.5828 -0.1436
 8498SOL    HW126935   2.491   1.324   6.055  0.9483 -2.4195 -0.6887
 8498SOL    HW226936   2.503   1.336   6.205  0.6671  1.2841 -0.8822
 8499SOL     OW26937   0.780   4.962   5.989 -0.1301 -0.3919  0.4908
 8499SOL    HW126938   0.734   4.962   6.073 -0.6270 -0.6396  0.2242
 8499SOL    HW226939   0.748   4.883   5.945 -0.7189  0.3128 -0.3871
 8500SOL     OW26940   3.271   6.655  11.183 -0.4707 -0.7250 -0.1848
 8500SOL    HW126941   3.243   6.563  11.181  1.1075 -1.2362 -1.2209
 8500SOL    HW226942   3.355   6.655  11.138 -1.0095  1.4459 -1.3465
 8501SOL     OW26943   6.453   4.957   7.300  0.2199 -0.3376 -0.3970
 8501SOL    HW126944   6.458   4.869   7.264  0.7488 -0.1533 -0.8000
 8501SOL    HW226945   6.484   4.948   7.390  0.2285 -0.5759 -0.4235
 8502SOL     OW26946   6.449   0.455   9.756  0.0088 -0.2093 -0.6525
 8502SOL    HW126947   6.477   0.368   9.726  1.0606 -0.4436  0.8581
 8502SOL    HW226948   6.500   0.516   9.702  0.1732 -0.5532 -0.8917
 8503SOL     OW26949   5.477   1.278   9.255  0.1167 -0.6261 -0.8382
 8503SOL    HW126950   5.479   1.373   9.245  0.1507 -0.0682  2.8759
 8503SOL    HW226951   5.567   1.255   9.281 -0.2316 -1.4329 -0.3036
 8504SOL     OW26952   0.241   7.143   8.053 -0.0178 -0.4292  0.0499
 8504SOL    HW126953   0.171   7.128   8.116  0.7157  2.0432  1.6099
 8504SOL    HW226954   0.300   7.204   8.097  0.9377  0.8304 -2.7526
 8505SOL     OW26955   4.139   1.778   0.351  0.0252  0.1735 -0.5778
 8505SOL    HW126956   4.068   1.819   0.401 -0.6488 -0.5738 -0.8876
 8505SOL    HW226957   4.213   1.838   0.360 -0.5870  0.8746 -0.0829
 8506SOL     OW26958   2.590   5.494   9.326 -0.1021 -0.6447  0.3310
 8506SOL    HW126959   2.657   5.515   9.392  0.2996  1.0692 -0.5497
 8506SOL    HW226960   2.539   5.574   9.317  0.7298 -0.2931 -2.3965
 8507SOL     OW26961   7.259   1.043   9.904  0.3836  0.1805  0.4342
 8507SOL    HW126962   7.342   1.033   9.857  0.8878  0.0230  1.3412
 8507SOL    HW226963   7.223   0.955   9.907  0.9445 -0.0337  1.3887
 8508SOL     OW26964   1.681   1.316   0.767 -0.2143 -0.7701  0.1557
 8508SOL    HW126965   1.766   1.322   0.724 -0.0567 -0.0891  0.5496
 8508SOL    HW226966   1.698   1.335   0.859 -0.8514 -0.1517  0.1606
 8509SOL     OW26967   6.560   4.504  10.054 -0.3154  0.2919  0.2512
 8509SOL    HW126968   6.603   4.571  10.000 -0.7289  0.6962  0.4243
 8509SOL    HW226969   6.487   4.473  10.001  0.3900 -0.6741 -0.2054
 8510SOL     OW26970   7.205   6.467   7.959 -0.0447 -0.0690 -0.4408
 8510SOL    HW126971   7.243   6.418   8.032 -1.0555  1.0932  0.9118
 8510SOL    HW226972   7.112   6.447   7.963 -0.2146  0.6008 -0.9508
 8511SOL     OW26973   5.384   0.691   3.589  0.2092  0.5307  0.1263
 8511SOL    HW126974   5.346   0.605   3.573  0.5040  0.3599  0.3291
 8511SOL    HW226975   5.365   0.709   3.681  1.6610 -0.0950  0.5750
 8512SOL     OW26976   5.262   1.431   0.768 -0.0999  0.4546 -0.3402
 8512SOL    HW126977   5.187   1.447   0.824 -0.5710  1.4463 -1.2145
 8512SOL    HW226978   5.226   1.427   0.679  0.4106 -2.5197 -0.5418
 8513SOL     OW26979   2.352   7.460   0.682 -0.1911 -0.2455  0.0547
 8513SOL    HW126980   2.284   7.467   0.749 -0.5266 -0.1158 -0.2997
 8513SOL    HW226981   2.316   7.505   0.606  1.3159  2.1738  0.6698
 8514SOL     OW26982   5.689   0.375  10.710  0.3189 -0.2235  0.0467
 8514SOL    HW126983   5.650   0.444  10.764 -1.5303 -1.0699 -0.1486
 8514SOL    HW226984   5.659   0.393  10.621  0.6037 -0.7426 -0.1602
 8515SOL     OW26985   5.590   1.151   1.324 -0.3377  0.3077 -0.1662
 8515SOL    HW126986   5.547   1.066   1.314  0.1138  0.2825 -2.5161
 8515SOL    HW226987   5.669   1.131   1.374  0.3111 -0.9165 -1.5791
 8516SOL     OW26988   1.922   1.058   0.998 -0.7187  0.0299  0.0396
 8516SOL    HW126989   1.835   1.083   1.031 -0.2870  0.2094  1.0525
 8516SOL    HW226990   1.977   1.054   1.076  0.2118  0.0035 -0.6138
 8517SOL     OW26991   5.323   5.267   6.094  0.2541 -0.0355 -0.0835
 8517SOL    HW126992   5.320   5.312   6.178  2.0039  0.3357 -0.1793
 8517SOL    HW226993   5.413   5.279   6.064 -0.4074  0.0925 -2.1486
 8518SOL     OW26994   7.589   4.930   9.838 -0.9286 -0.3040 -0.1868
 8518SOL    HW126995   7.649   4.985   9.888 -1.5928 -1.1186  1.5696
 8518SOL    HW226996   7.506   4.935   9.885 -1.2183 -2.1825 -0.4296
 8519SOL     OW26997   2.957   7.032   1.961  0.0735  0.4004  0.1025
 8519SOL    HW126998   2.940   7.048   1.868  1.4675  0.1080 -0.2353
 8519SOL    HW226999   3.051   7.049   1.971 -0.2691  1.5102  1.7062
 8520SOL     OW27000   6.861   3.319   7.016 -0.0497 -0.1835  0.4947
 8520SOL    HW127001   6.887   3.395   7.068  0.3157 -0.9726  1.4999
 8520SOL    HW227002   6.788   3.350   6.963  1.1944  1.3409 -0.4067
 8521SOL     OW27003   1.556   5.414   4.026 -0.0014  0.1139 -0.3804
 8521SOL    HW127004   1.651   5.401   4.030 -0.0426 -0.3532 -0.8877
 8521SOL    HW227005   1.533   5.399   3.935 -0.9174 -2.3509  0.1732
 8522SOL     OW27006   3.507   0.975   0.185  0.2504 -0.0345  0.4263
 8522SOL    HW127007   3.564   1.012   0.253  0.0256 -0.0863  0.6448
 8522SOL    HW227008   3.544   1.006   0.103  0.5852 -0.0520  0.5688
 8523SOL     OW27009   4.901   3.546   2.344  0.3147 -0.4676 -0.2954
 8523SOL    HW127010   4.972   3.542   2.280  0.0415 -0.9952 -0.5762
 8523SOL    HW227011   4.939   3.507   2.423  0.2249 -1.1122 -0.5616
 8524SOL     OW27012   2.209   7.917   6.565  0.0066  0.0265  0.4594
 8524SOL    HW127013   2.143   7.849   6.555  0.2716 -0.4181  1.5793
 8524SOL    HW227014   2.245   7.929   6.478 -0.0886 -1.2347  0.2282
 8525SOL     OW27015   4.289   1.092  11.525  0.1181  0.3861  0.0060
 8525SOL    HW127016   4.232   1.081  11.449  2.2541  1.0347 -1.7858
 8525SOL    HW227017   4.308   1.002  11.554 -0.2176  0.1095 -0.6223
 8526SOL     OW27018   5.082   0.330  10.597  0.2669  0.2393  0.3331
 8526SOL    HW127019   5.051   0.340  10.507  0.6030  2.6371  0.4229
 8526SOL    HW227020   5.172   0.360  10.596  1.0989 -2.0030  1.0601
 8527SOL     OW27021   5.531   4.948   9.167  0.2803 -0.3706 -0.0936
 8527SOL    HW127022   5.466   5.019   9.165  0.8548  0.2468  1.5090
 8527SOL    HW227023   5.608   4.987   9.209  0.5713 -1.9819  0.9623
 8528SOL     OW27024   6.428   5.052   1.415  0.4758 -0.3027  0.2957
 8528SOL    HW127025   6.352   5.037   1.358 -0.9184  1.5450  1.5324
 8528SOL    HW227026   6.497   5.080   1.356 -0.5720  0.4315 -0.6273
 8529SOL     OW27027   3.954   2.733   1.356 -0.6031  0.0631 -0.1044
 8529SOL    HW127028   3.976   2.656   1.304 -2.0989 -0.7185  0.3412
 8529SOL    HW227029   3.895   2.700   1.424 -2.0528  1.7355 -0.4607
 8530SOL     OW27030   2.302   4.488   1.994 -0.0713  0.0979 -0.0098
 8530SOL    HW127031   2.353   4.521   2.068  0.6778 -0.4282 -0.2767
 8530SOL    HW227032   2.270   4.403   2.023 -0.7311  0.3807  0.1170
 8531SOL     OW27033   2.641   1.346   8.950 -0.4325  0.6024  0.2157
 8531SOL    HW127034   2.663   1.352   9.043 -0.3313 -1.1034  0.3205
 8531SOL    HW227035   2.574   1.414   8.937 -0.3333  0.9633  1.4857
 8532SOL     OW27036   2.912   7.315   0.863 -0.1094 -0.0284 -0.9655
 8532SOL    HW127037   2.836   7.256   0.863 -0.1768  0.0577 -0.9308
 8532SOL    HW227038   2.988   7.257   0.864 -0.1526 -0.1254  1.1336
 8533SOL     OW27039   1.147   2.593   5.531 -1.1533 -0.5251  0.2578
 8533SOL    HW127040   1.103   2.551   5.457  2.0085 -1.3887 -1.3127
 8533SOL    HW227041   1.143   2.528   5.601 -0.5498 -1.5151 -0.5809
 8534SOL     OW27042   7.254   4.030  11.363 -0.1504  0.0291  0.1332
 8534SOL    HW127043   7.285   3.971  11.295  1.6367  1.1688 -0.0938
 8534SOL    HW227044   7.192   4.088  11.319 -2.5210 -2.0229  0.5114
 8535SOL     OW27045   6.747   0.707   7.837  0.0923 -0.3254 -0.3423
 8535SOL    HW127046   6.651   0.702   7.836  0.1116 -0.8748 -2.0014
 8535SOL    HW227047   6.769   0.755   7.757  1.1988  0.0253  0.1679
 8536SOL     OW27048   7.717   1.649   8.774 -0.4739  0.4520 -0.3684
 8536SOL    HW127049   7.772   1.595   8.831 -2.0784 -1.7018 -0.7401
 8536SOL    HW227050   7.652   1.688   8.833  0.4060  1.6473 -0.1658
 8537SOL     OW27051   3.789   5.218   6.684 -0.1014 -0.2449  0.4028
 8537SOL    HW127052   3.881   5.196   6.670  0.0838  0.5973  0.2631
 8537SOL    HW227053   3.755   5.240   6.597 -0.3822 -0.3674  0.4799
 8538SOL     OW27054   7.931   5.733   3.703 -0.5350  0.5328 -0.0807
 8538SOL    HW127055   7.836   5.747   3.704 -0.7442 -0.7953  0.6779
 8538SOL    HW227056   7.942   5.640   3.720  0.9401  0.8102  0.6518
 8539SOL     OW27057   5.501   4.221  11.288 -0.0893 -0.2816  0.1307
 8539SOL    HW127058   5.515   4.136  11.245 -1.2752  0.3163 -1.5300
 8539SOL    HW227059   5.408   4.239  11.274 -0.2088  0.5822  1.8426
 8540SOL     OW27060   2.419   1.637   2.432  0.2732  0.2853  0.2179
 8540SOL    HW127061   2.399   1.618   2.524 -1.4977 -1.4119 -0.4475
 8540SOL    HW227062   2.407   1.553   2.387 -1.2866  1.5638 -1.9301
 8541SOL     OW27063   0.137   1.734  10.552 -0.6335 -0.1381 -0.7200
 8541SOL    HW127064   0.194   1.811  10.554  0.2193 -0.7590  1.0712
 8541SOL    HW227065   0.077   1.747  10.626 -1.8848 -0.2011 -1.7018
 8542SOL     OW27066   3.123   4.964  11.234  0.3588  0.0356 -0.4504
 8542SOL    HW127067   3.135   4.907  11.310  2.1135  1.7242  0.6288
 8542SOL    HW227068   3.192   4.937  11.173  0.5540  0.3478 -0.3675
 8543SOL     OW27069   5.712   1.815   9.104 -0.0463 -0.9042  0.2724
 8543SOL    HW127070   5.687   1.831   9.195 -1.4852 -0.6746 -0.1353
 8543SOL    HW227071   5.792   1.764   9.109 -0.2070 -1.0422  1.6731
 8544SOL     OW27072   4.353   1.816   9.467  0.2772  0.2229 -0.2253
 8544SOL    HW127073   4.447   1.835   9.477  0.2481  0.0353  0.4015
 8544SOL    HW227074   4.339   1.819   9.372  0.9421  0.1355 -0.3329
 8545SOL     OW27075   7.068   3.249   8.729 -0.1836 -0.2107 -0.0143
 8545SOL    HW127076   7.100   3.197   8.803 -1.0250  0.8965  1.1741
 8545SOL    HW227077   7.105   3.336   8.743  1.4108 -0.4947 -2.1082
 8546SOL     OW27078   4.046   3.180   6.126 -0.0946  0.5079  0.2794
 8546SOL    HW127079   4.006   3.229   6.054 -0.5075 -0.8171 -0.4458
 8546SOL    HW227080   4.101   3.115   6.082  0.4259  0.3099  1.1980
 8547SOL     OW27081   2.118   0.201   9.816 -0.0748 -0.2403  0.0185
 8547SOL    HW127082   2.194   0.147   9.795 -0.9847 -1.2584 -0.7332
 8547SOL    HW227083   2.118   0.207   9.912 -0.9747 -3.1584  0.3011
 8548SOL     OW27084   3.832   5.917   1.966 -0.1679  0.1903  0.4811
 8548SOL    HW127085   3.840   5.953   2.054  0.3528 -0.3943  0.6802
 8548SOL    HW227086   3.746   5.874   1.965  0.5642 -1.3503  1.2986
 8549SOL     OW27087   6.871   1.718   1.913  0.0651 -0.0834  0.0293
 8549SOL    HW127088   6.889   1.670   1.833  1.4119 -0.3637  0.4690
 8549SOL    HW227089   6.942   1.782   1.919 -0.1530  0.0928  0.8725
 8550SOL     OW27090   5.913   4.958   0.509 -0.2717 -0.2290 -0.7587
 8550SOL    HW127091   5.917   4.929   0.418 -0.4621  0.4201 -0.9793
 8550SOL    HW227092   5.821   4.948   0.533 -0.3023  0.0175 -0.7758
 8551SOL     OW27093   0.464   0.134  10.917 -0.0481 -0.1027  0.4717
 8551SOL    HW127094   0.548   0.093  10.897 -0.4648 -0.4659 -0.6172
 8551SOL    HW227095   0.409   0.063  10.948  0.0762  0.1573  1.3014
 8552SOL     OW27096   0.971   4.167   8.565  0.1219 -0.0919 -0.1362
 8552SOL    HW127097   1.034   4.213   8.620  1.1016 -1.3063 -0.1822
 8552SOL    HW227098   0.938   4.096   8.620  0.0207 -0.4394 -0.6307
 8553SOL     OW27099   6.642   5.718  10.097  0.2867 -0.2808  0.5456
 8553SOL    HW127100   6.711   5.717  10.030 -0.3652 -0.2440 -0.1380
 8553SOL    HW227101   6.560   5.712  10.047 -0.2189 -0.0164  1.3304
 8554SOL     OW27102   4.893   1.686   2.096  0.3772 -0.4091 -0.3628
 8554SOL    HW127103   4.941   1.649   2.021 -1.2124 -0.4309 -1.4052
 8554SOL    HW227104   4.805   1.650   2.088 -0.1490  0.5758  0.8349
 8555SOL     OW27105   3.303   7.073   3.949  0.3236 -0.6940  0.4973
 8555SOL    HW127106   3.236   7.132   3.915  1.4800  0.8288  0.7224
 8555SOL    HW227107   3.267   7.038   4.030  0.1217  0.7855  1.0715
 8556SOL     OW27108   2.906   3.249   7.421 -0.5950 -0.6353  0.3148
 8556SOL    HW127109   2.849   3.310   7.375  1.0082  0.9679  0.3629
 8556SOL    HW227110   2.992   3.290   7.420  0.1407 -1.9729  2.1128
 8557SOL     OW27111   3.338   6.199   0.296 -0.1419  0.1752 -0.1849
 8557SOL    HW127112   3.372   6.124   0.346  0.1437 -0.7339 -1.6857
 8557SOL    HW227113   3.416   6.245   0.266 -0.3157  0.7896  0.2752
 8558SOL     OW27114   2.891   2.607  12.277  0.2833 -0.1724  0.0033
 8558SOL    HW127115   2.950   2.603  12.202 -0.4491 -1.6840 -0.5413
 8558SOL    HW227116   2.814   2.557  12.250 -0.0977 -0.5690  1.6800
 8559SOL     OW27117   1.095   6.399   7.417 -0.1802  0.4853  0.6365
 8559SOL    HW127118   1.113   6.310   7.445  1.6707  1.1939  1.9037
 8559SOL    HW227119   1.056   6.390   7.330  0.4584 -1.5278  0.5197
 8560SOL     OW27120   6.620   3.567   5.378 -0.0577  0.2396 -0.5603
 8560SOL    HW127121   6.575   3.484   5.396 -0.1011  0.2741 -0.5076
 8560SOL    HW227122   6.632   3.568   5.283 -0.8310  0.5656 -0.6654
 8561SOL     OW27123   3.038   6.484   7.628 -0.5268  0.4313  0.5088
 8561SOL    HW127124   3.001   6.482   7.540  1.4316 -0.4256 -0.3513
 8561SOL    HW227125   3.025   6.574   7.658 -0.4358  0.9707 -1.0162
 8562SOL     OW27126   5.361   0.828   4.229 -0.0337 -0.1524  0.0845
 8562SOL    HW127127   5.387   0.903   4.282 -0.4394  0.9408 -1.2103
 8562SOL    HW227128   5.307   0.775   4.287 -0.0320  0.7248  0.9199
 8563SOL     OW27129   0.630   2.706   8.854  0.0431  0.0061  0.2825
 8563SOL    HW127130   0.709   2.655   8.871  0.7890  1.3128  0.8045
 8563SOL    HW227131   0.650   2.757   8.776 -0.5034 -0.0994  0.0679
 8564SOL     OW27132   7.463   4.512   7.337  0.1225 -0.0617  0.7096
 8564SOL    HW127133   7.552   4.479   7.323  0.0097 -0.1767  0.2436
 8564SOL    HW227134   7.462   4.597   7.292 -0.6747 -1.0712 -1.3303
 8565SOL     OW27135   5.275   1.747   3.007  0.0256  0.2437  0.6058
 8565SOL    HW127136   5.252   1.673   2.950  3.6934  0.5088 -1.5199
 8565SOL    HW227137   5.260   1.713   3.096 -2.0733 -1.6341 -0.3610
 8566SOL     OW27138   2.731   6.230  10.776  0.1841  0.8266 -0.3377
 8566SOL    HW127139   2.681   6.150  10.760  1.0368  0.6489 -2.4181
 8566SOL    HW227140   2.822   6.202  10.776  0.4488  1.6541  0.0056
 8567SOL     OW27141   6.483   1.345   7.820 -0.0268  0.1751  0.6617
 8567SOL    HW127142   6.529   1.390   7.891  0.8649 -1.8556  1.4416
 8567SOL    HW227143   6.509   1.253   7.829 -0.0338 -0.1870 -2.2019
 8568SOL     OW27144   5.276   4.623   0.936  0.1029  0.2985  0.1196
 8568SOL    HW127145   5.188   4.660   0.936  0.4276  1.1199 -0.5852
 8568SOL    HW227146   5.264   4.532   0.910 -0.6673  0.0186  1.4122
 8569SOL     OW27147   3.833   6.829  10.847 -0.0560 -0.7001  0.0213
 8569SOL    HW127148   3.787   6.892  10.904  0.1459 -0.5181 -0.0184
 8569SOL    HW227149   3.762   6.779  10.807 -0.2061 -2.8203  2.6392
 8570SOL     OW27150   2.404   0.828   2.934 -0.6492  0.0435 -0.2298
 8570SOL    HW127151   2.459   0.893   2.891  0.9178 -0.5721  0.7742
 8570SOL    HW227152   2.367   0.874   3.009 -0.1799  0.0045  0.0280
 8571SOL     OW27153   7.250   0.213   8.647  0.2009  0.1647  0.2635
 8571SOL    HW127154   7.171   0.177   8.608 -0.2487  0.6581  0.7038
 8571SOL    HW227155   7.228   0.226   8.739  0.3182  1.6187  0.1081
 8572SOL     OW27156   0.079   5.367   9.621  0.4306  0.7267  0.3682
 8572SOL    HW127157   0.164   5.347   9.660  0.8427 -0.7297 -1.1431
 8572SOL    HW227158   0.054   5.286   9.576 -1.7456  1.1475  0.7305
 8573SOL     OW27159   6.400   5.915   7.942  0.2864  0.4450  0.1006
 8573SOL    HW127160   6.376   5.976   8.011  0.1689 -0.4484  0.8673
 8573SOL    HW227161   6.317   5.891   7.902 -0.1047 -1.8676  2.0938
 8574SOL     OW27162   1.011   0.292  11.993 -0.2554  0.2098 -0.1544
 8574SOL    HW127163   0.924   0.310  11.959 -0.2959 -2.2813 -1.6918
 8574SOL    HW227164   0.997   0.238  12.071 -0.1409 -0.7650 -0.7840
 8575SOL     OW27165   4.683   1.740   3.542  0.5269 -0.2204 -0.1142
 8575SOL    HW127166   4.662   1.704   3.456  0.9083 -1.3148  0.2192
 8575SOL    HW227167   4.739   1.673   3.582  0.4154  0.3019  0.9541
 8576SOL     OW27168   6.933   6.684   9.281 -0.2569  0.1869  0.1302
 8576SOL    HW127169   6.849   6.680   9.235 -0.2488 -1.6548  0.2365
 8576SOL    HW227170   6.969   6.770   9.256 -2.1775  1.0462  0.1475
 8577SOL     OW27171   7.928   6.299  10.708 -0.1314 -0.1818 -0.3062
 8577SOL    HW127172   7.908   6.239  10.780  1.2969 -0.1928  0.1160
 8577SOL    HW227173   7.908   6.386  10.743 -2.2854 -0.3604 -0.9479
 8578SOL     OW27174   6.228   6.887   7.575 -0.6354  0.1869 -0.1039
 8578SOL    HW127175   6.252   6.977   7.552 -1.3974  0.0924 -1.3021
 8578SOL    HW227176   6.154   6.866   7.518 -1.6748 -0.5638  1.4396
 8579SOL     OW27177   2.078   3.927  10.443 -0.3299 -0.2869 -0.0969
 8579SOL    HW127178   2.059   3.904  10.352 -2.5379  2.3386 -0.4220
 8579SOL    HW227179   2.134   4.004  10.438 -1.0586  0.3241  0.7199
 8580SOL     OW27180   0.861   2.147   5.533 -0.3522  0.1634 -0.2776
 8580SOL    HW127181   0.956   2.162   5.525 -0.3167 -0.1954 -0.5698
 8580SOL    HW227182   0.851   2.097   5.614 -0.4110  1.2216  0.3786
 8581SOL     OW27183   1.768   0.818   5.089 -0.3173 -0.2158  0.2221
 8581SOL    HW127184   1.680   0.828   5.052 -0.4395 -2.7033 -0.3436
 8581SOL    HW227185   1.821   0.883   5.043 -1.7368  0.9924  0.2184
 8582SOL     OW27186   5.615   1.001  12.378 -0.6641  0.4394  0.0538
 8582SOL    HW127187   5.541   0.951  12.344  0.7584 -2.2305  0.5690
 8582SOL    HW227188   5.672   1.015  12.303 -0.6042  0.4539  0.1017
 8583SOL     OW27189   3.511   5.232   8.053 -0.0549 -0.1664  0.4344
 8583SOL    HW127190   3.584   5.180   8.019 -0.6994 -0.8641  0.0779
 8583SOL    HW227191   3.510   5.213   8.147  1.0864  0.9564  0.7020
 8584SOL     OW27192   0.509   1.161   3.676 -0.4383  0.0509 -0.5741
 8584SOL    HW127193   0.586   1.201   3.717 -0.6080  1.0989 -1.2397
 8584SOL    HW227194   0.434   1.206   3.716 -0.6264  0.6112 -1.5172
 8585SOL     OW27195   0.558   0.186  12.337  0.1303 -0.3405 -0.1466
 8585SOL    HW127196   0.610   0.222  12.266 -0.6995  0.1249 -0.5344
 8585SOL    HW227197   0.593   0.227  12.416 -0.0489  0.4541 -0.4684
 8586SOL     OW27198   4.434   4.377   3.933  0.4019 -0.2671  0.6812
 8586SOL    HW127199   4.458   4.375   4.025  2.0083  0.1934  0.2997
 8586SOL    HW227200   4.498   4.435   3.892 -1.3593  0.9770 -0.4454
 8587SOL     OW27201   3.538   1.322   2.366  0.0915  0.1581 -0.2882
 8587SOL    HW127202   3.481   1.378   2.418 -3.6786 -0.3590 -3.4130
 8587SOL    HW227203   3.583   1.382   2.307  1.5388  0.4045  1.0117
 8588SOL     OW27204   3.454   5.796   1.276  0.4402  0.0098 -0.4595
 8588SOL    HW127205   3.403   5.801   1.195 -0.0354  0.5443 -0.1313
 8588SOL    HW227206   3.397   5.833   1.343  0.0426 -2.2073  0.5270
 8589SOL     OW27207   4.767   4.947   3.505  0.2922 -0.3379  0.0523
 8589SOL    HW127208   4.686   4.909   3.471  1.1900 -0.8403 -1.6250
 8589SOL    HW227209   4.746   5.039   3.520 -0.9119 -0.7083  0.8189
 8590SOL     OW27210   1.347   3.950   8.164 -0.0091  0.1328  0.0182
 8590SOL    HW127211   1.424   3.974   8.112  1.9238 -3.4017  0.9416
 8590SOL    HW227212   1.373   3.968   8.254  0.3396 -2.2511  0.4504
 8591SOL     OW27213   1.958   4.365   3.530  0.2903  0.4456 -0.8099
 8591SOL    HW127214   1.961   4.364   3.434 -0.7939  1.0316 -0.8724
 8591SOL    HW227215   2.048   4.384   3.557  0.6577  0.0261 -1.7000
 8592SOL     OW27216   4.592   3.113   3.068  0.0303  0.5066 -0.2472
 8592SOL    HW127217   4.569   3.174   3.139  3.9993  1.0989  0.7547
 8592SOL    HW227218   4.608   3.169   2.992 -0.4668  0.2388 -0.5563
 8593SOL     OW27219   4.290   3.246   0.974 -0.3684 -0.8093 -0.4737
 8593SOL    HW127220   4.211   3.250   0.922 -0.4901 -1.5630 -0.3600
 8593SOL    HW227221   4.288   3.158   1.014  0.0740 -0.5106  0.2219
 8594SOL     OW27222   4.453   1.022   1.658 -0.5726  0.3781 -0.1425
 8594SOL    HW127223   4.498   1.096   1.616  0.8763  0.1417  0.9063
 8594SOL    HW227224   4.413   0.974   1.586 -2.2549  2.5905 -0.7960
 8595SOL     OW27225   4.292   4.783   9.703  0.1572 -0.0121 -0.6813
 8595SOL    HW127226   4.235   4.710   9.679 -1.9001  1.0794  0.5855
 8595SOL    HW227227   4.256   4.857   9.655  0.6774  0.6653 -0.0435
 8596SOL     OW27228   0.554   0.965   9.388  0.3682 -0.2186 -0.3773
 8596SOL    HW127229   0.533   0.906   9.315  0.2409 -0.1531 -0.3950
 8596SOL    HW227230   0.487   1.034   9.383  0.6638  0.0652 -0.5116
 8597SOL     OW27231   1.958   6.823   8.201 -0.0920 -0.2591 -0.8348
 8597SOL    HW127232   2.040   6.870   8.215 -0.7469  0.6042  0.2521
 8597SOL    HW227233   1.923   6.810   8.289 -0.1285 -2.4738 -1.1199
 8598SOL     OW27234   2.169   4.397  11.203  0.3011 -0.4743  0.5747
 8598SOL    HW127235   2.168   4.493  11.201 -0.9949 -0.4536  1.2741
 8598SOL    HW227236   2.254   4.374  11.165  0.7652  0.9493  0.6618
 8599SOL     OW27237   1.599   2.224   0.388 -0.9387  0.5929  0.3091
 8599SOL    HW127238   1.503   2.230   0.391 -0.8748  1.5142  1.0439
 8599SOL    HW227239   1.622   2.175   0.466 -0.7502  1.5625  0.8834
 8600SOL     OW27240   6.474   6.023  11.338  0.4316 -0.0692  0.3574
 8600SOL    HW127241   6.544   6.034  11.273  0.7844  0.9050  0.8924
 8600SOL    HW227242   6.459   6.110  11.373 -0.5741 -0.3919  0.7547
 8601SOL     OW27243   3.163   4.178   5.166 -0.8842  0.1304 -0.0220
 8601SOL    HW127244   3.234   4.117   5.186 -1.1639  0.0895  0.9286
 8601SOL    HW227245   3.188   4.218   5.083  0.6288  0.6485  0.6356
 8602SOL     OW27246   1.039   2.319   0.549 -0.1907 -1.0326  0.6238
 8602SOL    HW127247   1.111   2.286   0.602  0.2652 -0.3546  0.4320
 8602SOL    HW227248   1.060   2.291   0.460  0.7604  0.6696  0.2826
 8603SOL     OW27249   2.203   6.465   9.336 -0.4292 -0.4481 -0.1766
 8603SOL    HW127250   2.238   6.482   9.249  0.5525 -1.5443 -0.0142
 8603SOL    HW227251   2.262   6.400   9.374  0.9753  2.1306  2.4673
 8604SOL     OW27252   2.808   5.898   0.134  0.1872  0.2868 -0.1755
 8604SOL    HW127253   2.894   5.916   0.097  0.1516 -0.7252 -0.7817
 8604SOL    HW227254   2.790   5.807   0.112  0.3624 -0.5733  2.7708
 8605SOL     OW27255   5.796   4.398   9.739 -0.0268  0.2461 -0.2936
 8605SOL    HW127256   5.808   4.471   9.678 -0.4268  0.1333 -0.5075
 8605SOL    HW227257   5.781   4.440   9.824  1.6494  0.4085 -0.0320
 8606SOL     OW27258   6.384   0.359   1.121  0.2835  0.5828 -0.3190
 8606SOL    HW127259   6.358   0.276   1.162 -0.0534 -0.5034 -2.5594
 8606SOL    HW227260   6.345   0.426   1.177 -0.3651 -0.7900  0.9718
 8607SOL     OW27261   2.049   5.310  12.043 -0.1316 -0.0067  0.0137
 8607SOL    HW127262   2.047   5.230  11.991 -0.4713 -0.8291  1.2504
 8607SOL    HW227263   1.974   5.361  12.012  0.6232  0.2904 -1.4305
 8608SOL     OW27264   7.099   7.337  10.608 -0.1502  0.7275  0.0936
 8608SOL    HW127265   7.152   7.366  10.534 -1.1516  1.9192 -0.1840
 8608SOL    HW227266   7.144   7.374  10.685  1.2230 -0.9991  0.1892
 8609SOL     OW27267   3.310   7.229   7.759  0.3586 -0.3872  0.9103
 8609SOL    HW127268   3.271   7.235   7.672  0.6982 -1.6898  0.6479
 8609SOL    HW227269   3.243   7.185   7.812  0.5766 -0.5889  1.0236
 8610SOL     OW27270   6.849   7.812  12.020  0.1457  0.2260  0.2573
 8610SOL    HW127271   6.909   7.752  12.065 -1.8949 -1.6681  0.6711
 8610SOL    HW227272   6.842   7.887  12.078 -0.3617 -0.9840  1.8297
 8611SOL     OW27273   1.124   5.052   9.245 -0.0556  0.0296  0.1090
 8611SOL    HW127274   1.118   5.036   9.339 -0.4485  0.3082  0.1309
 8611SOL    HW227275   1.206   5.100   9.234  0.4367 -0.7556  0.2050
 8612SOL     OW27276   1.668   0.033   9.547 -0.5147  0.5028  0.4737
 8612SOL    HW127277   1.675  -0.005   9.459  3.0852  0.2845  0.7061
 8612SOL    HW227278   1.623  -0.034   9.598 -0.7396 -0.3006 -0.7202
 8613SOL     OW27279   1.386   5.562   1.160  0.0747  0.7791 -0.2610
 8613SOL    HW127280   1.400   5.576   1.067 -1.1178 -1.0678 -0.7563
 8613SOL    HW227281   1.475   5.558   1.197  0.5609  1.0569 -1.3620
 8614SOL     OW27282   1.321   6.212   4.695  0.2146 -1.5744  0.1157
 8614SOL    HW127283   1.315   6.165   4.612 -2.3858  0.1234 -0.8084
 8614SOL    HW227284   1.230   6.229   4.719  0.9622  0.6350  1.7211
 8615SOL     OW27285   0.331   7.216   6.813 -0.1169  0.3454 -0.6615
 8615SOL    HW127286   0.282   7.134   6.822  0.8478 -0.0973  1.3625
 8615SOL    HW227287   0.273   7.283   6.850  0.7640 -0.2261  2.0290
 8616SOL     OW27288   4.455   6.477   4.066 -0.3434  0.1259  0.2483
 8616SOL    HW127289   4.544   6.467   4.032 -0.4995  0.3555 -0.2247
 8616SOL    HW227290   4.462   6.545   4.133  0.0654 -0.7020  1.0715
 8617SOL     OW27291   1.608   3.359  11.542  0.1684 -0.5343 -0.0032
 8617SOL    HW127292   1.629   3.290  11.605 -4.0971 -1.0415  1.1660
 8617SOL    HW227293   1.628   3.440  11.587  1.8621 -0.9233 -0.0010
 8618SOL     OW27294   4.016   5.176   0.630 -0.2558 -0.0925 -0.1998
 8618SOL    HW127295   4.052   5.215   0.709 -1.8615  1.8472 -0.3460
 8618SOL    HW227296   4.030   5.082   0.641  1.7401  0.2970  1.2248
 8619SOL     OW27297   6.396   5.349  11.582 -0.4081  0.1529  0.5849
 8619SOL    HW127298   6.459   5.418  11.561  0.5641 -0.3741  1.6712
 8619SOL    HW227299   6.314   5.378  11.540  0.2864  1.3365 -0.0207
 8620SOL     OW27300   2.272   7.599   9.655  0.2787  0.1108  0.4940
 8620SOL    HW127301   2.354   7.607   9.705  0.1830 -0.2807  0.7185
 8620SOL    HW227302   2.204   7.626   9.716  0.1642 -0.3430  0.5688
 8621SOL     OW27303   0.687   5.954   8.898 -0.0498 -0.2417  0.5574
 8621SOL    HW127304   0.673   6.043   8.928  0.3065 -0.3771  1.1547
 8621SOL    HW227305   0.704   5.962   8.804  2.7423  0.6321  1.0540
 8622SOL     OW27306   3.437   0.693   4.569  0.0221 -0.3094  0.0362
 8622SOL    HW127307   3.430   0.784   4.541  1.1095 -0.2943 -0.2129
 8622SOL    HW227308   3.493   0.651   4.504  1.6786 -0.5319  1.5155
 8623SOL     OW27309   5.073   4.685   1.869 -0.2794 -0.4733  0.7235
 8623SOL    HW127310   5.027   4.768   1.882  0.4778 -0.1126  1.1390
 8623SOL    HW227311   5.130   4.701   1.794  0.4606 -0.3603  1.3058
 8624SOL     OW27312   4.623   6.540   2.037  0.5257 -0.1341  0.0529
 8624SOL    HW127313   4.648   6.448   2.049 -1.6469 -0.8791 -0.6621
 8624SOL    HW227314   4.546   6.536   1.980 -0.8508  1.9725  1.6346
 8625SOL     OW27315   6.094   4.960   9.006  0.0098 -0.6673 -0.3163
 8625SOL    HW127316   6.038   4.891   8.969  0.2277 -1.8270  1.4135
 8625SOL    HW227317   6.045   4.994   9.080 -0.3178  1.4733 -1.4285
 8626SOL     OW27318   3.633   0.630   8.821  0.0070 -0.0175 -0.2853
 8626SOL    HW127319   3.560   0.683   8.855 -0.2684 -0.3557 -0.3403
 8626SOL    HW227320   3.701   0.694   8.800 -1.0368  0.5489 -2.2212
 8627SOL     OW27321   6.096   7.633   3.865 -0.2213 -0.3178 -0.1296
 8627SOL    HW127322   6.150   7.698   3.820 -0.4588 -0.5034 -0.6976
 8627SOL    HW227323   6.018   7.682   3.892  0.4989  0.0999  1.2606
 8628SOL     OW27324   3.896   2.525   6.786  0.2473  0.3143 -0.3067
 8628SOL    HW127325   3.851   2.547   6.705  0.9632  0.1024 -0.7823
 8628SOL    HW227326   3.865   2.437   6.807 -0.3559  0.5881 -0.0469
 8629SOL     OW27327   1.936   1.926   4.647  1.0397 -0.1218  0.5750
 8629SOL    HW127328   1.994   1.979   4.592  0.7441  2.2644  2.3478
 8629SOL    HW227329   1.991   1.899   4.720  0.8219 -1.0802  0.3925
 8630SOL     OW27330   2.678   7.939   7.967 -0.3992 -0.2020  0.1387
 8630SOL    HW127331   2.604   7.879   7.971 -0.3919 -0.4764 -2.3020
 8630SOL    HW227332   2.755   7.882   7.958 -0.2853  0.1229 -1.0936
 8631SOL     OW27333   6.084   0.047  11.197 -0.2161 -0.2950  0.5372
 8631SOL    HW127334   6.008   0.042  11.140  0.3716 -2.0220 -0.1509
 8631SOL    HW227335   6.159   0.031  11.140  0.4990 -0.6715  1.5460
 8632SOL     OW27336   0.616   6.061  11.813  0.5051 -0.0817  0.2407
 8632SOL    HW127337   0.582   6.137  11.860 -1.4514 -0.9225  0.3051
 8632SOL    HW227338   0.636   6.093  11.726  1.7513  0.9456  0.8748
 8633SOL     OW27339   6.258   4.673   1.046 -0.1048 -0.6667  0.2270
 8633SOL    HW127340   6.331   4.671   1.107  0.0865 -0.2337  0.0175
 8633SOL    HW227341   6.263   4.759   1.005 -2.0614  0.3273  1.8373
 8634SOL     OW27342   4.353   1.324   8.244 -0.7379 -0.2403  0.0622
 8634SOL    HW127343   4.279   1.366   8.287  0.4774  1.4459  0.5924
 8634SOL    HW227344   4.347   1.232   8.270 -0.9309  0.4252  2.6216
 8635SOL     OW27345   1.357   0.272   6.521 -0.2598 -0.5211 -0.1950
 8635SOL    HW127346   1.362   0.229   6.435 -0.0689  1.1943 -1.0865
 8635SOL    HW227347   1.395   0.359   6.507 -2.5762  0.7711  0.9774
 8636SOL     OW27348   7.075   1.834  11.699 -0.0479  0.7772 -0.4075
 8636SOL    HW127349   7.133   1.797  11.766 -0.2319 -0.7388 -1.0408
 8636SOL    HW227350   7.000   1.867  11.749 -0.3801 -0.7120  0.1461
 8637SOL     OW27351   4.975   7.588  11.135  0.2312  0.7978  0.0198
 8637SOL    HW127352   5.044   7.590  11.068  0.6202  1.0154  0.4198
 8637SOL    HW227353   4.948   7.496  11.139  1.0527  0.5633  0.4125
 8638SOL     OW27354   6.465   5.483   5.563  0.3467 -0.3930  1.0900
 8638SOL    HW127355   6.380   5.457   5.528  0.1608  1.7141 -0.1684
 8638SOL    HW227356   6.499   5.547   5.501  2.0086  0.2335  2.5422
 8639SOL     OW27357   4.169   2.471   6.617  0.0241  0.3901 -0.4258
 8639SOL    HW127358   4.083   2.481   6.657  0.1247  1.2790 -0.4091
 8639SOL    HW227359   4.229   2.464   6.692 -0.0863 -0.8097 -0.4368
 8640SOL     OW27360   7.870   4.224   8.747  0.4084 -0.9134  0.3597
 8640SOL    HW127361   7.785   4.200   8.785  0.7535 -0.9229  1.1398
 8640SOL    HW227362   7.891   4.308   8.788  1.2500 -1.3961  0.9333
 8641SOL     OW27363   5.752   6.700   5.367 -0.0984  0.1837 -0.4655
 8641SOL    HW127364   5.666   6.675   5.332 -0.3715  0.2273  0.1568
 8641SOL    HW227365   5.814   6.648   5.316 -0.6403 -1.7615  0.7397
 8642SOL     OW27366   4.018   7.628  11.725  0.2914 -0.1694 -0.3055
 8642SOL    HW127367   4.009   7.723  11.717 -0.2797 -0.3012 -1.4731
 8642SOL    HW227368   4.088   7.616  11.789 -0.2671  1.0213  0.5631
 8643SOL     OW27369   5.425   5.124   6.343 -0.0485 -0.1988 -0.2445
 8643SOL    HW127370   5.336   5.099   6.318  0.2750 -0.6787 -0.9280
 8643SOL    HW227371   5.419   5.217   6.365 -0.1016  0.6380 -3.4015
 8644SOL     OW27372   0.099   4.146  12.132  0.5817  0.4363 -0.5061
 8644SOL    HW127373   0.165   4.214  12.148 -1.5637  2.4359  0.4852
 8644SOL    HW227374   0.097   4.137  12.037  2.1768  0.3827 -0.5673
 8645SOL     OW27375   1.547   7.641   0.340  0.5515  0.6823  0.2849
 8645SOL    HW127376   1.512   7.577   0.278  1.3756  1.5187 -1.1029
 8645SOL    HW227377   1.487   7.715   0.334 -0.0829  0.2841  1.4653
 8646SOL     OW27378   1.744   4.552   7.557 -0.4541 -0.0879 -0.8117
 8646SOL    HW127379   1.817   4.525   7.612 -1.0844  1.2453  0.7561
 8646SOL    HW227380   1.708   4.630   7.601 -1.4638  0.5760 -2.7076
 8647SOL     OW27381   2.295   3.568   6.291  0.1177  0.3716  0.2968
 8647SOL    HW127382   2.289   3.473   6.301 -0.8311  0.5295  1.5098
 8647SOL    HW227383   2.263   3.586   6.203 -1.2971 -0.3114  0.6566
 8648SOL     OW27384   6.933   1.890  10.573  0.0870  0.0112  0.3041
 8648SOL    HW127385   6.869   1.873  10.642 -0.5722 -0.9549 -0.5217
 8648SOL    HW227386   6.881   1.924  10.501  0.4482 -1.0572 -0.4797
 8649SOL     OW27387   2.823   5.317   6.809  0.4780 -0.4076 -0.1203
 8649SOL    HW127388   2.865   5.235   6.835 -0.1108 -0.5606  0.3466
 8649SOL    HW227389   2.760   5.292   6.742 -1.2092 -0.6471  1.5115
 8650SOL     OW27390   7.570   2.054   0.285  0.3690  0.1895 -0.2525
 8650SOL    HW127391   7.490   2.007   0.307  1.3342 -0.3007  2.6590
 8650SOL    HW227392   7.540   2.134   0.243 -1.4853 -1.1558 -1.6671
 8651SOL     OW27393   2.360   1.395  10.456  1.0815 -0.2206  0.0151
 8651SOL    HW127394   2.275   1.432  10.433  0.9170 -1.1157 -0.9342
 8651SOL    HW227395   2.346   1.354  10.542 -0.2138 -2.5401 -1.1858
 8652SOL     OW27396   3.708   6.216   8.991 -0.4655  0.3958  0.4466
 8652SOL    HW127397   3.734   6.273   9.064  0.2177 -0.7650  1.1557
 8652SOL    HW227398   3.625   6.252   8.960 -0.0523  1.7589  0.8672
 8653SOL     OW27399   5.743   1.013   7.538 -0.2811  0.1855  0.2738
 8653SOL    HW127400   5.693   1.076   7.590 -0.0619  0.5459  0.0530
 8653SOL    HW227401   5.688   0.935   7.536 -0.1544  0.0663  1.2864
 8654SOL     OW27402   5.042   2.865   6.585 -0.8394  0.3551  0.2841
 8654SOL    HW127403   4.990   2.903   6.513 -1.3670 -0.0690  0.4304
 8654SOL    HW227404   5.122   2.917   6.587  0.8174 -1.8036 -2.9149
 8655SOL     OW27405   2.732   2.168   3.002  0.6586 -0.2613  0.5878
 8655SOL    HW127406   2.825   2.155   2.985  0.7411  2.0523 -1.2393
 8655SOL    HW227407   2.689   2.156   2.917 -0.1991  2.1403  0.5871
 8656SOL     OW27408   0.048   3.972   4.965 -0.0170  0.2206 -0.2264
 8656SOL    HW127409   0.127   4.013   4.999 -0.6089  0.8034  0.4762
 8656SOL    HW227410  -0.022   4.032   4.990 -0.5630  0.2802 -1.8010
 8657SOL     OW27411   1.985   7.355   3.220  0.2416  0.6207  0.2387
 8657SOL    HW127412   2.037   7.279   3.248  2.3274  1.8292 -0.0901
 8657SOL    HW227413   2.022   7.378   3.135 -0.2646  2.0827  0.3921
 8658SOL     OW27414   4.093   2.256   7.065 -0.0363 -0.2508  0.1479
 8658SOL    HW127415   4.109   2.309   7.142  0.2556 -1.4272  0.9198
 8658SOL    HW227416   4.116   2.167   7.091  1.0146 -0.5442 -1.5895
 8659SOL     OW27417   2.183   4.900   0.967  0.3068  0.1234 -0.5675
 8659SOL    HW127418   2.150   4.980   1.007 -0.9238 -0.3726 -0.5652
 8659SOL    HW227419   2.278   4.914   0.962  0.5160  0.3277  2.2518
 8660SOL     OW27420   0.473   6.507   5.193  0.6976  0.1960 -0.0787
 8660SOL    HW127421   0.477   6.597   5.161  0.8519  0.3884  0.4612
 8660SOL    HW227422   0.382   6.480   5.179  0.6439  0.4492 -0.2198
 8661SOL     OW27423   4.773   1.200   6.207  0.1666  0.2369 -0.1283
 8661SOL    HW127424   4.679   1.215   6.199  0.1366  0.2236  0.1998
 8661SOL    HW227425   4.782   1.105   6.213  0.3600  0.0664 -2.2676
 8662SOL     OW27426   1.480   7.869   2.086  0.2285 -0.0402  0.1073
 8662SOL    HW127427   1.413   7.915   2.136  0.0158 -0.3181  0.0793
 8662SOL    HW227428   1.531   7.939   2.045  1.8318  0.3004  2.4848
 8663SOL     OW27429   1.518   2.505   2.237 -0.4215  0.3173  0.2124
 8663SOL    HW127430   1.459   2.457   2.296  2.9639 -2.5049  1.6843
 8663SOL    HW227431   1.504   2.465   2.151 -0.0494 -1.0184  0.7480
 8664SOL     OW27432   0.293   4.071  10.301  0.1658  0.8117  0.0851
 8664SOL    HW127433   0.293   4.020  10.382 -2.9351  0.9758  0.2876
 8664SOL    HW227434   0.355   4.143  10.318  1.5018 -0.5592  1.3046
 8665SOL     OW27435   4.567   6.605  11.454  0.1214  0.0440 -0.1515
 8665SOL    HW127436   4.527   6.518  11.459 -0.2366  0.2632  1.7717
 8665SOL    HW227437   4.650   6.595  11.500 -0.2588  0.8526  0.7588
 8666SOL     OW27438   4.626   0.839   8.358 -0.0408 -0.1772 -0.1477
 8666SOL    HW127439   4.612   0.762   8.303  1.8570  0.1114 -1.1245
 8666SOL    HW227440   4.650   0.804   8.444 -2.2309 -0.6276  0.3331
 8667SOL     OW27441   0.985   5.414   8.987 -0.1685  0.1728  0.4661
 8667SOL    HW127442   0.960   5.352   8.919  3.0827 -0.1610 -0.5896
 8667SOL    HW227443   0.903   5.459   9.010 -1.9337 -1.8444 -1.4078
 8668SOL     OW27444   6.095   1.233   6.024 -0.0160  0.0680  0.5816
 8668SOL    HW127445   6.081   1.328   6.016 -1.1968 -0.1163  0.2574
 8668SOL    HW227446   6.190   1.223   6.023  0.1302  1.2516  0.6189
 8669SOL     OW27447   4.327   6.599   1.902 -0.5473  0.3938  0.2363
 8669SOL    HW127448   4.298   6.642   1.983 -1.5339 -2.1103  1.3123
 8669SOL    HW227449   4.263   6.529   1.888 -0.0323  0.3345 -2.4031
 8670SOL     OW27450   5.044   4.561   2.196 -0.1936  0.4506 -0.4859
 8670SOL    HW127451   5.107   4.543   2.126  1.2644  0.1092  0.8489
 8670SOL    HW227452   5.095   4.609   2.262 -1.4181  0.4141  0.5254
 8671SOL     OW27453   0.574   4.535   4.950  0.1250 -0.3233 -0.2311
 8671SOL    HW127454   0.526   4.573   4.876  1.1808 -0.8445 -1.2055
 8671SOL    HW227455   0.610   4.611   4.996 -0.4930  0.0064 -0.2793
 8672SOL     OW27456   6.022   1.892   2.276  0.1187  0.6124  0.8061
 8672SOL    HW127457   6.061   1.977   2.258 -0.4922  0.4528 -1.6921
 8672SOL    HW227458   6.089   1.829   2.248  0.6115  0.2058  2.7257
 8673SOL     OW27459   1.686   7.399   4.525  0.4566  0.1260  0.0721
 8673SOL    HW127460   1.671   7.356   4.609  1.3259 -1.8173 -0.7025
 8673SOL    HW227461   1.682   7.328   4.460  1.1016  1.3563 -1.3879
 8674SOL     OW27462   5.238   6.832   9.177  0.4227 -0.0723 -0.3528
 8674SOL    HW127463   5.183   6.754   9.175  0.7281 -0.3663  1.1281
 8674SOL    HW227464   5.180   6.903   9.152 -0.7633 -0.3265  1.4469
 8675SOL     OW27465   3.888   5.345   0.424 -0.4015  0.0054  0.0210
 8675SOL    HW127466   3.915   5.272   0.479 -1.9424 -0.7279 -0.1383
 8675SOL    HW227467   3.920   5.423   0.470 -0.9190 -0.6354  1.5264
 8676SOL     OW27468   1.388   6.507   8.522  0.6571  0.6400  0.0733
 8676SOL    HW127469   1.376   6.580   8.582  1.7655  0.4621  0.5269
 8676SOL    HW227470   1.307   6.456   8.530  0.2420  1.3426  0.4036
 8677SOL     OW27471   0.258   1.425   3.557  0.0170 -0.3689 -0.0139
 8677SOL    HW127472   0.242   1.338   3.520 -1.9270  0.2766 -0.7995
 8677SOL    HW227473   0.268   1.482   3.480  1.6071  0.0703  0.4911
 8678SOL     OW27474   2.349   6.632   6.582 -0.6740  0.3697 -0.1309
 8678SOL    HW127475   2.271   6.623   6.636 -0.5487 -0.6756 -0.1099
 8678SOL    HW227476   2.414   6.576   6.624 -0.5295 -0.3575 -1.2881
 8679SOL     OW27477   6.252   5.344   9.440 -0.6597  0.1436 -0.4919
 8679SOL    HW127478   6.248   5.250   9.460  0.8866  0.6030  2.7030
 8679SOL    HW227479   6.192   5.384   9.502  1.0365  1.4222  0.4214
 8680SOL     OW27480   0.222   3.046  10.637  0.1098 -0.1730 -0.2801
 8680SOL    HW127481   0.160   2.997  10.583  1.6480  1.2461 -3.7017
 8680SOL    HW227482   0.184   3.134  10.642 -0.0916 -0.3219  1.2283
 8681SOL     OW27483   4.466   5.323  10.747 -0.1659 -0.1506  0.4791
 8681SOL    HW127484   4.433   5.328  10.657 -1.2550 -0.1033  0.8661
 8681SOL    HW227485   4.388   5.305  10.800  0.1538  1.5305  1.6027
 8682SOL     OW27486   6.352   4.648  10.879 -0.0050  0.3133 -0.4961
 8682SOL    HW127487   6.429   4.645  10.823  1.9216  2.8263  1.7704
 8682SOL    HW227488   6.308   4.730  10.857 -1.1390 -0.2847 -0.5833
 8683SOL     OW27489   1.596   2.462  11.802  0.0947  0.5889  0.1115
 8683SOL    HW127490   1.536   2.405  11.755 -0.6892  0.4449  1.2389
 8683SOL    HW227491   1.651   2.402  11.853  0.0398  0.7790  0.4020
 8684SOL     OW27492   5.643   7.222  12.142  0.1000 -0.2626  0.2717
 8684SOL    HW127493   5.618   7.181  12.225  0.4253  1.7172  1.4044
 8684SOL    HW227494   5.579   7.293  12.131  1.2027  0.6890 -0.1810
 8685SOL     OW27495   6.127   0.046   9.960  0.3761  0.2981 -0.2434
 8685SOL    HW127496   6.135   0.039   9.865  0.3610 -1.5053 -0.1424
 8685SOL    HW227497   6.134   0.140   9.977 -3.2632  1.1516 -2.3391
 8686SOL     OW27498   7.229   1.863   4.426  0.2064 -0.2265  0.3750
 8686SOL    HW127499   7.239   1.841   4.333  0.5190  0.3322  0.2718
 8686SOL    HW227500   7.134   1.863   4.440  0.0851  0.8741 -0.2539
 8687SOL     OW27501   0.621   3.138   0.436  0.4010  0.9359 -0.0066
 8687SOL    HW127502   0.644   3.178   0.352 -0.0204  0.3132 -0.4182
 8687SOL    HW227503   0.684   3.176   0.498  0.7030  1.4100 -0.5951
 8688SOL     OW27504   2.909   6.132   8.392 -0.7800  0.5429 -0.4801
 8688SOL    HW127505   2.886   6.056   8.338  0.3410 -0.9380  0.9916
 8688SOL    HW227506   2.855   6.123   8.470  0.9153 -0.0323  0.6783
 8689SOL     OW27507   1.309   5.704   6.638  0.0323  0.1182  0.6544
 8689SOL    HW127508   1.274   5.758   6.567 -0.8445 -0.0144  0.9719
 8689SOL    HW227509   1.285   5.614   6.613  3.7938 -0.5567 -1.2542
 8690SOL     OW27510   5.939   1.779   5.779 -0.0129 -0.5396  0.1916
 8690SOL    HW127511   5.954   1.695   5.823  0.5397 -0.1647  0.7370
 8690SOL    HW227512   5.858   1.811   5.817  0.3928 -0.2806  0.8553
 8691SOL     OW27513   0.412   1.876   5.544 -0.1300  0.0474 -0.3055
 8691SOL    HW127514   0.444   1.873   5.453  0.8537  0.3073  0.0275
 8691SOL    HW227515   0.457   1.803   5.587 -1.7692 -1.0744 -0.3777
 8692SOL     OW27516   1.706   7.621   3.888 -0.6419 -0.4173  0.5748
 8692SOL    HW127517   1.755   7.699   3.914 -0.5406  0.4364 -1.9010
 8692SOL    HW227518   1.759   7.581   3.818 -2.2948 -0.8134 -0.5095
 8693SOL     OW27519   6.471   6.530   8.135 -0.1561  0.2614 -0.3355
 8693SOL    HW127520   6.490   6.509   8.044 -1.2445 -0.6147 -0.3749
 8693SOL    HW227521   6.469   6.626   8.137  0.2335  0.2947 -1.1496
 8694SOL     OW27522   7.455   7.428   8.177 -0.3949 -0.2546 -0.1502
 8694SOL    HW127523   7.550   7.415   8.173 -0.5844 -2.0869  0.4530
 8694SOL    HW227524   7.435   7.434   8.270 -1.1073 -2.2721 -0.1221
 8695SOL     OW27525   3.747   6.094   8.349 -0.1875 -0.0814 -0.0298
 8695SOL    HW127526   3.810   6.028   8.378  0.6905  0.3857 -0.8407
 8695SOL    HW227527   3.693   6.050   8.284  0.2756 -0.0712 -0.4288
 8696SOL     OW27528   6.601   2.570   6.778 -0.0670  0.4845 -0.4145
 8696SOL    HW127529   6.690   2.578   6.812 -0.4104 -0.3846  0.7545
 8696SOL    HW227530   6.601   2.620   6.697  2.0461 -1.1780 -1.5291
 8697SOL     OW27531   5.590   7.405   4.802 -0.2691 -0.6861 -0.0583
 8697SOL    HW127532   5.653   7.362   4.744  1.0707  1.2540 -0.1221
 8697SOL    HW227533   5.572   7.340   4.870  2.6955 -0.9507  0.6077
 8698SOL     OW27534   4.368   5.703   6.243  0.2169 -0.1388 -0.1607
 8698SOL    HW127535   4.384   5.661   6.328 -0.6287  0.6921  0.4290
 8698SOL    HW227536   4.429   5.660   6.183  0.7879 -0.7821  0.8560
 8699SOL     OW27537   3.726   6.087   4.395 -0.1663 -0.3942 -0.6669
 8699SOL    HW127538   3.674   6.016   4.432  0.3640 -0.5700 -0.2461
 8699SOL    HW227539   3.664   6.139   4.344 -0.9641 -0.0118  0.6405
 8700SOL     OW27540   5.948   1.539   9.392  0.4291 -0.1333  0.3646
 8700SOL    HW127541   5.980   1.458   9.351 -0.2677  0.0864 -0.6428
 8700SOL    HW227542   5.862   1.516   9.428  0.1301  0.2105 -0.1202
 8701SOL     OW27543   5.627   6.952   8.599  0.0988 -0.0281  0.3639
 8701SOL    HW127544   5.608   7.027   8.542  0.5625  0.4217  0.7910
 8701SOL    HW227545   5.721   6.958   8.615  0.3355 -1.2726 -0.3934
 8702SOL     OW27546   6.745   7.535   5.710  0.4751  0.5945 -0.0683
 8702SOL    HW127547   6.699   7.590   5.647  0.1383  1.2610  0.7430
 8702SOL    HW227548   6.740   7.583   5.793 -1.0854 -1.2755  1.0191
 8703SOL     OW27549   4.748   2.238   1.015  0.1114 -0.0069  0.4999
 8703SOL    HW127550   4.674   2.177   1.006 -0.8059  1.2460 -1.3321
 8703SOL    HW227551   4.822   2.192   0.975 -0.1360 -0.5722  0.6803
 8704SOL     OW27552   4.810   5.492   6.969  0.1989 -0.3261 -0.1960
 8704SOL    HW127553   4.844   5.519   6.884  1.4762 -1.4420 -0.0914
 8704SOL    HW227554   4.715   5.500   6.962  0.3916  1.8004 -0.9307
 8705SOL     OW27555   1.348   1.260   6.887  0.1822 -0.0486  0.2963
 8705SOL    HW127556   1.381   1.335   6.839 -1.8905  0.4646 -0.4440
 8705SOL    HW227557   1.292   1.214   6.824  0.2075 -1.3495  1.1881
 8706SOL     OW27558   4.951   5.052   8.815 -0.0325 -0.7631  0.7692
 8706SOL    HW127559   4.901   4.989   8.866 -2.2680  0.8632  0.7226
 8706SOL    HW227560   4.994   5.108   8.880  1.0778 -1.6338  0.8094
 8707SOL     OW27561   6.966   2.335   8.407  0.1267 -0.0824  0.2505
 8707SOL    HW127562   7.043   2.279   8.396  0.4182  0.4698 -0.6546
 8707SOL    HW227563   6.919   2.297   8.481  1.3391 -0.3505  0.9068
 8708SOL     OW27564   2.433   1.416   5.560 -0.0790 -0.8147  0.4108
 8708SOL    HW127565   2.418   1.347   5.495  0.1235 -0.5735  0.1029
 8708SOL    HW227566   2.461   1.369   5.638  0.5132 -1.0538  0.0632
 8709SOL     OW27567   4.733   6.009  12.195 -0.5213 -0.5911 -0.1091
 8709SOL    HW127568   4.645   6.045  12.181 -0.3742 -0.3823 -0.5264
 8709SOL    HW227569   4.752   6.028  12.287  1.2459  4.3304 -1.1761
 8710SOL     OW27570   0.347   2.342   7.099  0.2770 -0.0496  0.0822
 8710SOL    HW127571   0.273   2.307   7.049  1.6041 -0.4264 -1.7491
 8710SOL    HW227572   0.335   2.437   7.098  0.0703 -0.0734 -0.6873
 8711SOL     OW27573   0.649   7.807   6.688  0.0124 -0.1351  0.5596
 8711SOL    HW127574   0.603   7.809   6.604  0.3393  0.8811  0.3963
 8711SOL    HW227575   0.738   7.781   6.665  0.0296 -0.1351  0.6287
 8712SOL     OW27576   6.017   7.547   4.817 -0.0691  0.2789 -0.5386
 8712SOL    HW127577   5.988   7.468   4.863  1.8651  0.9657  2.1169
 8712SOL    HW227578   6.110   7.554   4.838 -0.1008  3.0965 -0.9354
 8713SOL     OW27579   7.873   1.977   2.773 -0.1155 -0.9393 -0.3491
 8713SOL    HW127580   7.903   1.937   2.692  0.8498  1.1316 -1.1025
 8713SOL    HW227581   7.838   2.062   2.746 -0.0461 -0.3163  1.3663
 8714SOL     OW27582   7.103   7.758   8.613 -0.2934 -0.9091 -0.1499
 8714SOL    HW127583   7.151   7.675   8.618 -1.2482 -1.4457  0.5011
 8714SOL    HW227584   7.098   7.787   8.704  3.0043  1.6753 -0.6197
 8715SOL     OW27585   3.608   7.286  12.361  0.2234 -0.0970  0.4991
 8715SOL    HW127586   3.694   7.318  12.391  0.3191  0.3789 -0.2714
 8715SOL    HW227587   3.593   7.207  12.413  1.1386 -0.1917  0.6370
 8716SOL     OW27588   1.468   4.480   5.920  0.0804 -0.1087 -0.2141
 8716SOL    HW127589   1.464   4.574   5.938 -2.1834  0.4489 -2.8137
 8716SOL    HW227590   1.386   4.445   5.955 -0.9081 -0.3044 -2.5272
 8717SOL     OW27591   3.780   4.565   8.889  0.2421 -0.0028 -0.7036
 8717SOL    HW127592   3.709   4.595   8.832  0.3103  1.2399 -0.1691
 8717SOL    HW227593   3.788   4.634   8.955  0.3341 -1.2756  0.6562
 8718SOL     OW27594   6.284   3.619   2.760  0.0237 -0.0940 -0.2805
 8718SOL    HW127595   6.322   3.707   2.756  0.1473 -0.0847  0.7389
 8718SOL    HW227596   6.200   3.631   2.804 -0.7170 -0.2604 -1.6322
 8719SOL     OW27597   5.373   0.707   5.769 -0.1944 -0.0456  0.4614
 8719SOL    HW127598   5.380   0.621   5.811  0.1377 -0.3699 -0.2354
 8719SOL    HW227599   5.461   0.744   5.777 -0.1959 -0.0029  0.2948
 8720SOL     OW27600   4.160   4.474   5.420 -0.6940  0.0282  0.2139
 8720SOL    HW127601   4.219   4.521   5.361 -1.0229  1.6149  1.1066
 8720SOL    HW227602   4.131   4.540   5.482 -1.3521 -1.3265  1.3898
 8721SOL     OW27603   2.169   5.003   2.825 -0.6116 -0.4244  0.0046
 8721SOL    HW127604   2.259   4.993   2.793 -1.3317 -1.2296 -1.9182
 8721SOL    HW227605   2.142   5.089   2.794 -0.6883 -0.3957  0.1498
 8722SOL     OW27606   2.660   1.027   5.429 -0.0823  0.1222  0.1802
 8722SOL    HW127607   2.686   0.935   5.428 -2.4285 -0.6827 -2.8549
 8722SOL    HW227608   2.600   1.034   5.502  0.6484 -0.5658  0.8634
 8723SOL     OW27609   0.539   3.750   4.053  0.1069  0.0580  0.3217
 8723SOL    HW127610   0.580   3.664   4.060  1.2312  0.6735  1.8020
 8723SOL    HW227611   0.496   3.749   3.967  2.1111 -1.1206 -0.7568
 8724SOL     OW27612   2.425   3.718   5.530  0.4816 -0.2246 -0.3814
 8724SOL    HW127613   2.455   3.728   5.440  0.8354  0.1214 -0.2239
 8724SOL    HW227614   2.489   3.660   5.571 -0.3617 -1.4206 -0.6886
 8725SOL     OW27615   1.853   4.066   2.073  0.4062  0.2379  0.1001
 8725SOL    HW127616   1.909   3.999   2.034  0.1067 -1.2447  2.0210
 8725SOL    HW227617   1.772   4.019   2.095  0.6915  0.8144  2.7590
 8726SOL     OW27618   4.301   7.348  11.749 -0.0693  0.5735 -0.1111
 8726SOL    HW127619   4.293   7.355  11.653  1.3384  2.4151 -0.1435
 8726SOL    HW227620   4.366   7.279  11.762  1.9126  2.2240 -0.6547
 8727SOL     OW27621   7.672   5.988   6.888 -0.6895 -0.2628 -0.7503
 8727SOL    HW127622   7.645   5.974   6.978 -2.1130 -0.0722 -1.1238
 8727SOL    HW227623   7.590   5.996   6.839  0.0536  0.2820 -1.9587
 8728SOL     OW27624   7.894   7.777   9.439 -0.2237  0.0432 -0.1246
 8728SOL    HW127625   7.912   7.710   9.373  2.3357 -0.5724  1.0333
 8728SOL    HW227626   7.836   7.733   9.502  0.5937 -0.7720  0.0879
 8729SOL     OW27627   1.115   1.766   0.932  0.3051  0.0455  0.1350
 8729SOL    HW127628   1.098   1.860   0.928 -0.5809 -0.1488 -1.1519
 8729SOL    HW227629   1.042   1.726   0.885  0.8166 -1.2794  0.4136
 8730SOL     OW27630   2.264   3.714   9.124 -0.1111 -0.2586  0.3072
 8730SOL    HW127631   2.357   3.732   9.139  0.4139 -1.1588 -1.5730
 8730SOL    HW227632   2.220   3.757   9.196  1.9112 -1.7345  2.6036
 8731SOL     OW27633   6.184   1.340   0.510 -0.3599  0.0677 -0.1570
 8731SOL    HW127634   6.178   1.318   0.417 -4.3665  1.4160 -0.4157
 8731SOL    HW227635   6.154   1.431   0.516  0.0257  0.1157  2.4635
 8732SOL     OW27636   1.991   4.890   1.347  0.3535 -0.0529 -0.1495
 8732SOL    HW127637   1.903   4.903   1.313  0.5897 -0.8733 -1.1137
 8732SOL    HW227638   2.008   4.968   1.400 -0.6146  0.5099 -0.6429
 8733SOL     OW27639   0.155   7.061   1.353  0.3027  0.3661 -0.5851
 8733SOL    HW127640   0.245   7.057   1.384  0.3204  0.0450 -0.6798
 8733SOL    HW227641   0.160   7.034   1.262 -0.1482 -1.5501 -0.0783
 8734SOL     OW27642   6.904   5.418   1.026  0.3240 -0.0573  0.3287
 8734SOL    HW127643   6.920   5.443   1.116  1.4991 -2.6160  0.9173
 8734SOL    HW227644   6.987   5.432   0.981  0.1364 -0.0624 -0.0327
 8735SOL     OW27645   2.795   0.424   0.880  0.0003 -0.6881 -0.0354
 8735SOL    HW127646   2.825   0.426   0.790  0.5956 -0.0652  0.1654
 8735SOL    HW227647   2.836   0.346   0.918 -0.6761 -1.2469 -0.4362
 8736SOL     OW27648   2.542   5.840   4.784 -0.2868  0.3248 -0.6481
 8736SOL    HW127649   2.482   5.876   4.718  0.6986  1.8336 -0.7715
 8736SOL    HW227650   2.603   5.912   4.802 -0.1237 -0.2846  1.4312
 8737SOL     OW27651   3.907   4.347   3.377 -0.6743 -0.3989 -0.0858
 8737SOL    HW127652   3.988   4.361   3.327 -1.3444 -1.4034 -1.4989
 8737SOL    HW227653   3.872   4.435   3.391  0.0360 -0.0417 -0.5066
 8738SOL     OW27654   6.398   6.145  10.508  0.1634 -0.0763 -0.1071
 8738SOL    HW127655   6.416   6.120  10.417 -1.1477  0.2335 -0.4700
 8738SOL    HW227656   6.303   6.153  10.512  0.2671  0.7073  1.0945
 8739SOL     OW27657   6.780   1.337   5.054  0.2138  0.2855 -0.0430
 8739SOL    HW127658   6.723   1.290   5.115  0.3711  0.5756  0.3287
 8739SOL    HW227659   6.862   1.350   5.103  0.3269  0.5547 -0.3034
 8740SOL     OW27660   5.613   7.250   3.278 -0.0320 -0.3297 -0.0505
 8740SOL    HW127661   5.533   7.290   3.310  0.2707  0.0967  0.1915
 8740SOL    HW227662   5.664   7.323   3.244  0.3065 -0.5807 -0.0899
 8741SOL     OW27663   0.839   7.101  11.972  0.2832 -0.1571  0.1305
 8741SOL    HW127664   0.885   7.161  12.031 -0.4661 -1.6722  2.4156
 8741SOL    HW227665   0.855   7.136  11.885  2.0582  1.8358  1.1515
 8742SOL     OW27666   5.621   6.823   0.869 -0.0747  0.1448  0.1327
 8742SOL    HW127667   5.681   6.873   0.924  0.7998 -0.3819 -0.3183
 8742SOL    HW227668   5.542   6.813   0.923 -0.4337  2.3256  0.0797
 8743SOL     OW27669   5.124   1.713   6.353  0.1846  0.0125  0.6002
 8743SOL    HW127670   5.103   1.804   6.374  1.2071  0.4812 -0.3044
 8743SOL    HW227671   5.121   1.709   6.258  2.0463 -0.3899  0.5083
 8744SOL     OW27672   3.242   1.883  11.247 -0.5003 -0.1071 -0.0277
 8744SOL    HW127673   3.328   1.908  11.280 -0.2407 -0.1596 -0.6646
 8744SOL    HW227674   3.199   1.841  11.323 -0.0485  0.0985  0.3458
 8745SOL     OW27675   0.187   3.037   5.338 -0.5896 -0.2818 -0.1668
 8745SOL    HW127676   0.159   3.092   5.265 -1.1215 -0.7548 -0.3173
 8745SOL    HW227677   0.254   2.980   5.301 -1.2360 -0.8872 -0.4215
 8746SOL     OW27678   2.708   1.285   7.311  0.1088  0.5599  0.8736
 8746SOL    HW127679   2.758   1.366   7.319 -0.1319  0.9429 -0.9311
 8746SOL    HW227680   2.663   1.275   7.395  2.1839  0.8779  2.0676
 8747SOL     OW27681   3.081   7.170   8.872 -0.3849 -0.0090  0.0957
 8747SOL    HW127682   2.992   7.137   8.862 -0.2887 -0.3987  0.4704
 8747SOL    HW227683   3.136   7.092   8.872 -0.0460  0.2279 -0.1051
 8748SOL     OW27684   3.291   5.716   2.203 -0.0476 -0.4920 -0.1797
 8748SOL    HW127685   3.263   5.798   2.162 -0.2842 -0.6648 -0.3694
 8748SOL    HW227686   3.224   5.699   2.269 -0.5192 -1.0221 -0.7839
 8749SOL     OW27687   0.506   2.977   8.970 -0.3535  0.1769 -0.5415
 8749SOL    HW127688   0.553   2.914   8.915  1.1004 -0.5453  1.4338
 8749SOL    HW227689   0.449   2.924   9.025 -0.5846  0.7631 -0.2086
 8750SOL     OW27690   1.539   0.925  12.360 -0.1038 -0.0420  0.1521
 8750SOL    HW127691   1.572   0.919  12.450  0.7919  3.0755  0.1507
 8750SOL    HW227692   1.506   1.015  12.353 -0.3349 -0.2703 -2.5930
 8751SOL     OW27693   5.628   7.478  10.736  0.4613 -0.7344 -0.3388
 8751SOL    HW127694   5.579   7.521  10.666  0.7588  1.3326  0.6269
 8751SOL    HW227695   5.581   7.502  10.816  2.2240  0.1504  0.4876
 8752SOL     OW27696   6.123   5.993   0.224 -0.6705 -0.1047 -0.2571
 8752SOL    HW127697   6.073   6.061   0.270  0.4788  0.0668  0.7921
 8752SOL    HW227698   6.132   6.026   0.134 -1.3234  0.4620 -0.1214
 8753SOL     OW27699   7.753   3.237   4.951 -0.5991  0.0320 -0.4053
 8753SOL    HW127700   7.767   3.309   5.013 -1.6579  0.1123 -0.2408
 8753SOL    HW227701   7.838   3.195   4.943  0.1835  1.6389 -0.9220
 8754SOL     OW27702   5.601   4.688   4.832 -0.0215 -0.5705 -0.5411
 8754SOL    HW127703   5.566   4.631   4.901  1.9688  0.5954  1.5342
 8754SOL    HW227704   5.646   4.628   4.773  0.4820 -1.3689  0.6063
 8755SOL     OW27705   0.420   7.454   8.450  0.1948 -0.5557 -0.2523
 8755SOL    HW127706   0.335   7.411   8.454 -0.1398  0.1723  0.7484
 8755SOL    HW227707   0.455   7.447   8.539  1.2966 -1.0386 -0.6939
 8756SOL     OW27708   6.792   2.755   5.594 -0.0004  0.4509 -0.5267
 8756SOL    HW127709   6.805   2.747   5.499  0.1708 -0.7621 -0.4247
 8756SOL    HW227710   6.706   2.716   5.609  0.7065 -0.9994 -0.0064
 8757SOL     OW27711   1.478   3.018   7.444  0.3174  0.1406 -0.2904
 8757SOL    HW127712   1.569   3.048   7.449  0.8031 -1.3399 -0.0035
 8757SOL    HW227713   1.481   2.925   7.464 -0.8662 -0.6464 -3.1696
 8758SOL     OW27714   3.519   1.117   1.960 -0.1123  0.0216 -0.3807
 8758SOL    HW127715   3.611   1.132   1.938 -0.6635  1.2783 -2.0726
 8758SOL    HW227716   3.516   1.026   1.990  1.0686 -1.6719 -4.5669
 8759SOL     OW27717   2.686   6.435   4.435 -0.0194  0.3779  0.3798
 8759SOL    HW127718   2.659   6.383   4.510  0.9665  0.1512  0.5870
 8759SOL    HW227719   2.702   6.523   4.471 -1.5190  0.8141  0.0602
 8760SOL     OW27720   1.137   5.860   2.844 -0.3696  0.3927 -0.6328
 8760SOL    HW127721   1.042   5.852   2.837 -0.4067  1.4037 -1.7011
 8760SOL    HW227722   1.171   5.778   2.810 -0.8572  0.0383 -0.2767
 8761SOL     OW27723   7.919   7.014   6.043 -0.1485  0.1915 -0.5683
 8761SOL    HW127724   7.872   7.090   6.078 -0.2290  0.4762 -1.2860
 8761SOL    HW227725   7.897   7.013   5.950 -1.5329 -1.7279 -0.2605
 8762SOL     OW27726   7.232   6.262   9.122  0.6635  0.4949  0.1799
 8762SOL    HW127727   7.219   6.175   9.084 -3.3623  0.6387  0.7652
 8762SOL    HW227728   7.265   6.315   9.049 -1.4206 -0.5077 -1.6221
 8763SOL     OW27729   1.842   3.370   6.778 -0.0781  0.2100 -0.6377
 8763SOL    HW127730   1.758   3.363   6.732 -1.0937 -0.2702  1.2009
 8763SOL    HW227731   1.904   3.325   6.721 -1.5009 -1.3258 -1.0623
 8764SOL     OW27732   5.386   2.337  12.072 -0.0011  0.5348  0.0914
 8764SOL    HW127733   5.349   2.262  12.117  1.9536  0.4358  1.6931
 8764SOL    HW227734   5.462   2.362  12.125  2.1444  0.7842 -2.8196
 8765SOL     OW27735   5.814   0.968   7.124 -0.1675  0.1124 -0.0182
 8765SOL    HW127736   5.736   1.018   7.102 -0.1947 -0.7332 -2.0329
 8765SOL    HW227737   5.790   0.877   7.108  1.0826 -0.1972 -0.2914
 8766SOL     OW27738   5.685   5.007   8.886 -0.2236  0.4374  0.4536
 8766SOL    HW127739   5.649   4.946   8.950 -0.4530  1.6016  1.4586
 8766SOL    HW227740   5.620   5.077   8.880 -0.9132 -0.3149 -2.1437
 8767SOL     OW27741   6.145   6.164  10.583 -0.3029 -0.5320 -0.6225
 8767SOL    HW127742   6.121   6.254  10.564  0.0273 -0.4406 -0.6045
 8767SOL    HW227743   6.112   6.149  10.672  3.1134  0.8681  1.0522
 8768SOL     OW27744   0.636   5.591   6.058 -0.3542 -0.0232 -0.3968
 8768SOL    HW127745   0.547   5.609   6.088 -0.4446 -2.6377  1.2329
 8768SOL    HW227746   0.678   5.547   6.132  1.4875 -1.0828 -1.9832
 8769SOL     OW27747   6.610   2.580   5.728 -0.0389 -0.0784  0.1678
 8769SOL    HW127748   6.597   2.660   5.777 -1.7197  0.3365 -0.8927
 8769SOL    HW227749   6.571   2.511   5.782  0.1363  0.0191  0.4204
 8770SOL     OW27750   0.000   1.308   4.268 -0.2365 -0.0394 -0.3039
 8770SOL    HW127751   0.065   1.247   4.232  0.1124  0.2882 -0.2362
 8770SOL    HW227752   0.005   1.385   4.211  1.1234  0.9497  1.0582
 8771SOL     OW27753   5.115   6.361   6.851  0.2085 -0.0158  0.1593
 8771SOL    HW127754   5.179   6.378   6.782  0.9040 -0.2321  0.7406
 8771SOL    HW227755   5.044   6.313   6.807  0.1783  0.6998 -0.6043
 8772SOL     OW27756   5.263   3.437   7.532 -0.4906  0.2631 -0.3379
 8772SOL    HW127757   5.312   3.480   7.602  1.9965 -3.8343  0.8379
 8772SOL    HW227758   5.172   3.445   7.558  0.0845  1.9870  1.3879
 8773SOL     OW27759   0.078   6.414  11.319 -0.1706  0.0712  0.0973
 8773SOL    HW127760   0.119   6.456  11.243  0.0587 -0.7953 -0.2692
 8773SOL    HW227761   0.025   6.483  11.359  1.3042  1.1140  0.3471
 8774SOL     OW27762   1.680   1.230   4.623  0.5223 -0.4146 -0.1754
 8774SOL    HW127763   1.669   1.324   4.609  0.0175 -0.5007 -0.3491
 8774SOL    HW227764   1.607   1.190   4.577 -0.1336 -0.8037  1.1455
 8775SOL     OW27765   6.533   0.143   8.607 -0.3242  0.1378  0.1586
 8775SOL    HW127766   6.620   0.105   8.596  0.0422  1.0099 -0.0376
 8775SOL    HW227767   6.483   0.111   8.532 -0.2803 -0.6493  0.4621
 8776SOL     OW27768   7.394   3.138   2.048 -0.4240 -0.5043 -0.1451
 8776SOL    HW127769   7.409   3.163   1.957 -0.9062  0.7332  0.0977
 8776SOL    HW227770   7.334   3.204   2.082 -1.4810 -1.8237  0.6502
 8777SOL     OW27771   6.860   5.175   2.822 -0.0519 -0.0541  0.0130
 8777SOL    HW127772   6.836   5.088   2.789 -0.6405  0.8190 -1.9850
 8777SOL    HW227773   6.783   5.203   2.872  0.2918 -0.8141  0.9993
 8778SOL     OW27774   5.155   0.348   9.173  0.0657  0.2243  0.3277
 8778SOL    HW127775   5.231   0.407   9.167  0.4868 -0.2243  1.0597
 8778SOL    HW227776   5.081   0.406   9.189  0.2362  0.6744 -0.4402
 8779SOL     OW27777   5.917   6.052   7.242  0.5165  0.3170  0.2197
 8779SOL    HW127778   5.942   6.089   7.326 -1.4827 -1.5631  1.7366
 8779SOL    HW227779   5.825   6.028   7.251  0.3233 -0.3278 -2.3695
 8780SOL     OW27780   3.228   1.041   8.541  0.4383 -0.1011  0.4912
 8780SOL    HW127781   3.191   1.085   8.619 -0.2231  1.2025 -0.5015
 8780SOL    HW227782   3.151   1.007   8.495  0.7948 -0.5662  0.2390
 8781SOL     OW27783   3.860   0.069  12.005 -0.1897 -0.0428  0.0324
 8781SOL    HW127784   3.803   0.100  12.076  1.2851  2.2978  0.3205
 8781SOL    HW227785   3.807   0.005  11.957 -2.0432  0.0125  1.8729
 8782SOL     OW27786   3.361   5.990   0.719 -0.2237 -0.1443  0.3439
 8782SOL    HW127787   3.298   5.927   0.685  0.4149 -1.3830  1.3669
 8782SOL    HW227788   3.386   5.955   0.805  4.0261 -1.3544 -1.1416
 8783SOL     OW27789   2.188   2.957   4.899 -0.1778 -0.3660  0.5441
 8783SOL    HW127790   2.233   2.952   4.983  0.8328 -0.4268  0.0072
 8783SOL    HW227791   2.108   3.006   4.918  1.8488  3.1695  0.8059
 8784SOL     OW27792   0.074   1.044   1.077  0.2239 -0.7636 -0.3501
 8784SOL    HW127793   0.018   0.999   1.012 -0.7428  0.6781 -0.5496
 8784SOL    HW227794   0.025   1.122   1.101  0.2005 -1.6122  2.7254
 8785SOL     OW27795   5.594   7.546  12.464 -0.6094  0.5499  0.0331
 8785SOL    HW127796   5.519   7.487  12.474 -0.7775  0.5777 -0.9130
 8785SOL    HW227797   5.670   7.493  12.487 -0.6696 -0.3494 -1.6706
 8786SOL     OW27798   0.675   3.383   9.133 -0.0565  0.1502  0.1282
 8786SOL    HW127799   0.595   3.435   9.143 -0.5503 -0.8001  1.4912
 8786SOL    HW227800   0.746   3.443   9.156 -0.6077  0.2883  1.5936
 8787SOL     OW27801   3.338   7.267   8.363  0.3223  0.4602  0.0180
 8787SOL    HW127802   3.354   7.337   8.300  0.3309  0.2294 -0.2343
 8787SOL    HW227803   3.254   7.230   8.338 -0.1648  1.0281  0.7558
 8788SOL     OW27804   2.953   4.295  12.321 -0.5927 -0.3421 -0.1564
 8788SOL    HW127805   2.991   4.208  12.308 -3.0848 -1.7674  1.3076
 8788SOL    HW227806   3.008   4.336  12.388 -0.1477 -1.3290  0.0992
 8789SOL     OW27807   3.164   0.814   2.243  0.3014  0.4447  0.7546
 8789SOL    HW127808   3.249   0.852   2.262  0.9535 -0.8147  0.4257
 8789SOL    HW227809   3.106   0.850   2.310  0.7841  2.3067  0.2339
 8790SOL     OW27810   3.788   7.901   1.953  0.1014 -0.6682 -0.2669
 8790SOL    HW127811   3.720   7.895   2.021  1.0888  1.9401  1.1129
 8790SOL    HW227812   3.869   7.915   2.001  0.8267  1.4188 -1.9321
 8791SOL     OW27813   6.063   7.436  10.071  0.0616  0.1866 -0.3291
 8791SOL    HW127814   6.139   7.380  10.088 -0.8702 -0.7862  0.8032
 8791SOL    HW227815   5.989   7.375  10.070 -0.9031  1.3280  0.2782
 8792SOL     OW27816   2.698   0.044  12.001 -0.0805  0.5663  0.1845
 8792SOL    HW127817   2.734   0.012  11.918 -0.6383  1.1057 -0.2762
 8792SOL    HW227818   2.742   0.127  12.016 -1.5755  1.5681 -0.7343
 8793SOL     OW27819   1.289   2.174  11.106  0.0535 -0.1936 -0.1266
 8793SOL    HW127820   1.219   2.165  11.171 -0.0629 -2.7807 -0.5245
 8793SOL    HW227821   1.353   2.233  11.147 -0.2771 -1.3004  2.1103
 8794SOL     OW27822   2.939   6.432   2.255  0.3389 -0.6712 -0.0984
 8794SOL    HW127823   2.920   6.412   2.164 -0.9382 -2.4705  0.5217
 8794SOL    HW227824   3.027   6.471   2.253  0.8383 -1.7993 -1.9580
 8795SOL     OW27825   7.020   1.412   3.342  0.6653  0.0817  0.2218
 8795SOL    HW127826   7.112   1.430   3.356  0.0250  1.8835  2.7975
 8795SOL    HW227827   7.008   1.323   3.375  1.3762  0.0729  0.4747
 8796SOL     OW27828   0.450   3.618   8.235  0.3697 -0.2078 -0.3101
 8796SOL    HW127829   0.407   3.545   8.191  3.2982 -2.7996  0.7480
 8796SOL    HW227830   0.516   3.649   8.173  1.0198 -0.3704  0.2889
 8797SOL     OW27831   4.819   2.522   2.287  0.3862  0.3800  0.5866
 8797SOL    HW127832   4.731   2.526   2.324  0.0536  0.1302 -0.1574
 8797SOL    HW227833   4.810   2.466   2.210  0.7177  2.1213 -0.7878
 8798SOL     OW27834   0.942   0.249  10.488 -0.1197 -0.0799 -0.6523
 8798SOL    HW127835   1.012   0.310  10.468 -0.7412  0.5268 -1.0391
 8798SOL    HW227836   0.871   0.304  10.522 -0.2912 -0.7152  0.0667
 8799SOL     OW27837   1.093   5.702   8.881  0.4028 -0.5325  0.1063
 8799SOL    HW127838   1.156   5.630   8.887  2.2405  0.9663  0.0158
 8799SOL    HW227839   1.129   5.769   8.940 -2.0034 -0.1902  1.2967
 8800SOL     OW27840   7.451   5.700   3.110 -0.0874 -0.4240 -0.1633
 8800SOL    HW127841   7.380   5.764   3.114  0.8582  0.5966  1.3572
 8800SOL    HW227842   7.531   5.752   3.122  0.7782 -1.7604  0.0635
 8801SOL     OW27843   2.991   6.848  10.734  0.0667  0.1947 -0.2633
 8801SOL    HW127844   3.017   6.939  10.742  0.9249  0.2062 -2.3998
 8801SOL    HW227845   2.949   6.827  10.817  1.5849  1.9540  1.0353
 8802SOL     OW27846   3.080   2.007  11.924  0.1931 -0.4666 -0.9004
 8802SOL    HW127847   3.037   2.092  11.935  0.9604 -0.2897  0.9901
 8802SOL    HW227848   3.012   1.952  11.886 -1.3510  0.1720  0.7599
 8803SOL     OW27849   5.596   4.553   2.440 -0.0873  0.1294  0.4907
 8803SOL    HW127850   5.553   4.586   2.362 -0.8766 -0.8188  0.5058
 8803SOL    HW227851   5.592   4.626   2.502 -2.2392 -0.1067  0.7076
 8804SOL     OW27852   7.753   4.335   2.828  0.2124  0.3690 -0.4209
 8804SOL    HW127853   7.758   4.392   2.904  0.1797 -1.1009  0.7288
 8804SOL    HW227854   7.839   4.293   2.823  0.9052  1.8616 -2.3992
 8805SOL     OW27855   4.117   0.676   4.017  0.1902  0.2996  0.0471
 8805SOL    HW127856   4.026   0.700   4.031  0.4773  1.1539  0.5290
 8805SOL    HW227857   4.139   0.620   4.091 -0.8214 -2.5649 -1.6827
 8806SOL     OW27858   7.303   2.123   8.397 -0.1861 -0.2867  0.1685
 8806SOL    HW127859   7.291   2.119   8.492 -2.4320 -0.3230 -0.0483
 8806SOL    HW227860   7.347   2.041   8.375  0.7678 -0.0813  1.2038
 8807SOL     OW27861   5.256   1.489   4.556 -0.2006  0.3466  0.3272
 8807SOL    HW127862   5.189   1.482   4.624 -0.5941 -2.6129 -0.2028
 8807SOL    HW227863   5.328   1.434   4.587  0.7372  1.1039 -0.4486
 8808SOL     OW27864   0.230   4.293   9.758 -0.2446  0.4687 -0.1847
 8808SOL    HW127865   0.251   4.382   9.787  0.2405  0.4850 -0.5709
 8808SOL    HW227866   0.296   4.238   9.802 -1.3147  0.1292  1.0738
 8809SOL     OW27867   5.204   6.112   6.033 -0.1492  0.2669 -0.1811
 8809SOL    HW127868   5.264   6.059   6.086 -1.3332 -0.0229  0.9362
 8809SOL    HW227869   5.144   6.048   5.995 -0.4005  0.6351 -0.4109
 8810SOL     OW27870   0.892   5.139   9.105  0.1909 -0.3424  0.1743
 8810SOL    HW127871   0.962   5.094   9.153  0.0617  1.3191  2.0329
 8810SOL    HW227872   0.936   5.212   9.061 -0.1807 -0.0122  0.3489
 8811SOL     OW27873   1.695   1.440   9.969 -0.3595 -0.6708  0.0383
 8811SOL    HW127874   1.623   1.462   9.910 -0.3121 -0.3355  0.1010
 8811SOL    HW227875   1.773   1.446   9.914 -0.4862 -2.3497 -0.3659
 8812SOL     OW27876   2.124   0.055   1.704 -0.2385 -0.4294  0.3483
 8812SOL    HW127877   2.216   0.069   1.681 -0.8099 -0.8953 -2.5236
 8812SOL    HW227878   2.123   0.056   1.800  2.2997  2.4505  0.4894
 8813SOL     OW27879   5.559   5.801   1.362 -0.0944 -0.0832 -0.1057
 8813SOL    HW127880   5.505   5.814   1.285  0.9820  0.5801 -0.7696
 8813SOL    HW227881   5.608   5.882   1.372  0.9655 -0.7497  0.3197
 8814SOL     OW27882   2.827   6.762   0.309  0.3119 -0.9473 -0.0528
 8814SOL    HW127883   2.902   6.714   0.274 -0.6023 -2.6355  0.1553
 8814SOL    HW227884   2.759   6.695   0.320 -1.0236  0.4051  0.3507
 8815SOL     OW27885   1.712   3.941   0.688 -0.4340 -0.3176  0.1885
 8815SOL    HW127886   1.686   3.974   0.774 -0.1411 -0.0069  0.1570
 8815SOL    HW227887   1.776   3.872   0.707  1.2186  1.1530  0.1658
 8816SOL     OW27888   1.349   1.063   2.327  0.1032  0.3050  0.1236
 8816SOL    HW127889   1.330   1.102   2.412 -0.3213  0.5530 -0.0807
 8816SOL    HW227890   1.433   1.100   2.301  0.1751  0.3199  0.3810
 8817SOL     OW27891   0.876   1.025  12.371 -0.0232 -0.8321  0.1348
 8817SOL    HW127892   0.831   1.042  12.454 -2.6928 -2.0504 -0.9486
 8817SOL    HW227893   0.882   1.111  12.329 -0.6647 -0.5296  0.6419
 8818SOL     OW27894   2.873   1.031  10.183 -0.4257 -0.5385 -0.4032
 8818SOL    HW127895   2.791   1.078  10.199  0.3659  1.1023 -0.9646
 8818SOL    HW227896   2.847   0.951  10.138 -1.7401 -0.1591 -0.3464
 8819SOL     OW27897   7.303   1.919   3.104  0.2786 -0.2801  0.2636
 8819SOL    HW127898   7.372   1.864   3.066  1.8881  1.2383  0.8492
 8819SOL    HW227899   7.256   1.953   3.028  1.1599 -0.1301 -0.2358
 8820SOL     OW27900   7.778   5.417   2.267  0.3891  0.5819  0.4233
 8820SOL    HW127901   7.759   5.420   2.360 -0.1869  2.1000  0.2975
 8820SOL    HW227902   7.698   5.449   2.225  1.3839  2.0554 -0.4513
 8821SOL     OW27903   5.813   7.449   0.101 -0.2748  0.0684  0.0892
 8821SOL    HW127904   5.869   7.377   0.075 -1.5288 -0.5671 -0.9525
 8821SOL    HW227905   5.751   7.411   0.163 -0.5480  0.3997  0.0252
 8822SOL     OW27906   0.612   4.948   5.512 -0.1929  0.3077  0.5124
 8822SOL    HW127907   0.575   4.985   5.431  0.4394 -2.0921 -0.9760
 8822SOL    HW227908   0.683   5.008   5.535 -1.4574  1.9633  0.2979
 8823SOL     OW27909   7.835   7.961   2.344  0.1405  0.5120  0.4813
 8823SOL    HW127910   7.817   7.960   2.250 -1.2254  0.1107  0.7260
 8823SOL    HW227911   7.821   7.870   2.372 -0.0917  0.7521  1.1750
 8824SOL     OW27912   5.820   7.460  11.024  0.3750 -0.5190  0.0096
 8824SOL    HW127913   5.767   7.447  11.103  0.3153 -1.5549 -0.1967
 8824SOL    HW227914   5.756   7.481  10.956  0.3436 -0.5242  0.0369
 8825SOL     OW27915   7.416   4.113   7.621  0.0394 -0.2608  0.5422
 8825SOL    HW127916   7.482   4.098   7.553 -1.4728  0.3315 -1.1373
 8825SOL    HW227917   7.464   4.151   7.694  1.5092  0.3711 -0.7094
 8826SOL     OW27918   4.165   3.364   1.255  0.0190  0.2437 -0.2491
 8826SOL    HW127919   4.217   3.425   1.203  0.1308 -0.4896 -1.0174
 8826SOL    HW227920   4.093   3.338   1.197  0.8106 -1.5138 -0.5130
 8827SOL     OW27921   3.237   6.660  10.789 -0.2535  0.2916 -0.2192
 8827SOL    HW127922   3.297   6.636  10.718 -2.0846 -0.2540 -1.6670
 8827SOL    HW227923   3.252   6.594  10.857  1.3438  0.6720 -0.1601
 8828SOL     OW27924   3.006   7.295   8.269  0.0207  0.5173  0.1752
 8828SOL    HW127925   2.997   7.259   8.181  0.0976 -0.5317  0.5825
 8828SOL    HW227926   2.941   7.365   8.273 -2.0702 -1.3301  0.2418
 8829SOL     OW27927   5.470   3.361   2.007  0.0701  0.2033 -0.2138
 8829SOL    HW127928   5.536   3.397   2.066  0.7600 -0.9679 -0.2463
 8829SOL    HW227929   5.490   3.267   2.002  0.3273  0.3202 -2.6811
 8830SOL     OW27930   4.275   6.158   4.693  0.2906 -0.0725 -0.0365
 8830SOL    HW127931   4.223   6.086   4.730 -0.8271  0.6986 -0.0747
 8830SOL    HW227932   4.320   6.119   4.618 -0.0885 -0.7919  0.0997
 8831SOL     OW27933   6.480   5.275   9.313  0.6863  0.0203  0.1738
 8831SOL    HW127934   6.413   5.319   9.365  0.3074 -0.0761 -0.2335
 8831SOL    HW227935   6.549   5.255   9.377  1.3166  2.0479  0.1966
 8832SOL     OW27936   6.469   6.630   6.581  0.0732  0.4289  0.0225
 8832SOL    HW127937   6.399   6.623   6.646  0.2368 -0.0416  0.1473
 8832SOL    HW227938   6.487   6.540   6.555  0.0349  0.6114 -0.6501
 8833SOL     OW27939   6.008   7.277   0.357  0.4802  0.5152  0.5415
 8833SOL    HW127940   5.991   7.209   0.292  0.0053  0.4809  0.6947
 8833SOL    HW227941   5.941   7.263   0.425  0.6099  0.9028  0.7558
 8834SOL     OW27942   1.352   6.408   1.976  0.0588  0.2400 -0.4136
 8834SOL    HW127943   1.260   6.386   1.991  0.2586  0.2557  0.9500
 8834SOL    HW227944   1.398   6.324   1.976  0.1609  0.2935 -0.1648
 8835SOL     OW27945   5.934   0.835   1.852  0.1900  0.5115 -0.5044
 8835SOL    HW127946   5.963   0.834   1.761  1.9041  0.8101  0.0131
 8835SOL    HW227947   5.838   0.840   1.846  0.0810 -1.9859 -2.2765
 8836SOL     OW27948   3.582   0.707  11.400 -0.1148  0.1464  0.0828
 8836SOL    HW127949   3.676   0.718  11.416  0.3464 -0.9552 -1.5823
 8836SOL    HW227950   3.564   0.763  11.324 -0.4020 -0.9719 -0.6954
 8837SOL     OW27951   0.597   1.559   5.047 -0.0784 -0.2969  0.2842
 8837SOL    HW127952   0.530   1.601   5.101  0.3414  1.1324 -0.2618
 8837SOL    HW227953   0.672   1.618   5.050  0.0210 -0.2268 -1.7104
 8838SOL     OW27954   3.372   2.989   9.913  0.2464  0.0409  0.0428
 8838SOL    HW127955   3.277   2.983   9.926  0.0140  1.2505 -0.8752
 8838SOL    HW227956   3.401   3.051   9.980  0.2469  0.3492 -0.2416
 8839SOL     OW27957   4.640   0.513  11.714 -0.3378  0.3267  0.4664
 8839SOL    HW127958   4.657   0.464  11.633  1.4001  0.5351  0.6656
 8839SOL    HW227959   4.676   0.457  11.784 -1.5531  0.2826  1.0760
 8840SOL     OW27960   7.604   0.742  11.928  0.2358 -0.4202 -0.3654
 8840SOL    HW127961   7.643   0.814  11.878 -1.8360  0.1663 -1.2624
 8840SOL    HW227962   7.515   0.772  11.947  0.0186 -1.8843  1.1307
 8841SOL     OW27963   4.593   6.425   8.053  0.0731  0.5210 -0.6212
 8841SOL    HW127964   4.685   6.413   8.076 -0.3819 -1.9902  0.2104
 8841SOL    HW227965   4.591   6.415   7.958  0.4849 -0.9907 -0.4922
 8842SOL     OW27966   7.716   5.569   7.247  0.4613  0.3712 -0.8548
 8842SOL    HW127967   7.626   5.601   7.258  1.1499  1.8275  1.0261
 8842SOL    HW227968   7.767   5.620   7.309  2.7279  0.0490 -2.3505
 8843SOL     OW27969   3.250   1.508   6.717 -0.0908  0.1738 -0.1923
 8843SOL    HW127970   3.161   1.541   6.705 -0.3667 -0.9592 -1.5429
 8843SOL    HW227971   3.284   1.556   6.793 -0.8752  2.6203 -1.2781
 8844SOL     OW27972   7.393   7.253   4.735 -0.3039 -0.5819  0.0766
 8844SOL    HW127973   7.343   7.181   4.696 -0.0889 -0.6359 -0.1028
 8844SOL    HW227974   7.362   7.257   4.826 -2.3720  0.9589 -0.6255
 8845SOL     OW27975   2.236   3.316  10.551 -0.5808 -0.1246 -0.0077
 8845SOL    HW127976   2.281   3.233  10.563 -0.7465 -0.5054 -1.7780
 8845SOL    HW227977   2.146   3.299  10.580 -0.2874 -0.1566  0.9074
 8846SOL     OW27978   0.050   7.227   0.966 -0.4132  0.2616 -0.2851
 8846SOL    HW127979   0.017   7.310   1.001  0.9291  0.5854  0.2744
 8846SOL    HW227980   0.040   7.235   0.871  1.6192  1.9821 -0.4325
 8847SOL     OW27981   2.477   6.959   4.504 -0.3284 -0.4749 -0.2762
 8847SOL    HW127982   2.528   6.937   4.427  0.5191  0.8518 -0.1181
 8847SOL    HW227983   2.539   7.002   4.563 -1.4161  0.3757  0.2875
 8848SOL     OW27984   3.426   2.204   9.116  0.2964 -0.0403  0.0905
 8848SOL    HW127985   3.522   2.196   9.113  0.3092  0.1737 -0.1583
 8848SOL    HW227986   3.396   2.159   9.037  0.0179 -2.3164  1.4309
 8849SOL     OW27987   0.488   2.185   4.557 -0.1457  0.0243 -0.5128
 8849SOL    HW127988   0.395   2.207   4.562 -0.2138 -0.2622 -0.5539
 8849SOL    HW227989   0.513   2.209   4.468 -0.3471 -0.5691 -0.7302
 8850SOL     OW27990   6.835   3.378   2.406  0.0070  0.2826  0.2638
 8850SOL    HW127991   6.865   3.402   2.493 -1.9861 -0.7672  1.3075
 8850SOL    HW227992   6.817   3.284   2.412  0.4435  0.0524 -1.4828
 8851SOL     OW27993   7.783   3.148   1.048  0.4741 -0.1259 -0.0451
 8851SOL    HW127994   7.803   3.082   1.115 -1.1393 -1.1942 -0.5515
 8851SOL    HW227995   7.693   3.175   1.067  0.3535  0.2928 -1.1638
 8852SOL     OW27996   7.450   4.365  12.397 -0.1681 -0.4881  0.6272
 8852SOL    HW127997   7.360   4.331  12.398 -0.7342  0.9312  1.5818
 8852SOL    HW227998   7.501   4.299  12.443 -1.2550 -0.0515  2.5614
 8853SOL     OW27999   1.424   3.023   3.888 -0.1770  0.2081 -0.3451
 8853SOL    HW128000   1.475   3.078   3.828  1.1584 -0.9871 -0.3683
 8853SOL    HW228001   1.466   3.035   3.973  0.0742 -0.6761 -0.3324
 8854SOL     OW28002   4.233   6.609   3.315  0.6305  0.2903 -0.1663
 8854SOL    HW128003   4.281   6.685   3.282  0.8829 -0.1929 -0.9333
 8854SOL    HW228004   4.222   6.552   3.239  0.8356 -0.6552  0.4962
 8855SOL     OW28005   5.943   2.399   8.888  0.1602 -0.3059 -0.0519
 8855SOL    HW128006   5.986   2.314   8.882 -0.2289 -0.5453  0.5579
 8855SOL    HW228007   5.878   2.398   8.817 -0.8711 -1.1096  0.8825
 8856SOL     OW28008   6.683   6.927   9.533  0.2985 -0.0310  0.2956
 8856SOL    HW128009   6.651   6.950   9.621 -0.0271 -0.9851  0.4420
 8856SOL    HW228010   6.750   6.860   9.549  0.5823  0.1428 -0.1609
 8857SOL     OW28011   7.192   4.484   9.349 -0.5009 -0.6284  0.2095
 8857SOL    HW128012   7.225   4.561   9.394 -0.9346  0.0158 -0.5472
 8857SOL    HW228013   7.234   4.410   9.393  0.1227  0.0502  0.7679
 8858SOL     OW28014   3.912   7.055  10.159  0.1082  0.0146  0.2477
 8858SOL    HW128015   4.001   7.085  10.143 -0.1914  0.2811 -1.0673
 8858SOL    HW228016   3.908   6.969  10.116 -0.1025 -0.2587  0.8049
 8859SOL     OW28017   5.535   6.989  10.686 -0.2581 -0.0830 -0.2830
 8859SOL    HW128018   5.595   7.064  10.684  0.1128 -0.3636  0.0994
 8859SOL    HW228019   5.460   7.021  10.737 -1.5127  1.0278 -2.6596
 8860SOL     OW28020   7.146   4.806  11.600 -0.4136  0.0931 -0.3998
 8860SOL    HW128021   7.166   4.735  11.539 -1.9596  0.2149 -1.1209
 8860SOL    HW228022   7.089   4.864  11.550 -1.7475  0.1980  1.1558
 8861SOL     OW28023   2.955   4.022   3.545  0.4594  0.0531 -0.2875
 8861SOL    HW128024   2.963   3.937   3.589 -1.7498 -0.4103 -0.6593
 8861SOL    HW228025   2.916   4.001   3.460  1.3382  1.3157 -1.0374
 8862SOL     OW28026   3.459   2.098   0.249  0.3474 -0.3227  0.0137
 8862SOL    HW128027   3.522   2.083   0.178 -1.0699  1.8183 -1.8254
 8862SOL    HW228028   3.431   2.189   0.238 -1.1752 -0.4116  2.3529
 8863SOL     OW28029   3.930   7.850   8.700 -0.3837  0.1522  0.1565
 8863SOL    HW128030   3.948   7.933   8.744 -2.1967  0.5768  0.1412
 8863SOL    HW228031   3.850   7.817   8.741  0.6077 -1.9209  0.5857
 8864SOL     OW28032   7.738   6.827   8.588 -1.0073  0.5568 -0.2351
 8864SOL    HW128033   7.778   6.906   8.553 -1.5206  0.8086 -0.2611
 8864SOL    HW228034   7.783   6.755   8.544  0.3972  0.7857  0.7766
 8865SOL     OW28035   1.142   1.317   8.954 -0.4012 -0.1452 -0.2819
 8865SOL    HW128036   1.210   1.266   8.911  0.6109 -0.0649  1.1551
 8865SOL    HW228037   1.183   1.350   9.033 -0.5290  4.1589 -1.7726
 8866SOL     OW28038   2.405   3.198   7.641 -0.0057 -0.1647  0.5270
 8866SOL    HW128039   2.368   3.273   7.687  1.6056  2.1959 -1.7687
 8866SOL    HW228040   2.483   3.175   7.691  0.4678  0.8716  0.2816
 8867SOL     OW28041   3.769   2.957   5.186 -0.1593  0.4414 -0.4890
 8867SOL    HW128042   3.841   2.902   5.155 -1.0398 -1.4033  0.5319
 8867SOL    HW228043   3.703   2.952   5.116  0.0222  0.7545 -0.6852
 8868SOL     OW28044   2.488   0.608  11.822 -0.2302  0.0830  0.1867
 8868SOL    HW128045   2.492   0.695  11.784 -3.8208 -0.6243 -2.2027
 8868SOL    HW228046   2.573   0.598  11.867  2.1755  3.0369 -3.1682
 8869SOL     OW28047   2.976   1.528   6.238  0.4640  0.2151 -0.2526
 8869SOL    HW128048   3.044   1.572   6.187  0.0603 -0.1299 -1.1139
 8869SOL    HW228049   3.025   1.477   6.303  0.9565  1.2639  0.2120
 8870SOL     OW28050   5.166   5.300  10.549 -0.1793  0.1961 -0.0078
 8870SOL    HW128051   5.210   5.217  10.527 -0.4997  0.4307 -1.7002
 8870SOL    HW228052   5.076   5.274  10.568  0.2289 -0.0779  1.7392
 8871SOL     OW28053   2.025   4.259   6.245 -0.2911 -0.0645 -0.2530
 8871SOL    HW128054   2.109   4.255   6.200 -0.1873 -0.1644 -0.0534
 8871SOL    HW228055   1.993   4.347   6.228  0.2428  0.2561  0.3574
 8872SOL     OW28056   5.150   4.389   2.406 -0.2392 -0.2617 -0.2588
 8872SOL    HW128057   5.071   4.429   2.442 -0.6837 -1.0055 -0.3776
 8872SOL    HW228058   5.157   4.425   2.318 -1.2944 -1.2807 -0.7960
 8873SOL     OW28059   6.950   5.500   1.941 -0.1261 -0.1723  0.0453
 8873SOL    HW128060   6.896   5.562   1.891  0.1135 -0.6311 -0.8021
 8873SOL    HW228061   6.886   5.447   1.990 -0.3273  0.8122  0.8891
 8874SOL     OW28062   4.676   2.673  11.058 -0.6027  0.1821  0.4289
 8874SOL    HW128063   4.668   2.648  11.150  0.0743 -0.0270  0.4355
 8874SOL    HW228064   4.690   2.767  11.060 -2.1758  0.4439  0.4538
 8875SOL     OW28065   6.418   7.764   6.708  0.8298  0.1367  0.1081
 8875SOL    HW128066   6.371   7.721   6.636  0.9089  0.6151 -0.2374
 8875SOL    HW228067   6.445   7.848   6.671  1.0216  0.3136  0.6481
 8876SOL     OW28068   0.364   7.448   4.690  0.2529  0.2499  0.2712
 8876SOL    HW128069   0.453   7.412   4.696 -0.5242 -1.8308  0.2051
 8876SOL    HW228070   0.309   7.373   4.668 -1.5845  1.4235  0.6045
 8877SOL     OW28071   6.989   5.850   0.353 -0.1401  0.0624 -0.0017
 8877SOL    HW128072   6.974   5.763   0.391  0.4246  0.2563  0.6874
 8877SOL    HW228073   6.901   5.880   0.328 -0.6420  0.1697  1.7236
 8878SOL     OW28074   5.921   3.815   6.855 -0.0820 -0.2307  0.1076
 8878SOL    HW128075   5.865   3.884   6.892 -0.5166 -0.4676 -0.0979
 8878SOL    HW228076   6.002   3.860   6.832 -0.5145  0.3085 -0.4105
 8879SOL     OW28077   7.868   1.985   1.557  0.5997 -0.1996 -0.0224
 8879SOL    HW128078   7.932   1.916   1.573 -0.1754 -0.9228 -0.0170
 8879SOL    HW228079   7.802   1.944   1.501  1.8291  1.4475 -2.9448
 8880SOL     OW28080   3.943   1.275   9.494 -0.0418 -0.0272  0.3721
 8880SOL    HW128081   3.947   1.179   9.486 -0.4930 -0.0535  0.4774
 8880SOL    HW228082   3.983   1.307   9.413 -0.1127 -0.3043  0.2248
 8881SOL     OW28083   4.201   5.343  11.494  0.4741 -0.2380  0.5680
 8881SOL    HW128084   4.244   5.279  11.551 -0.8081  0.2140  2.1528
 8881SOL    HW228085   4.122   5.298  11.463 -0.8925  0.7318  2.3779
 8882SOL     OW28086   4.832   1.464   6.272  0.0034 -0.2384  0.5752
 8882SOL    HW128087   4.874   1.484   6.188  1.4515  0.5159  1.4547
 8882SOL    HW228088   4.803   1.373   6.262  2.3585 -1.0016  0.1021
 8883SOL     OW28089   5.476   3.400   9.650 -0.6364  0.3216  0.1003
 8883SOL    HW128090   5.387   3.376   9.624 -1.5540  0.7349  2.6101
 8883SOL    HW228091   5.503   3.331   9.711 -0.6601  1.9786  2.0893
 8884SOL     OW28092   7.566   0.493   8.683 -0.2220 -0.7821  0.1017
 8884SOL    HW128093   7.478   0.463   8.706  0.5957 -1.9644  1.9363
 8884SOL    HW228094   7.569   0.584   8.711 -1.4275 -0.1054 -1.7589
 8885SOL     OW28095   3.708   4.303   6.041 -0.1283  0.1236 -0.1656
 8885SOL    HW128096   3.680   4.355   5.965  1.2750  0.2439 -0.6270
 8885SOL    HW228097   3.626   4.270   6.078 -0.9126  0.8989 -1.1288
 8886SOL     OW28098   2.889   0.453   4.428  0.1963  0.3231 -0.1945
 8886SOL    HW128099   2.897   0.480   4.337  0.2082  2.0400  0.2814
 8886SOL    HW228100   2.936   0.520   4.478  0.4731 -0.7570  1.0629
 8887SOL     OW28101   2.144   6.519   3.893 -0.1636 -0.0423 -0.2533
 8887SOL    HW128102   2.125   6.554   3.806 -0.0567 -0.2911 -0.3776
 8887SOL    HW228103   2.065   6.470   3.917 -0.1256 -0.1212 -0.2868
 8888SOL     OW28104   4.686   7.497   0.576 -0.2547 -0.3222 -0.3690
 8888SOL    HW128105   4.593   7.480   0.563 -0.2469 -1.2449  0.6073
 8888SOL    HW228106   4.724   7.411   0.593  0.9350 -0.0668 -1.5653
 8889SOL     OW28107   5.376   0.588   9.418  0.4066 -0.3198 -0.5998
 8889SOL    HW128108   5.364   0.610   9.326 -1.6644 -0.0092 -0.2954
 8889SOL    HW228109   5.379   0.492   9.419  1.2353 -0.3106 -1.0471
 8890SOL     OW28110   7.225   7.072   6.300  0.2699  0.0013 -0.0279
 8890SOL    HW128111   7.231   7.111   6.387  0.1665 -1.9631  0.9189
 8890SOL    HW228112   7.311   7.087   6.261 -0.2019  2.3455 -0.2925
 8891SOL     OW28113   0.917   6.486   4.648  0.6939  0.1436  0.5669
 8891SOL    HW128114   0.893   6.579   4.646 -0.1311 -0.0507 -1.8820
 8891SOL    HW228115   0.849   6.445   4.702  0.1201  0.7359  0.3131
 8892SOL     OW28116   3.425   4.541   0.689 -0.2774  0.3218 -0.0551
 8892SOL    HW128117   3.394   4.610   0.748  1.6191  1.0267  0.1843
 8892SOL    HW228118   3.504   4.577   0.649 -0.5903 -0.8047 -1.7705
 8893SOL     OW28119   4.852   5.138   0.701  0.0822  0.2232  0.3973
 8893SOL    HW128120   4.836   5.117   0.793 -0.9608  1.1898  0.4485
 8893SOL    HW228121   4.918   5.208   0.703  0.9040 -0.5265  0.3481
 8894SOL     OW28122   2.856   6.833   9.016  0.0891 -0.0398  0.5487
 8894SOL    HW128123   2.899   6.861   8.935  1.4501  0.2942  1.3594
 8894SOL    HW228124   2.794   6.903   9.036 -0.8741 -0.5050 -0.6052
 8895SOL     OW28125   7.973   5.544   8.983  0.5050  0.2218 -0.3033
 8895SOL    HW128126   7.907   5.491   8.939 -1.0487  1.7412  0.1167
 8895SOL    HW228127   8.008   5.601   8.915  2.7712 -1.7447 -0.9512
 8896SOL     OW28128   5.430   4.737  11.346  0.6210  0.2411 -0.6171
 8896SOL    HW128129   5.339   4.730  11.375  0.8044  0.8139  0.1227
 8896SOL    HW228130   5.428   4.800  11.275  0.8356  2.7158  1.4158
 8897SOL     OW28131   1.953   1.753   6.313 -0.3042  0.3532 -0.2165
 8897SOL    HW128132   1.962   1.739   6.219 -1.6648 -0.5294 -0.2440
 8897SOL    HW228133   1.936   1.847   6.320  2.6460  0.9937 -0.5664
 8898SOL     OW28134   6.155   2.129   2.504 -0.1318 -0.1268  0.0908
 8898SOL    HW128135   6.172   2.042   2.539 -0.6784 -0.3978 -0.2951
 8898SOL    HW228136   6.224   2.185   2.541  1.1431 -1.0276 -0.8605
 8899SOL     OW28137   3.007   3.901   1.778  0.0875 -0.5126 -0.4541
 8899SOL    HW128138   3.063   3.896   1.701 -0.3911 -1.4595 -0.7501
 8899SOL    HW228139   2.948   3.974   1.761 -1.0421 -1.6817 -1.6912
 8900SOL     OW28140   4.635   4.825  11.189  0.4690  0.3815 -0.1615
 8900SOL    HW128141   4.640   4.814  11.094  0.3442  0.4534 -0.1762
 8900SOL    HW228142   4.657   4.917  11.204 -1.6795  0.9536 -0.3070
 8901SOL     OW28143   1.460   6.068   0.894 -0.3299  0.2079 -0.2436
 8901SOL    HW128144   1.453   6.057   0.989 -0.2889  0.7961 -0.1665
 8901SOL    HW228145   1.377   6.036   0.860 -0.4284  0.1930  0.0084
 8902SOL     OW28146   3.569   0.892   9.163 -0.2264 -0.2112 -0.0687
 8902SOL    HW128147   3.509   0.958   9.197 -0.5530 -1.2196  1.4130
 8902SOL    HW228148   3.514   0.836   9.108 -0.3808 -0.4478  0.3298
 8903SOL     OW28149   1.626   0.057   5.705  0.7219  0.2189 -0.1132
 8903SOL    HW128150   1.643   0.042   5.612 -0.4139  1.0298 -0.4666
 8903SOL    HW228151   1.608  -0.030   5.740 -0.9495  0.1266 -1.1107
 8904SOL     OW28152   2.865   1.938   2.339 -0.0290 -0.1479  0.1551
 8904SOL    HW128153   2.777   1.918   2.370 -0.3722 -0.1336 -0.7893
 8904SOL    HW228154   2.855   1.956   2.246  0.9839 -0.2266  0.0130
 8905SOL     OW28155   7.817   5.411   7.056  0.1767  0.1277 -0.2774
 8905SOL    HW128156   7.785   5.467   7.127  1.8021 -0.7489  1.2183
 8905SOL    HW228157   7.888   5.461   7.017 -0.4981  0.4633 -1.1119
 8906SOL     OW28158   6.368   6.797   0.778 -0.1387  0.2691 -0.2943
 8906SOL    HW128159   6.295   6.789   0.716 -1.4720  0.4756  1.1706
 8906SOL    HW228160   6.413   6.713   0.773 -0.6419  0.0336 -1.0363
 8907SOL     OW28161   1.329   2.939   9.238  0.2360  0.0457  0.2633
 8907SOL    HW128162   1.385   3.010   9.269 -0.3856  0.1007  1.3175
 8907SOL    HW228163   1.258   2.983   9.192  0.4778  0.0358 -0.1219
 8908SOL     OW28164   4.169   5.953   8.431 -0.3884 -0.5089 -0.4852
 8908SOL    HW128165   4.228   5.887   8.395  0.3461 -1.0356  1.5505
 8908SOL    HW228166   4.220   6.034   8.429  0.3300 -0.8933  0.9466
 8909SOL     OW28167   0.237   3.874  10.493  0.1000  0.2808  0.1336
 8909SOL    HW128168   0.253   3.870  10.587  0.2014 -0.2759  0.0967
 8909SOL    HW228169   0.147   3.907  10.485 -0.3730 -0.8838  0.4619
 8910SOL     OW28170   0.909   6.946   0.774 -0.2983 -0.1784 -0.1998
 8910SOL    HW128171   0.897   6.899   0.856 -0.2019 -1.4666 -0.9052
 8910SOL    HW228172   0.958   6.887   0.718  0.3523  0.9966 -0.9261
 8911SOL     OW28173   0.790   5.997   4.098 -1.1997  0.1180 -0.1540
 8911SOL    HW128174   0.776   6.092   4.101 -0.4520  0.3230 -1.9561
 8911SOL    HW228175   0.856   5.980   4.165 -0.5629  1.0461 -0.5287
 8912SOL     OW28176   7.838   4.046   7.273  0.0673 -0.3569 -0.2690
 8912SOL    HW128177   7.840   4.130   7.227 -0.4929 -0.5874 -0.7309
 8912SOL    HW228178   7.915   4.048   7.329 -1.2312  1.4876  1.5858
 8913SOL     OW28179   7.733   5.255   5.995 -0.0132  0.3948 -0.2064
 8913SOL    HW128180   7.772   5.199   5.928  1.6615  0.9170  0.2950
 8913SOL    HW228181   7.798   5.324   6.010 -1.3888  1.6575  0.2465
 8914SOL     OW28182   0.658   0.226   4.241  0.8136  0.3675  0.0635
 8914SOL    HW128183   0.587   0.250   4.181  1.1677 -0.2007 -0.6053
 8914SOL    HW228184   0.615   0.174   4.309  0.6552 -0.4824 -0.6565
 8915SOL     OW28185   2.511   7.364   6.018 -0.2610  0.5571 -0.0830
 8915SOL    HW128186   2.428   7.372   5.970 -0.6847 -0.1239  0.5231
 8915SOL    HW228187   2.530   7.271   6.018 -0.3851  0.5126  1.2594
 8916SOL     OW28188   6.657   5.948   8.000 -0.6551  0.5060 -0.0105
 8916SOL    HW128189   6.632   6.026   8.049 -1.2990 -0.7034  1.6745
 8916SOL    HW228190   6.574   5.913   7.966 -0.2889  0.9561 -1.4603
 8917SOL     OW28191   5.477   3.081   5.326 -0.9009  0.0123 -0.1956
 8917SOL    HW128192   5.432   3.130   5.257 -0.2864  1.0918  0.1436
 8917SOL    HW228193   5.570   3.096   5.310 -0.7300 -0.3806  0.4012
 8918SOL     OW28194   7.307   3.392   0.113  0.3281 -0.3579 -0.1895
 8918SOL    HW128195   7.326   3.321   0.052  1.1313  0.4359 -0.8955
 8918SOL    HW228196   7.219   3.373   0.145 -0.7483 -0.0689 -2.7052
 8919SOL     OW28197   0.807   0.642   9.275  0.0412 -0.1695  0.0223
 8919SOL    HW128198   0.756   0.707   9.227  2.1355  0.4170 -1.5776
 8919SOL    HW228199   0.823   0.683   9.360 -1.4422 -0.0502  0.2632
 8920SOL     OW28200   5.758   5.983   3.438  0.5796 -0.1371  0.3716
 8920SOL    HW128201   5.774   5.889   3.446 -0.9334 -0.4326  0.1235
 8920SOL    HW228202   5.700   6.004   3.511  0.5552  0.5143  0.1736
 8921SOL     OW28203   4.188   2.630   2.644  0.2734 -0.3661 -0.1637
 8921SOL    HW128204   4.102   2.632   2.687  0.1986  0.2821 -0.3345
 8921SOL    HW228205   4.239   2.568   2.696 -0.4514 -1.1575 -0.3626
 8922SOL     OW28206   0.232   6.761   8.885 -0.0890 -0.0867 -0.0293
 8922SOL    HW128207   0.318   6.781   8.849  0.4383 -0.6157  0.8965
 8922SOL    HW228208   0.235   6.668   8.905 -0.3986  0.1490  1.2278
 8923SOL     OW28209   4.039   5.203  12.221 -0.3145 -0.0299  0.1199
 8923SOL    HW128210   4.112   5.263  12.206  0.2212 -0.5265  0.6810
 8923SOL    HW228211   3.979   5.251  12.278 -0.1860  0.1984  0.0636
 8924SOL     OW28212   1.591   7.093   1.813 -0.4030  0.3891 -0.3689
 8924SOL    HW128213   1.603   7.166   1.874  0.2457 -0.4204  0.5091
 8924SOL    HW228214   1.662   7.102   1.750 -0.4918  0.6672 -0.4324
 8925SOL     OW28215   5.094   6.133   1.550  0.0799  0.6017  0.3138
 8925SOL    HW128216   5.057   6.047   1.565  1.2089  0.0869  0.3008
 8925SOL    HW228217   5.151   6.149   1.626  1.5012  0.4039 -0.6613
 8926SOL     OW28218   3.296   2.753   1.879 -0.4140  0.1535 -0.2446
 8926SOL    HW128219   3.332   2.701   1.951  1.8663  0.6030 -0.9638
 8926SOL    HW228220   3.217   2.793   1.915 -1.4647 -2.6276  0.7650
 8927SOL     OW28221   5.166   0.451   8.451 -0.2862  0.0477  0.0011
 8927SOL    HW128222   5.225   0.414   8.517 -0.2032  0.8449  0.3824
 8927SOL    HW228223   5.137   0.534   8.489  0.3410  0.8842 -1.2636
 8928SOL     OW28224   4.088   2.145   8.229 -0.2852  0.5468 -0.0013
 8928SOL    HW128225   4.144   2.222   8.238  0.5897 -0.0256 -0.4106
 8928SOL    HW228226   4.101   2.116   8.139  0.4800 -0.8678  0.5266
 8929SOL     OW28227   5.209   1.825   5.460  0.0132  0.3652  0.8367
 8929SOL    HW128228   5.150   1.857   5.528 -1.2340  1.2129 -0.5903
 8929SOL    HW228229   5.263   1.901   5.437 -0.4462  0.4556  0.0086
 8930SOL     OW28230   4.606   0.518  11.094 -0.3849  0.6778  0.4093
 8930SOL    HW128231   4.664   0.545  11.165 -1.6771  0.9563  1.3936
 8930SOL    HW228232   4.519   0.548  11.121 -0.6059  3.0636 -2.4551
 8931SOL     OW28233   5.683   4.747   0.759  0.8872  0.1006  0.3232
 8931SOL    HW128234   5.615   4.779   0.818  1.4652 -1.0722  1.6852
 8931SOL    HW228235   5.684   4.810   0.687 -2.3678 -0.4468 -0.3271
 8932SOL     OW28236   2.947   0.934  10.550 -0.2164  0.2859  0.4457
 8932SOL    HW128237   3.004   1.010  10.564 -0.2735  1.0147 -2.6834
 8932SOL    HW228238   2.860   0.971  10.537 -1.1393 -0.6991  3.1566
 8933SOL     OW28239   5.036   6.565   1.904  0.4147  0.3080 -0.3705
 8933SOL    HW128240   5.045   6.659   1.916 -0.4441  0.3802 -0.2339
 8933SOL    HW228241   5.096   6.527   1.967 -1.3477  0.7423  1.6868
 8934SOL     OW28242   2.168   7.129  11.686 -0.3939  0.9304 -0.2823
 8934SOL    HW128243   2.182   7.088  11.772 -0.9960  1.3781  0.0348
 8934SOL    HW228244   2.092   7.084  11.650 -1.3976  2.0894  0.2984
 8935SOL     OW28245   4.363   4.044  11.177  0.1334 -0.6955 -0.3602
 8935SOL    HW128246   4.403   4.128  11.153 -0.8267 -0.1818 -0.2405
 8935SOL    HW228247   4.429   3.978  11.155  0.4693  0.0015 -1.5291
 8936SOL     OW28248   6.215   1.102   2.768  0.1589  0.6384  0.0769
 8936SOL    HW128249   6.190   1.010   2.763 -0.0908  0.6764  0.6075
 8936SOL    HW228250   6.309   1.103   2.753  0.1441  0.3082 -0.0373
 8937SOL     OW28251   1.901   1.027   7.403  0.0510 -0.3281  1.1876
 8937SOL    HW128252   1.810   1.054   7.387  0.7924  0.4691 -2.9187
 8937SOL    HW228253   1.904   0.937   7.371  0.7318 -0.2593  1.0502
 8938SOL     OW28254   4.756   6.159  11.455 -0.3631  0.1383  0.6008
 8938SOL    HW128255   4.703   6.176  11.377  0.6877  0.5097 -0.0393
 8938SOL    HW228256   4.759   6.243  11.501  2.4104  1.0933 -1.0848
 8939SOL     OW28257   1.774   6.612   9.700 -0.0877 -0.5951  0.6083
 8939SOL    HW128258   1.733   6.622   9.785 -1.1385  1.5064 -0.0821
 8939SOL    HW228259   1.836   6.684   9.695  1.8951 -2.2056  0.5774
 8940SOL     OW28260   6.277   3.481   9.005  0.3739 -0.6474  0.4290
 8940SOL    HW128261   6.283   3.574   9.025 -0.2347 -0.3606 -0.6134
 8940SOL    HW228262   6.195   3.453   9.045  0.9997 -0.9655  1.5264
 8941SOL     OW28263   5.188   5.042   0.118 -0.7710  0.5971  0.1484
 8941SOL    HW128264   5.126   5.114   0.106 -0.8220  0.5206 -0.0408
 8941SOL    HW228265   5.163   5.004   0.202 -1.3439  0.2109 -0.1936
 8942SOL     OW28266   1.479   0.963   4.995 -0.6228 -0.3339 -0.1803
 8942SOL    HW128267   1.439   0.878   5.011  2.6689 -1.9602  0.3526
 8942SOL    HW228268   1.494   0.965   4.900 -1.0151 -0.1804 -0.2401
 8943SOL     OW28269   2.853   0.921   2.193  0.3265  0.1027 -0.4800
 8943SOL    HW128270   2.918   0.935   2.261 -0.2269 -0.1532  0.1079
 8943SOL    HW228271   2.904   0.906   2.113  0.9975 -1.2218  0.1839
 8944SOL     OW28272   4.742   4.565   1.484  0.0105  0.7311  0.2260
 8944SOL    HW128273   4.747   4.552   1.389  1.5179 -2.6092  0.6110
 8944SOL    HW228274   4.649   4.557   1.503 -0.2624  0.9041 -0.9147
 8945SOL     OW28275   1.258   0.198   4.912 -0.1342  0.1047  0.3403
 8945SOL    HW128276   1.175   0.220   4.953  0.6614  0.1120  2.0636
 8945SOL    HW228277   1.314   0.275   4.927  0.7319 -0.6018  0.8959
 8946SOL     OW28278   4.011   5.523   2.617 -0.2184  0.3512 -0.4643
 8946SOL    HW128279   4.008   5.535   2.712 -1.3137  0.6055 -0.5251
 8946SOL    HW228280   4.077   5.586   2.587  0.3969  0.0138  0.1623
 8947SOL     OW28281   4.471   0.527   4.552  0.4146  0.0447 -0.1471
 8947SOL    HW128282   4.428   0.452   4.593  2.1564 -0.4850  0.8213
 8947SOL    HW228283   4.407   0.597   4.558 -0.6794 -0.9589  0.3381
 8948SOL     OW28284   4.952   5.084   7.719 -0.7974  0.3556 -0.1654
 8948SOL    HW128285   4.952   5.061   7.626  0.8132 -1.5467  0.2494
 8948SOL    HW228286   5.013   5.157   7.725 -0.3791  0.0390 -0.5045
 8949SOL     OW28287   5.649   2.393  10.262 -0.0987  0.0812  0.1123
 8949SOL    HW128288   5.687   2.443  10.189  1.1066 -0.9735 -0.0111
 8949SOL    HW228289   5.707   2.412  10.336 -1.2103  0.9994  0.7773
 8950SOL     OW28290   0.993   3.565   2.369  0.3805 -0.2218  0.0416
 8950SOL    HW128291   0.934   3.640   2.374  1.0459  0.4100 -1.1269
 8950SOL    HW228292   0.992   3.527   2.457 -0.2094  0.9672  0.5624
 8951SOL     OW28293   0.386   4.286   8.508 -0.2043 -0.1482 -0.5398
 8951SOL    HW128294   0.417   4.363   8.555 -0.5250  0.2134 -0.9144
 8951SOL    HW228295   0.307   4.259   8.556 -0.0080 -0.3343 -0.3199
 8952SOL     OW28296   7.488   3.952   4.767  0.0064 -0.5711  0.0714
 8952SOL    HW128297   7.441   3.908   4.696  0.6314 -0.3123 -0.5120
 8952SOL    HW228298   7.432   3.940   4.844  1.2105 -4.3930  0.5249
 8953SOL     OW28299   7.487   0.184   2.511 -0.7355 -0.2026  0.6701
 8953SOL    HW128300   7.441   0.191   2.428  0.0110 -1.1133  0.1580
 8953SOL    HW228301   7.509   0.274   2.535  0.0344  0.0069 -0.7029
 8954SOL     OW28302   1.901   6.394   3.955 -0.1018  0.3588  0.9631
 8954SOL    HW128303   1.859   6.368   3.873  1.3518  1.0437 -0.0450
 8954SOL    HW228304   1.829   6.418   4.013 -1.1931 -0.8249  0.1417
 8955SOL     OW28305   2.700   0.090  10.029 -0.0710 -0.3677  0.9489
 8955SOL    HW128306   2.695   0.013  10.086  0.1703 -0.8445  0.3357
 8955SOL    HW228307   2.658   0.160  10.080  0.6083 -0.6490  1.9280
 8956SOL     OW28308   5.693   7.820   6.151 -0.0866  0.1674 -0.2586
 8956SOL    HW128309   5.664   7.863   6.231 -0.3939  1.7613 -1.1697
 8956SOL    HW228310   5.655   7.733   6.155 -0.0764  0.2091  1.3188
 8957SOL     OW28311   5.870   4.343   7.661 -0.6543 -0.3107  0.6965
 8957SOL    HW128312   5.777   4.365   7.665 -0.3400  1.1568  0.6059
 8957SOL    HW228313   5.902   4.359   7.750 -0.6998 -1.9768  1.0473
 8958SOL     OW28314   3.430   1.925   4.815  0.3640  0.1234  0.2009
 8958SOL    HW128315   3.352   1.897   4.863  1.1241 -0.5731  1.0702
 8958SOL    HW228316   3.497   1.937   4.883  0.6625  2.0281 -0.3755
 8959SOL     OW28317   0.187   0.026  12.185  0.0371  0.0021 -0.3359
 8959SOL    HW128318   0.249   0.022  12.112 -0.4784 -1.7571 -0.7198
 8959SOL    HW228319   0.234   0.074  12.254  1.0806  0.3976 -1.2977
 8960SOL     OW28320   5.539   1.924   5.123  0.2741 -0.0532 -0.0233
 8960SOL    HW128321   5.552   1.844   5.174  0.4280 -1.0625 -1.6086
 8960SOL    HW228322   5.535   1.993   5.189 -0.2994 -1.3996  1.4246
 8961SOL     OW28323   4.067   6.474   1.006 -0.1995  0.1253 -0.2055
 8961SOL    HW128324   3.993   6.459   1.065  0.6274  0.6316  1.0072
 8961SOL    HW228325   4.143   6.476   1.064  0.4127  2.9037 -0.9426
 8962SOL     OW28326   5.387   2.077   6.413  0.0119  0.0045 -0.4353
 8962SOL    HW128327   5.386   2.161   6.366  0.1837 -0.2140 -0.8347
 8962SOL    HW228328   5.301   2.039   6.397 -0.6422  0.8053  1.0391
 8963SOL     OW28329   0.355   5.285   3.469  0.0149 -0.2054 -0.7807
 8963SOL    HW128330   0.298   5.256   3.540  1.2899 -0.5729  0.1326
 8963SOL    HW228331   0.374   5.376   3.489 -0.7523  0.1203 -1.4528
 8964SOL     OW28332   5.182   0.606   6.438  0.2257 -0.1645  0.3551
 8964SOL    HW128333   5.200   0.512   6.438  0.1388 -0.2131 -1.3720
 8964SOL    HW228334   5.268   0.647   6.448  0.4944 -0.4332 -0.7582
 8965SOL     OW28335   0.291   2.526   1.908  0.0749 -0.4396 -0.2175
 8965SOL    HW128336   0.340   2.447   1.929 -1.0335 -0.8181  1.0359
 8965SOL    HW228337   0.315   2.588   1.977 -0.2952 -0.2250 -0.2826
 8966SOL     OW28338   1.879   4.080   6.993  0.2765  0.0963  0.1037
 8966SOL    HW128339   1.865   3.986   6.986  2.8569 -0.3171 -0.3566
 8966SOL    HW228340   1.823   4.108   7.065 -0.5133 -1.7710  0.2480
 8967SOL     OW28341   4.328   1.202   4.836 -0.0377 -0.8131 -0.1052
 8967SOL    HW128342   4.338   1.293   4.808 -2.0290 -0.9551 -1.4972
 8967SOL    HW228343   4.413   1.179   4.875  0.9239  1.2264 -0.8583
 8968SOL     OW28344   7.402   2.103   7.799 -0.0831  0.9061 -0.3574
 8968SOL    HW128345   7.467   2.063   7.856 -0.5716 -1.8344 -1.5684
 8968SOL    HW228346   7.324   2.110   7.853 -0.8764 -2.6885 -0.8042
 8969SOL     OW28347   0.883   2.785   3.926  0.6464  0.5450  0.0683
 8969SOL    HW128348   0.948   2.771   3.857  1.8586  0.3906  1.2041
 8969SOL    HW228349   0.931   2.830   3.995 -0.6535  1.0798  0.6521
 8970SOL     OW28350   6.370   1.564   1.493  0.3627  0.2579  0.1319
 8970SOL    HW128351   6.297   1.511   1.524 -1.0471  1.2217 -1.3612
 8970SOL    HW228352   6.412   1.510   1.426 -1.3091  1.0628 -1.6689
 8971SOL     OW28353   4.094   1.872   3.424  0.1484  0.1384 -0.4738
 8971SOL    HW128354   4.030   1.891   3.492  1.1502  1.9384  0.0417
 8971SOL    HW228355   4.178   1.894   3.463  0.9637 -0.7979 -1.6084
 8972SOL     OW28356   5.294   6.709   2.449 -0.1314 -0.1952  0.0486
 8972SOL    HW128357   5.384   6.696   2.479 -0.9182 -2.3483  1.7486
 8972SOL    HW228358   5.266   6.791   2.488  0.1720 -0.9902  2.0233
 8973SOL     OW28359   1.522   6.060   9.278 -0.3680  0.2913  0.4079
 8973SOL    HW128360   1.565   6.131   9.327 -1.1150  1.8881 -1.1423
 8973SOL    HW228361   1.537   6.081   9.186 -1.7242 -0.8668 -0.1181
 8974SOL     OW28362   3.296   5.154   3.954  0.2180 -0.1796 -0.3417
 8974SOL    HW128363   3.321   5.230   3.902  1.6803 -0.6669 -0.4062
 8974SOL    HW228364   3.231   5.188   4.016  1.4702  1.3431  0.2136
 8975SOL     OW28365   6.279   4.403   9.181 -0.0470 -0.2283  0.2984
 8975SOL    HW128366   6.334   4.388   9.104 -1.3042 -2.2569 -0.2939
 8975SOL    HW228367   6.327   4.361   9.253 -0.7695 -2.0848 -0.2356
 8976SOL     OW28368   7.194   2.363   9.936  0.1405  0.0267 -0.0689
 8976SOL    HW128369   7.113   2.381   9.984  1.1759  0.1574  1.7231
 8976SOL    HW228370   7.242   2.303   9.993  1.7884  0.8326 -0.5584
 8977SOL     OW28371   5.421   5.386   4.242 -0.0513  0.1989  0.0213
 8977SOL    HW128372   5.468   5.411   4.163 -2.5131 -0.1263 -1.6865
 8977SOL    HW228373   5.397   5.468   4.284  1.5249  0.3691  0.6574
 8978SOL     OW28374   1.492   7.129   3.030 -0.0127 -0.0429 -0.3461
 8978SOL    HW128375   1.559   7.108   2.964 -0.2646  3.0492 -1.7714
 8978SOL    HW228376   1.537   7.186   3.093 -0.3508 -1.1736  0.9667
 8979SOL     OW28377   0.521   1.280   5.684 -0.2550  0.4609  0.1957
 8979SOL    HW128378   0.601   1.332   5.687 -0.0824  0.2381 -0.4515
 8979SOL    HW228379   0.458   1.336   5.640 -0.5640  0.7654  0.9970
 8980SOL     OW28380   2.340   4.853   5.925 -0.0739 -0.1488 -0.3371
 8980SOL    HW128381   2.366   4.942   5.900  0.1836  0.2930  1.3786
 8980SOL    HW228382   2.420   4.814   5.962  0.1837 -1.5958 -2.2615
 8981SOL     OW28383   4.745   7.817   6.242  0.1100  0.2500 -0.1914
 8981SOL    HW128384   4.777   7.904   6.263 -0.4970  0.7789 -1.3669
 8981SOL    HW228385   4.819   7.774   6.199  0.4446  0.1327  0.4871
 8982SOL     OW28386   0.796   4.980   6.395  0.6505  0.2384 -0.1313
 8982SOL    HW128387   0.754   4.904   6.436 -0.5493  1.4484  0.9689
 8982SOL    HW228388   0.731   5.013   6.333  0.0095  1.9868  1.4055
 8983SOL     OW28389   0.886   3.516   6.402 -0.3619  0.1519 -0.1788
 8983SOL    HW128390   0.828   3.563   6.340 -1.5232  0.1616  0.8744
 8983SOL    HW228391   0.971   3.514   6.358 -1.0107  0.6762 -1.5239
 8984SOL     OW28392   0.286   6.387   1.475 -0.3090  0.1961 -0.3731
 8984SOL    HW128393   0.231   6.459   1.446 -0.8312  0.3377  0.8824
 8984SOL    HW228394   0.284   6.392   1.571  2.9736  1.0275 -0.2091
 8985SOL     OW28395   5.241   5.813   2.389 -0.1648 -0.1839 -0.0309
 8985SOL    HW128396   5.314   5.757   2.364  0.4156  0.2956  0.5506
 8985SOL    HW228397   5.211   5.778   2.473  0.0373  0.2144  0.2109
 8986SOL     OW28398   4.563   5.909   7.674  0.0633 -0.3319 -0.0916
 8986SOL    HW128399   4.502   5.981   7.658  0.4388  0.6097  2.2420
 8986SOL    HW228400   4.555   5.853   7.597 -1.1011  1.5941 -1.4733
 8987SOL     OW28401   5.810   7.976   0.626  0.4663  0.8201 -0.5190
 8987SOL    HW128402   5.801   8.055   0.679 -0.1487  1.3967 -1.4654
 8987SOL    HW228403   5.725   7.964   0.585 -0.2142 -1.6521  1.3825
 8988SOL     OW28404   3.797   5.049   1.282 -0.8106  0.3286  0.4312
 8988SOL    HW128405   3.718   5.081   1.237 -0.2105 -2.4483 -3.0883
 8988SOL    HW228406   3.771   4.965   1.319  0.1294  0.0243  0.4302
 8989SOL     OW28407   4.669   5.342   4.087  0.5817 -0.0659 -0.2364
 8989SOL    HW128408   4.708   5.429   4.080 -0.4186  0.3599 -0.8212
 8989SOL    HW228409   4.577   5.359   4.110  0.1164 -0.9148 -1.3949
 8990SOL     OW28410   7.428   2.499   9.875  0.2791 -0.0120  0.0398
 8990SOL    HW128411   7.458   2.460   9.793  1.9765 -1.9710  1.4903
 8990SOL    HW228412   7.335   2.477   9.880  0.4380 -0.9285 -0.7930
 8991SOL     OW28413   7.030   4.091   4.561  0.4872  0.1450 -0.1300
 8991SOL    HW128414   6.952   4.125   4.605 -0.0921 -2.8197  1.4478
 8991SOL    HW228415   6.995   4.043   4.485  0.9324  0.0383 -0.2693
 8992SOL     OW28416   6.166   2.515   5.707 -0.3090  0.3632  0.8891
 8992SOL    HW128417   6.187   2.446   5.644  1.5019  1.0374  0.6933
 8992SOL    HW228418   6.204   2.484   5.789 -1.1234  0.2916  1.2445
 8993SOL     OW28419   6.683   3.380   5.621  0.4762 -0.5418 -0.0577
 8993SOL    HW128420   6.599   3.405   5.582  0.4865  0.5024  0.5351
 8993SOL    HW228421   6.662   3.352   5.710  0.4053 -3.2990 -0.8709
 8994SOL     OW28422   4.542   4.909   3.353  0.6577  0.2504  0.2009
 8994SOL    HW128423   4.552   4.830   3.406  1.1963  0.7330  0.8237
 8994SOL    HW228424   4.458   4.946   3.381  0.4135 -0.0771 -0.0781
 8995SOL     OW28425   2.350   4.437   0.455  0.4045  1.0700  0.1754
 8995SOL    HW128426   2.321   4.346   0.460 -1.1873  1.3499 -2.0504
 8995SOL    HW228427   2.315   4.478   0.534 -0.7218  0.2030  0.1541
 8996SOL     OW28428   7.919   2.563   0.417 -0.3072 -0.4332  0.3876
 8996SOL    HW128429   7.892   2.603   0.500  0.4310  1.6330 -0.3001
 8996SOL    HW228430   7.839   2.527   0.380 -0.8729 -0.2618  1.4136
 8997SOL     OW28431   5.265   0.249   3.809 -0.2914 -0.1613 -0.1454
 8997SOL    HW128432   5.208   0.326   3.805  0.8773  0.6895 -1.3540
 8997SOL    HW228433   5.339   0.277   3.862  0.8542  0.0992 -1.7899
 8998SOL     OW28434   5.471   0.939   2.610  0.0163 -0.1888  0.0471
 8998SOL    HW128435   5.422   0.895   2.540  0.6824  0.7277 -1.0298
 8998SOL    HW228436   5.403   0.971   2.670 -0.6538 -0.0278 -0.7632
 8999SOL     OW28437   0.171   0.842   1.253  0.2645  0.3883 -0.5292
 8999SOL    HW128438   0.104   0.774   1.248  1.1379 -0.4429 -1.2798
 8999SOL    HW228439   0.145   0.905   1.186  0.0341  0.2563 -0.5690
 9000SOL     OW28440   1.814   6.791   6.154 -0.4707  0.3350 -0.0871
 9000SOL    HW128441   1.801   6.879   6.117 -0.3274  0.1709 -0.5417
 9000SOL    HW228442   1.769   6.733   6.092 -0.1184  0.0423 -0.0731
 9001SOL     OW28443   0.204   4.615  10.725  0.1731 -0.3474 -0.6964
 9001SOL    HW128444   0.193   4.684  10.790 -0.1494  0.5310 -1.6513
 9001SOL    HW228445   0.115   4.593  10.698  0.3448  0.8647 -2.4063
 9002SOL     OW28446   7.887   0.539   4.323 -0.1548 -0.0764  0.4099
 9002SOL    HW128447   7.803   0.585   4.315  0.4862  1.0401 -0.1380
 9002SOL    HW228448   7.926   0.545   4.236  0.3244 -0.9535  0.5506
 9003SOL     OW28449   0.486   2.783   4.876 -0.6867  0.8467 -0.2152
 9003SOL    HW128450   0.404   2.826   4.900 -2.3944 -2.1104 -0.2538
 9003SOL    HW228451   0.519   2.745   4.958  0.0952  1.0996 -0.3970
 9004SOL     OW28452   3.003   1.055  11.340 -0.4884 -0.1221  0.1508
 9004SOL    HW128453   3.036   0.966  11.352  0.5815  0.0918 -0.9446
 9004SOL    HW228454   2.932   1.045  11.277  0.2153 -0.1252 -0.6685
 9005SOL     OW28455   1.623   3.863   1.696  0.4412  0.5062 -0.3967
 9005SOL    HW128456   1.575   3.781   1.687 -1.1167  1.1334  1.4021
 9005SOL    HW228457   1.674   3.853   1.776  0.2867  1.2651 -0.1933
 9006SOL     OW28458   3.399   4.467   6.890 -0.3623  0.5005  0.2733
 9006SOL    HW128459   3.473   4.462   6.830 -0.5931  0.6022 -0.0211
 9006SOL    HW228460   3.435   4.509   6.969  0.8188 -2.6685  1.5832
 9007SOL     OW28461   6.672   0.173   7.941  0.1059  0.2609 -0.0215
 9007SOL    HW128462   6.747   0.184   7.882  1.1163  1.1942  1.3861
 9007SOL    HW228463   6.596   0.174   7.883  1.0788  0.9249 -1.3372
 9008SOL     OW28464   1.092   1.845   5.664  0.0214  0.8059  0.1300
 9008SOL    HW128465   1.173   1.897   5.661 -0.0623  0.9107 -0.5256
 9008SOL    HW228466   1.119   1.761   5.702  0.4124  0.8966  0.0619
 9009SOL     OW28467   0.374   1.722   2.304 -0.2727 -0.1515  0.2588
 9009SOL    HW128468   0.376   1.752   2.395  0.9745 -1.9301  0.8697
 9009SOL    HW228469   0.457   1.752   2.267 -0.1123 -0.7153  0.1583
 9010SOL     OW28470   3.863   5.009   1.956  0.1231  0.1998  0.6013
 9010SOL    HW128471   3.873   5.100   1.982 -0.6442  0.5833 -0.3858
 9010SOL    HW228472   3.951   4.972   1.965  0.2553  0.7657  1.9278
 9011SOL     OW28473   6.322   2.293   9.861 -0.1425  0.1474  0.4604
 9011SOL    HW128474   6.391   2.269   9.799 -0.8940  0.4814 -0.5246
 9011SOL    HW228475   6.342   2.383   9.887 -1.2142  0.9259 -1.2686
 9012SOL     OW28476   0.282   4.723   0.697  0.5107 -0.1368 -0.2013
 9012SOL    HW128477   0.305   4.666   0.771  0.4719 -2.8902 -2.1426
 9012SOL    HW228478   0.364   4.768   0.675  0.7288  0.0678  0.9537
 9013SOL     OW28479   2.158   2.491   4.473  0.1054 -0.2531 -0.2295
 9013SOL    HW128480   2.167   2.586   4.471  0.1471 -0.2620 -1.9776
 9013SOL    HW228481   2.112   2.469   4.393 -0.7931 -1.6506  0.6161
 9014SOL     OW28482   2.695   6.803   3.538 -0.2287 -0.3740 -0.2479
 9014SOL    HW128483   2.670   6.895   3.533  0.1636 -0.2068  0.5718
 9014SOL    HW228484   2.646   6.760   3.468  0.4566  0.6422 -1.4028
 9015SOL     OW28485   3.794   3.234   1.291  0.2855  0.2422 -0.2752
 9015SOL    HW128486   3.759   3.149   1.319  0.5802 -0.5607 -2.2360
 9015SOL    HW228487   3.847   3.263   1.365 -0.2485 -1.0195  0.6458
 9016SOL     OW28488   0.026   5.668   5.118  0.4709 -0.1944  0.3521
 9016SOL    HW128489  -0.018   5.749   5.144 -0.2951  0.1735 -1.8998
 9016SOL    HW228490   0.045   5.624   5.201 -4.3531 -0.5152  1.5832
 9017SOL     OW28491   7.901   5.361  10.136  0.0779  0.2776  0.3622
 9017SOL    HW128492   7.957   5.287  10.160 -1.3757 -0.5540  1.3076
 9017SOL    HW228493   7.957   5.415  10.080  1.9527 -0.3014  1.5618
 9018SOL     OW28494   6.069   5.858   4.556  0.1399 -0.1715  0.2514
 9018SOL    HW128495   5.997   5.895   4.505  0.8658  0.0169 -0.6567
 9018SOL    HW228496   6.047   5.766   4.566  0.7182 -0.5664 -1.7443
 9019SOL     OW28497   7.677   1.613   5.451  1.3860  0.1437 -0.3831
 9019SOL    HW128498   7.716   1.700   5.450  2.1821 -0.1373 -3.2520
 9019SOL    HW228499   7.622   1.611   5.373 -0.9227 -0.9979  1.1875
 9020SOL     OW28500   1.119   2.453   3.701 -0.1765  0.0639 -0.2724
 9020SOL    HW128501   1.180   2.427   3.769 -1.0848  0.1872  0.6183
 9020SOL    HW228502   1.072   2.373   3.678 -2.8435  0.7198  2.3389
 9021SOL     OW28503   7.967   1.072   7.342  0.7431  0.0469 -0.1534
 9021SOL    HW128504   7.983   1.162   7.368  0.5845 -0.3164  1.2898
 9021SOL    HW228505   7.934   1.078   7.252 -1.0059  1.5881  0.5213
 9022SOL     OW28506   6.993   1.406  10.375  0.4725 -0.1028  0.2795
 9022SOL    HW128507   6.901   1.385  10.364  0.2343  0.3582  1.2847
 9022SOL    HW228508   7.005   1.489  10.327 -0.0074  0.6592  1.4508
 9023SOL     OW28509   4.276   1.421   7.606  0.2730 -0.1612  0.3303
 9023SOL    HW128510   4.329   1.449   7.531  0.7528 -0.8971  0.3812
 9023SOL    HW228511   4.238   1.338   7.578 -0.5970  0.1962  0.4252
 9024SOL     OW28512   5.081   6.799  10.384 -0.4752 -0.7066 -0.5717
 9024SOL    HW128513   5.112   6.708  10.387  0.7898 -0.3111 -1.1315
 9024SOL    HW228514   5.158   6.850  10.360 -0.9417  0.6461  0.6505
 9025SOL     OW28515   3.183   4.564   1.219  0.5736  0.2496 -0.1097
 9025SOL    HW128516   3.239   4.556   1.142  2.4146  0.7665  1.0905
 9025SOL    HW228517   3.240   4.539   1.292 -1.0923 -0.1910  1.0998
 9026SOL     OW28518   6.521   5.752   2.226 -0.4981  0.0176 -0.1224
 9026SOL    HW128519   6.548   5.696   2.299 -0.5806  0.2653  0.1011
 9026SOL    HW228520   6.601   5.797   2.199 -0.6599  0.6602  0.4591
 9027SOL     OW28521   1.076   4.603  10.623  0.5454  0.2398  0.2506
 9027SOL    HW128522   1.123   4.635  10.546  0.0639 -0.2430 -0.2580
 9027SOL    HW228523   1.126   4.637  10.698  1.9522 -0.5960 -0.2662
 9028SOL     OW28524   0.446   1.777  10.188 -0.6487  0.3458 -0.2300
 9028SOL    HW128525   0.377   1.833  10.224 -0.6308 -1.1532  2.4192
 9028SOL    HW228526   0.527   1.818  10.217 -0.4426  1.0238 -1.6640
 9029SOL     OW28527   7.741   7.192   0.005  0.1470 -0.1360 -0.0052
 9029SOL    HW128528   7.758   7.105   0.042 -2.3539 -2.3399 -3.3900
 9029SOL    HW228529   7.648   7.208   0.021 -0.4709 -0.1590 -2.9208
 9030SOL     OW28530   1.878   3.538   0.039  0.1945  0.6869 -0.5014
 9030SOL    HW128531   1.786   3.511   0.039  0.1993  0.6531 -0.0726
 9030SOL    HW228532   1.914   3.505  -0.043 -0.1925  0.7515 -0.6981
 9031SOL     OW28533   2.566   4.767  11.214 -0.3048 -0.6256  0.4316
 9031SOL    HW128534   2.504   4.718  11.160  0.7759 -1.8914  0.3101
 9031SOL    HW228535   2.643   4.778  11.159 -0.4715  1.1431  0.4980
 9032SOL     OW28536   2.420   5.160   6.214  0.9154  0.4200  0.2697
 9032SOL    HW128537   2.439   5.245   6.255 -1.0081  0.7258  0.5939
 9032SOL    HW228538   2.325   5.151   6.218  0.8023 -0.4891 -2.3075
 9033SOL     OW28539   4.492   0.781   3.996  0.3293  0.1405  0.4692
 9033SOL    HW128540   4.558   0.775   4.065  1.2373 -1.5648 -0.4900
 9033SOL    HW228541   4.475   0.691   3.970 -2.1245  0.5518  0.3974
 9034SOL     OW28542   5.088   5.564   4.869  0.1662 -0.3384  0.4372
 9034SOL    HW128543   5.107   5.483   4.918 -2.9667 -1.0553  0.6763
 9034SOL    HW228544   5.079   5.536   4.778 -3.1237 -0.8153  0.7976
 9035SOL     OW28545   5.324   4.931   1.428 -0.2109  0.0172  0.0385
 9035SOL    HW128546   5.355   4.920   1.338  1.2227  0.8083  0.4031
 9035SOL    HW228547   5.360   5.016   1.455  0.6965 -0.8989  1.8666
 9036SOL     OW28548   7.347   5.727  11.998  0.2827  0.0030 -0.0154
 9036SOL    HW128549   7.334   5.743  12.091 -2.2016  0.1819 -0.3230
 9036SOL    HW228550   7.337   5.633  11.988 -0.8257  0.1280 -0.2425
 9037SOL     OW28551   6.977   2.443   6.069  0.1474 -0.9050  0.8974
 9037SOL    HW128552   6.909   2.381   6.095 -3.5888  1.3320 -2.3728
 9037SOL    HW228553   6.995   2.421   5.977 -0.3489  1.9165  0.0426
 9038SOL     OW28554   0.394   2.605   8.139  0.2376  0.1072 -0.0790
 9038SOL    HW128555   0.308   2.567   8.159  1.0685 -0.8333  1.9904
 9038SOL    HW228556   0.450   2.529   8.125  1.2330  0.6309  0.9393
 9039SOL     OW28557   6.159   2.847   3.657  0.5927 -0.6337  0.1373
 9039SOL    HW128558   6.215   2.809   3.724 -1.3362 -1.4519  1.3617
 9039SOL    HW228559   6.096   2.778   3.636 -0.4115  0.4741 -0.6481
 9040SOL     OW28560   7.461   5.314   8.420 -0.1194 -0.2671 -0.7332
 9040SOL    HW128561   7.464   5.376   8.347  0.9420 -0.9435 -1.2976
 9040SOL    HW228562   7.382   5.262   8.403  0.2371 -0.5663 -1.5443
 9041SOL     OW28563   7.852   3.024   2.960  0.4175 -0.3191 -0.2458
 9041SOL    HW128564   7.900   3.088   3.013 -0.7726 -0.2325  0.7604
 9041SOL    HW228565   7.906   2.945   2.964  1.1046  0.1414 -0.1785
 9042SOL     OW28566   2.989   1.456   5.411  0.8634  0.1930 -0.2411
 9042SOL    HW128567   3.021   1.503   5.334  0.6411 -0.8059 -0.9706
 9042SOL    HW228568   2.894   1.454   5.401  0.6670  1.5826  0.9956
 9043SOL     OW28569   4.961   0.611   3.556  0.3692  0.0900 -0.2473
 9043SOL    HW128570   4.931   0.696   3.524 -0.6885 -0.6586 -1.2951
 9043SOL    HW228571   4.896   0.549   3.525  0.3320 -0.9522  1.7331
 9044SOL     OW28572   2.838   4.695   1.518  0.2621 -0.2777 -0.5483
 9044SOL    HW128573   2.901   4.729   1.455 -0.0251  0.9795 -0.1719
 9044SOL    HW228574   2.754   4.730   1.490  0.2110  0.8000  0.8585
 9045SOL     OW28575   7.530   1.688  12.375  0.5343  0.1102 -0.5019
 9045SOL    HW128576   7.526   1.657  12.285 -0.4765 -1.7893  0.1327
 9045SOL    HW228577   7.441   1.676  12.408  0.9543  0.5000  0.8254
 9046SOL     OW28578   5.165   2.528  12.239  0.0107  0.0243  0.5461
 9046SOL    HW128579   5.152   2.579  12.319 -0.2703 -2.4410  2.1878
 9046SOL    HW228580   5.192   2.441  12.270  1.5479 -0.5547 -2.1193
 9047SOL     OW28581   7.312   0.184  10.188 -0.0048 -0.0068 -0.0181
 9047SOL    HW128582   7.395   0.231  10.203 -0.2846  0.8469 -1.0660
 9047SOL    HW228583   7.322   0.144  10.102 -0.4250 -0.4944  0.1544
 9048SOL     OW28584   6.722   5.174   1.936 -0.0183  0.3803  0.2602
 9048SOL    HW128585   6.803   5.125   1.923 -0.8819 -1.2735  0.8053
 9048SOL    HW228586   6.744   5.239   2.003  0.7766 -0.2756  0.6505
 9049SOL     OW28587   0.404   2.618   4.010  0.1330  0.6649  0.3588
 9049SOL    HW128588   0.493   2.623   4.044  0.2117  1.3804  0.0608
 9049SOL    HW228589   0.369   2.706   4.022 -0.6980  0.2720  0.9084
 9050SOL     OW28590   2.686   6.229   3.866  0.5231 -0.0096 -0.0249
 9050SOL    HW128591   2.737   6.228   3.947 -1.2158 -2.2680  1.1660
 9050SOL    HW228592   2.736   6.174   3.806  0.3077 -0.9278  0.6082
 9051SOL     OW28593   6.738   7.386   7.189  0.4700  0.2871  0.6156
 9051SOL    HW128594   6.775   7.301   7.166  0.6127  0.1625  1.3020
 9051SOL    HW228595   6.729   7.431   7.105  1.7886  0.1577  0.3748
 9052SOL     OW28596   7.414   2.466   2.209  0.1286  0.0106 -0.0435
 9052SOL    HW128597   7.345   2.504   2.264 -0.1950 -1.7909  0.8662
 9052SOL    HW228598   7.397   2.502   2.122 -0.5363  1.4051  0.6239
 9053SOL     OW28599   4.701   6.635   4.289 -0.0444  0.2648 -0.1011
 9053SOL    HW128600   4.614   6.650   4.251  0.4770 -0.0041 -1.4618
 9053SOL    HW228601   4.703   6.541   4.307 -0.6297  0.5313  1.5343
 9054SOL     OW28602   6.408   5.130   5.861 -0.3020  0.2727 -0.8239
 9054SOL    HW128603   6.458   5.108   5.940 -3.4517 -1.4731  0.8923
 9054SOL    HW228604   6.448   5.211   5.829  1.6088  0.6456  2.1308
 9055SOL     OW28605   1.969   4.052   0.498 -0.1143 -0.4275 -0.7126
 9055SOL    HW128606   1.889   4.078   0.453  0.0415 -0.9526 -1.3029
 9055SOL    HW228607   1.942   4.039   0.589 -0.6709 -0.4694 -0.8803
 9056SOL     OW28608   7.694   1.425   5.636  0.5863 -0.3839 -0.0093
 9056SOL    HW128609   7.694   1.501   5.577  2.3565  0.1044  0.5730
 9056SOL    HW228610   7.637   1.361   5.593  0.3689  0.6511 -1.3163
 9057SOL     OW28611   6.009   6.081   1.338  0.0491  0.0555  0.1473
 9057SOL    HW128612   6.029   6.013   1.274 -0.4009 -1.4828  1.5715
 9057SOL    HW228613   6.035   6.163   1.296  1.3276 -1.0666 -1.3199
 9058SOL     OW28614   5.378   1.053  10.908 -0.1696 -0.4216 -0.1537
 9058SOL    HW128615   5.445   0.992  10.940  0.1176  0.6073  1.3268
 9058SOL    HW228616   5.295   1.012  10.932  0.0330  0.0562  1.4557
 9059SOL     OW28617   6.816   1.500   5.311 -0.2777 -0.0958 -0.4852
 9059SOL    HW128618   6.884   1.478   5.375 -1.5707  1.4343  1.5565
 9059SOL    HW228619   6.746   1.437   5.328 -0.1902 -0.3821 -1.1754
 9060SOL     OW28620   5.229   2.345   5.082 -0.6129  0.1065 -0.0994
 9060SOL    HW128621   5.217   2.280   5.012 -0.1294  0.1060 -0.1904
 9060SOL    HW228622   5.148   2.395   5.083 -0.6626  0.0396 -0.5950
 9061SOL     OW28623   1.788   5.635   7.291 -0.2439 -0.6451 -0.1825
 9061SOL    HW128624   1.830   5.635   7.205 -1.4139  0.2324 -0.7675
 9061SOL    HW228625   1.697   5.657   7.274 -0.3608  0.1968  1.3472
 9062SOL     OW28626   2.654   5.312   1.807 -0.2220 -0.4077  0.4417
 9062SOL    HW128627   2.655   5.370   1.731 -2.1991 -0.1338  0.5658
 9062SOL    HW228628   2.743   5.278   1.813  0.3868  0.8265 -1.0117
 9063SOL     OW28629   1.511   3.023  11.096 -0.7401 -0.0565  0.2130
 9063SOL    HW128630   1.489   3.103  11.050 -1.8516 -0.7536 -0.5090
 9063SOL    HW228631   1.461   3.028  11.178 -0.1058  0.3859  0.5838
 9064SOL     OW28632   3.641   0.892  11.945  0.4040  0.4986  0.1752
 9064SOL    HW128633   3.646   0.931  11.858  0.9334 -0.4831 -0.2626
 9064SOL    HW228634   3.732   0.890  11.975  0.3901 -0.3620  0.1861
 9065SOL     OW28635   2.652   7.666  10.946  0.0203 -0.0508 -0.0073
 9065SOL    HW128636   2.657   7.713  10.863 -2.1641  0.5725  0.1631
 9065SOL    HW228637   2.588   7.714  10.998 -0.2570 -1.6565  1.2387
 9066SOL     OW28638   6.217   5.281   2.429 -0.0219 -0.2329 -0.1723
 9066SOL    HW128639   6.270   5.207   2.457 -0.5072 -0.5212 -0.0033
 9066SOL    HW228640   6.251   5.304   2.342  1.2580  0.4486  0.4845
 9067SOL     OW28641   2.069   6.537  11.870 -0.0038  0.3252  0.2707
 9067SOL    HW128642   2.035   6.536  11.781 -0.2360  0.6040  0.3565
 9067SOL    HW228643   2.156   6.496  11.863 -0.1684  0.0254 -0.0191
 9068SOL     OW28644   6.127   4.197   3.973 -0.2631  0.2764  0.0968
 9068SOL    HW128645   6.142   4.142   4.049 -2.0227  0.1860  0.4182
 9068SOL    HW228646   6.171   4.280   3.994  0.3762 -0.1891  0.6272
 9069SOL     OW28647   4.247   2.196   2.004  0.1341  0.2587 -0.1945
 9069SOL    HW128648   4.264   2.289   2.019 -2.9330  1.5228 -3.2014
 9069SOL    HW228649   4.164   2.180   2.049 -0.5766 -0.2934 -1.6429
 9070SOL     OW28650   6.262   7.818   0.919 -0.3592 -0.2486 -0.6709
 9070SOL    HW128651   6.202   7.892   0.927  1.3961  1.0723  1.2256
 9070SOL    HW228652   6.265   7.780   1.007  1.5721 -0.2581 -0.6984
 9071SOL     OW28653   7.529   3.451   1.483 -0.0341  0.5974 -0.0514
 9071SOL    HW128654   7.606   3.400   1.460  0.5172  1.5231 -0.3160
 9071SOL    HW228655   7.465   3.431   1.414 -0.1937 -0.4937  0.3983
 9072SOL     OW28656   2.033   5.516   8.262 -0.0310 -0.2840  0.1213
 9072SOL    HW128657   2.000   5.569   8.189  1.3242 -0.2717 -0.5062
 9072SOL    HW228658   2.126   5.538   8.268  0.3232 -1.7923  0.5446
 9073SOL     OW28659   6.142   6.344   2.970 -0.2113 -0.2841  0.1159
 9073SOL    HW128660   6.128   6.294   3.050  0.4221  0.0939  0.4691
 9073SOL    HW228661   6.141   6.279   2.900  0.0420 -0.7167  0.5146
 9074SOL     OW28662   7.915   0.578  10.232 -0.2077 -0.7810  0.4232
 9074SOL    HW128663   7.968   0.646  10.273  0.2239 -0.0429 -1.2609
 9074SOL    HW228664   7.893   0.518  10.304 -0.8047  1.2381  2.0026
 9075SOL     OW28665   4.368   7.596   8.607  0.0488  0.2019  0.7127
 9075SOL    HW128666   4.317   7.663   8.652 -0.2140  0.0255  0.6792
 9075SOL    HW228667   4.455   7.635   8.597  0.7170 -0.4741  3.0999
 9076SOL     OW28668   5.546   4.218   7.978  0.5598  0.2022  0.0248
 9076SOL    HW128669   5.575   4.297   8.024  1.9807 -0.3845  0.1977
 9076SOL    HW228670   5.496   4.169   8.043  0.6089  0.4411  0.2463
 9077SOL     OW28671   2.272   0.203   0.837  0.1171  0.2019  0.0931
 9077SOL    HW128672   2.340   0.182   0.772 -0.1463 -1.4849  0.3227
 9077SOL    HW228673   2.313   0.268   0.894  0.8361  0.6797 -0.9382
 9078SOL     OW28674   3.370   1.728   7.253 -0.2604 -0.4650  0.0616
 9078SOL    HW128675   3.414   1.680   7.322  2.8535  0.0755 -1.3621
 9078SOL    HW228676   3.278   1.730   7.279  0.5602 -1.3522  3.4844
 9079SOL     OW28677   1.850   0.846   2.250  0.1701 -0.1603 -0.4237
 9079SOL    HW128678   1.942   0.839   2.225  0.1481  2.2503 -1.3895
 9079SOL    HW228679   1.801   0.824   2.170 -0.1243 -1.0187 -0.0284
 9080SOL     OW28680   4.746   7.079   2.799 -0.5468  0.2621 -0.2337
 9080SOL    HW128681   4.660   7.044   2.775  0.3438 -1.0750 -1.6139
 9080SOL    HW228682   4.808   7.027   2.748  1.0482  1.6935  0.1819
 9081SOL     OW28683   1.813   0.350  12.119 -0.5245  0.0874  0.1798
 9081SOL    HW128684   1.897   0.359  12.074 -0.9608  2.2113 -0.3641
 9081SOL    HW228685   1.783   0.262  12.096  0.9968 -0.2749 -0.5936
 9082SOL     OW28686   5.247   6.140   0.229 -0.1674  0.5845  0.3054
 9082SOL    HW128687   5.245   6.139   0.324 -0.8607  4.0350  0.4763
 9082SOL    HW228688   5.340   6.142   0.207  0.0211 -1.0808  0.7926
 9083SOL     OW28689   7.412   0.153  11.374 -0.1216 -0.1459  0.7270
 9083SOL    HW128690   7.321   0.164  11.346 -0.4137  0.9289  1.9814
 9083SOL    HW228691   7.464   0.198  11.307 -0.6355  0.5316  0.7710
 9084SOL     OW28692   6.134   2.396   2.980  0.1889 -0.2881 -0.4873
 9084SOL    HW128693   6.183   2.352   3.050 -0.6966 -0.3784  0.0937
 9084SOL    HW228694   6.145   2.340   2.904  0.7965 -0.4262 -0.3028
 9085SOL     OW28695   7.656   4.377   8.582  0.3640 -0.0637  0.0014
 9085SOL    HW128696   7.609   4.398   8.663  0.3145 -1.6310  0.4041
 9085SOL    HW228697   7.598   4.408   8.512 -0.3141 -0.0966  0.5367
 9086SOL     OW28698   6.324   7.366   9.861 -0.1707  0.0727  0.2195
 9086SOL    HW128699   6.292   7.428   9.796 -0.4167  0.6069  0.8371
 9086SOL    HW228700   6.371   7.419   9.925 -1.1930 -0.2227  1.2637
 9087SOL     OW28701   6.821   6.499  12.381 -0.1801  0.3992  0.2518
 9087SOL    HW128702   6.736   6.530  12.410 -1.6995 -2.2672 -0.9835
 9087SOL    HW228703   6.802   6.423  12.326  3.0042 -0.3330 -0.0649
 9088SOL     OW28704   6.927   3.704   4.578 -0.4928 -0.9420 -0.2273
 9088SOL    HW128705   6.987   3.736   4.510  0.2360 -1.2932  0.2338
 9088SOL    HW228706   6.969   3.729   4.660 -0.9092 -1.3305  0.1090
 9089SOL     OW28707   6.082   1.059   8.857 -0.2069  0.3615  0.1862
 9089SOL    HW128708   6.145   1.079   8.788  0.9693 -0.8965  0.8384
 9089SOL    HW228709   6.133   1.062   8.938 -1.0522 -0.3600  0.7635
 9090SOL     OW28710   5.980   7.797   4.349 -0.2347  0.4266 -0.5485
 9090SOL    HW128711   5.980   7.891   4.366  1.3310  0.0367  2.3693
 9090SOL    HW228712   5.935   7.759   4.425 -0.4243 -1.2078 -1.4419
 9091SOL     OW28713   3.773   4.412   0.741 -0.6459 -0.1882  0.1124
 9091SOL    HW128714   3.751   4.322   0.718  0.2150 -0.9077  1.8474
 9091SOL    HW228715   3.869   4.417   0.733 -0.6910  0.6217 -0.0894
 9092SOL     OW28716   0.619   0.958  11.094 -0.4734 -0.6954  0.0606
 9092SOL    HW128717   0.541   0.902  11.094 -0.4703 -0.7198 -0.8404
 9092SOL    HW228718   0.625   0.991  11.004 -0.5303  0.8340  0.5793
 9093SOL     OW28719   6.294   3.574   9.392  0.3208  0.0714  0.3357
 9093SOL    HW128720   6.366   3.518   9.363  0.2431  0.2822 -0.2862
 9093SOL    HW228721   6.278   3.633   9.317  1.2409  1.7601  1.3937
 9094SOL     OW28722   2.595   6.282   5.222 -0.0652  0.0415  0.0314
 9094SOL    HW128723   2.534   6.224   5.176 -0.1823 -0.4693  0.7994
 9094SOL    HW228724   2.565   6.279   5.313  2.0649 -1.5116  0.7495
 9095SOL     OW28725   1.866   7.927  11.254 -0.1431 -0.2507 -0.1102
 9095SOL    HW128726   1.890   8.014  11.224  0.8485 -0.9603 -1.4729
 9095SOL    HW228727   1.909   7.867  11.193  1.6318 -1.8038  2.4307
 9096SOL     OW28728   7.536   1.328   3.294 -0.7606 -0.6340 -0.2519
 9096SOL    HW128729   7.570   1.352   3.380 -2.1194  0.6860 -0.0440
 9096SOL    HW228730   7.551   1.233   3.289  0.0601 -0.6128  1.0986
 9097SOL     OW28731   0.220   4.970   0.170  0.1749 -0.2790 -0.1042
 9097SOL    HW128732   0.266   4.907   0.224 -0.0788 -1.0121 -0.7275
 9097SOL    HW228733   0.128   4.945   0.177 -0.1064  0.8805  0.7560
 9098SOL     OW28734   7.785   2.022  10.459 -0.2997 -0.1029 -0.3089
 9098SOL    HW128735   7.716   2.089  10.458 -0.4352 -0.2505 -1.1122
 9098SOL    HW228736   7.819   2.025  10.549 -1.7194 -0.4145  0.2599
 9099SOL     OW28737   6.442   5.947   3.361 -0.8098  0.0523 -0.2160
 9099SOL    HW128738   6.486   5.972   3.442 -1.9553 -1.1527  0.8083
 9099SOL    HW228739   6.351   5.930   3.386 -1.2733 -0.0305 -1.8148
 9100SOL     OW28740   7.687   6.495   4.697  0.2361 -0.1191 -0.4371
 9100SOL    HW128741   7.764   6.546   4.725 -0.5231  0.1344  1.3068
 9100SOL    HW228742   7.711   6.404   4.717 -0.5960  0.1265  1.9179
 9101SOL     OW28743   2.630   5.168   8.498 -0.3262  0.1298  0.1847
 9101SOL    HW128744   2.608   5.259   8.516  2.0973  1.0217 -0.9128
 9101SOL    HW228745   2.643   5.164   8.403  0.0364 -1.2623  0.2580
 9102SOL     OW28746   1.111   6.009   2.513 -0.5749  0.0994  0.3048
 9102SOL    HW128747   1.147   5.932   2.468 -0.5601  0.3070 -0.0443
 9102SOL    HW228748   1.155   6.010   2.598  0.1651  0.2828 -0.0755
 9103SOL     OW28749   0.331   7.891  11.101  0.2593 -0.4126  0.2323
 9103SOL    HW128750   0.303   7.885  11.010  0.5994  1.5891 -0.0429
 9103SOL    HW228751   0.249   7.895  11.151  0.0398 -3.0182  0.2081
 9104SOL     OW28752   0.969   4.097   5.239 -0.4104 -0.9790 -0.8364
 9104SOL    HW128753   1.018   4.021   5.207 -0.9500 -1.8155  0.2863
 9104SOL    HW228754   0.877   4.071   5.233 -0.5636 -0.8193  0.5130
 9105SOL     OW28755   7.079   1.300   0.605  0.0621 -0.2498  0.3994
 9105SOL    HW128756   7.119   1.272   0.523 -0.0480 -1.2535  0.6686
 9105SOL    HW228757   7.041   1.219   0.642 -3.5776  0.8087 -0.5688
 9106SOL     OW28758   6.989   5.929   2.178  0.2943 -0.4354  0.2068
 9106SOL    HW128759   7.009   5.874   2.103 -0.0924 -2.0365  1.2271
 9106SOL    HW228760   7.069   5.980   2.194  0.5181 -0.3975 -0.9984
 9107SOL     OW28761   6.454   4.904   6.632 -0.1315 -0.2410  0.4645
 9107SOL    HW128762   6.415   4.824   6.598  0.6322  0.1523 -1.4332
 9107SOL    HW228763   6.380   4.957   6.660 -0.9781  0.0947 -2.1469
 9108SOL     OW28764   7.577   2.312   4.153 -0.0870  0.6657 -0.5312
 9108SOL    HW128765   7.582   2.397   4.108 -0.7706  0.7423 -0.4602
 9108SOL    HW228766   7.596   2.332   4.245  2.4646  0.3547 -0.9086
 9109SOL     OW28767   1.720   6.462   8.157 -0.1171 -0.3168 -0.3343
 9109SOL    HW128768   1.774   6.420   8.224  0.3142  0.3020 -0.2914
 9109SOL    HW228769   1.713   6.395   8.088 -0.6942 -1.0131  0.3760
 9110SOL     OW28770   7.274   3.166  11.011  0.2408  0.1597 -0.1505
 9110SOL    HW128771   7.360   3.169  10.970  1.0003  1.4759  1.4360
 9110SOL    HW228772   7.274   3.084  11.061  0.5128  0.1047 -0.2406
 9111SOL     OW28773   3.871   0.887   4.959 -0.1008 -0.1047 -0.2434
 9111SOL    HW128774   3.849   0.887   5.053 -1.1738  0.0104 -0.4813
 9111SOL    HW228775   3.932   0.814   4.949  1.1123  0.7438  0.7772
 9112SOL     OW28776   3.731   2.532   6.517 -0.2365 -0.2499  0.1506
 9112SOL    HW128777   3.767   2.453   6.476  2.3850  0.4403  0.9489
 9112SOL    HW228778   3.744   2.600   6.452  0.7154  0.1560  0.7356
 9113SOL     OW28779   5.965   1.081   7.766  0.5081  0.1228 -0.4149
 9113SOL    HW128780   5.891   1.027   7.798  1.6967 -1.5312 -0.3098
 9113SOL    HW228781   5.984   1.140   7.839  0.1328 -0.3569  0.0832
 9114SOL     OW28782   3.155   5.540  11.204  0.3391  0.0318 -0.0128
 9114SOL    HW128783   3.113   5.625  11.213 -0.1454 -0.3499  1.6313
 9114SOL    HW228784   3.243   5.559  11.170  0.3795  1.2084  0.7200
 9115SOL     OW28785   0.734   5.951   8.349  0.4955 -0.1895 -0.2381
 9115SOL    HW128786   0.654   5.935   8.300  1.1188  0.5062 -1.5217
 9115SOL    HW228787   0.794   5.883   8.320  1.1973  0.8232 -1.2479
 9116SOL     OW28788   5.148   1.963  12.309  0.0228  0.5125 -0.5461
 9116SOL    HW128789   5.080   1.997  12.250 -0.8129  0.0002  0.0921
 9116SOL    HW228790   5.153   1.870  12.289 -0.1454  0.3677  0.0650
 9117SOL     OW28791   7.928   4.000   5.795 -0.3581  1.0278  0.1391
 9117SOL    HW128792   8.012   3.964   5.823 -1.1235 -0.1748  0.9687
 9117SOL    HW228793   7.923   3.980   5.702 -0.3386 -0.1557  0.3867
 9118SOL     OW28794   4.493   2.297  10.492 -0.3593 -0.0324 -0.2995
 9118SOL    HW128795   4.572   2.290  10.437  1.5363  1.3355  2.0264
 9118SOL    HW228796   4.527   2.294  10.582 -2.7791  2.1663  0.8075
 9119SOL     OW28797   0.495   6.774   8.786  0.3722  0.1821  0.0517
 9119SOL    HW128798   0.567   6.711   8.776 -0.1008 -0.1098 -1.8050
 9119SOL    HW228799   0.533   6.858   8.759  0.0289  0.0314 -0.9097
 9120SOL     OW28800   4.893   0.427   0.779  0.2315  0.1482  0.0026
 9120SOL    HW128801   4.957   0.360   0.754  0.4558 -0.0053  0.9664
 9120SOL    HW228802   4.868   0.467   0.696 -1.8043 -2.7758 -0.9742
 9121SOL     OW28803   0.227   6.144  11.645 -0.6335  0.2436  0.3420
 9121SOL    HW128804   0.256   6.233  11.664  0.5437  0.2808 -1.3553
 9121SOL    HW228805   0.302   6.103  11.601 -0.8993 -1.8247  1.6737
 9122SOL     OW28806   2.309   6.897   5.977  0.1473  0.0606  0.2785
 9122SOL    HW128807   2.367   6.828   5.944  0.7148  1.0380 -0.8406
 9122SOL    HW228808   2.221   6.858   5.972  0.2301  0.0126 -2.1533
 9123SOL     OW28809   7.938   2.235   4.366 -0.0564 -0.3130  0.3980
 9123SOL    HW128810   7.888   2.157   4.339  2.6062 -1.8264 -0.5122
 9123SOL    HW228811   7.940   2.290   4.289 -0.0942 -0.3565  0.3656
 9124SOL     OW28812   4.937   5.113   9.927  0.3436 -0.0831 -0.7536
 9124SOL    HW128813   4.919   5.034   9.875 -0.3530 -0.1247 -0.4533
 9124SOL    HW228814   4.852   5.140   9.961  0.9945 -1.3445  2.2135
 9125SOL     OW28815   6.289   5.841   1.390 -0.6326  0.5635 -0.3707
 9125SOL    HW128816   6.342   5.771   1.351 -1.1343 -0.5627  0.8956
 9125SOL    HW228817   6.200   5.807   1.389 -0.8377  1.0601  0.5596
 9126SOL     OW28818   2.143   4.402   8.364  0.6260  0.3018  0.0173
 9126SOL    HW128819   2.218   4.437   8.316  1.6257 -0.6635  0.8343
 9126SOL    HW228820   2.171   4.401   8.455 -0.2143 -0.5265  0.2846
 9127SOL     OW28821   6.340   0.914   1.937 -0.4173  0.1609  0.0208
 9127SOL    HW128822   6.369   0.929   2.027 -1.6269 -0.0632  0.4710
 9127SOL    HW228823   6.420   0.916   1.885  0.4835 -1.1592  1.2789
 9128SOL     OW28824   2.430   1.332   2.299  0.2403 -0.2740  0.2310
 9128SOL    HW128825   2.523   1.353   2.289  0.3000 -0.2298  0.8478
 9128SOL    HW228826   2.427   1.237   2.300  0.5035 -0.2959  2.0623
 9129SOL     OW28827   0.568   7.142   7.155  0.0593 -0.4808 -0.2389
 9129SOL    HW128828   0.599   7.131   7.065  2.7327  1.1372  0.3752
 9129SOL    HW228829   0.617   7.077   7.206  1.0976  0.7934  0.4672
 9130SOL     OW28830   7.780   5.804  10.566 -0.5748 -0.1968  0.1353
 9130SOL    HW128831   7.722   5.740  10.525  1.3307 -1.4166 -0.7914
 9130SOL    HW228832   7.847   5.823  10.500  2.3633 -1.8908  2.3727
 9131SOL     OW28833   4.952   1.719   0.194 -0.4993 -0.0848 -0.3339
 9131SOL    HW128834   4.967   1.813   0.206  1.6008 -0.5235  1.0358
 9131SOL    HW228835   4.944   1.708   0.100  0.2722  1.3418 -0.5965
 9132SOL     OW28836   2.165   3.057   1.884 -0.1325 -0.1112  0.1079
 9132SOL    HW128837   2.163   3.133   1.825  0.8986 -0.5575 -0.5306
 9132SOL    HW228838   2.131   2.985   1.831 -0.8021 -0.1852  0.6144
 9133SOL     OW28839   4.051   6.832   5.895 -0.0572  0.6304  0.2561
 9133SOL    HW128840   3.997   6.866   5.825 -1.1797 -0.4726  0.5673
 9133SOL    HW228841   4.026   6.884   5.972 -0.5596  0.2500  0.3566
 9134SOL     OW28842   3.623   3.162   0.851  0.3494 -0.0776 -0.4239
 9134SOL    HW128843   3.713   3.195   0.848  0.2217  0.2976 -0.0966
 9134SOL    HW228844   3.608   3.128   0.762  0.9111 -0.4135 -0.3989
 9135SOL     OW28845   5.845   4.464   5.831 -0.1118  0.0591  0.5401
 9135SOL    HW128846   5.818   4.458   5.923 -1.1838  0.2160  0.2502
 9135SOL    HW228847   5.835   4.376   5.797 -3.1550  0.6058 -0.3069
 9136SOL     OW28848   7.873   2.025   7.707  0.4188  0.1437 -0.1098
 9136SOL    HW128849   7.930   2.060   7.638  1.4274 -0.3635  0.4419
 9136SOL    HW228850   7.926   1.958   7.750 -1.2592 -1.7018 -0.7809
 9137SOL     OW28851   5.624   6.183   8.612 -0.0045 -0.2194 -0.0490
 9137SOL    HW128852   5.689   6.112   8.611 -0.7729 -1.0412  2.2779
 9137SOL    HW228853   5.641   6.232   8.531  2.0600 -1.6877 -0.5907
 9138SOL     OW28854   1.397   4.485   4.767  0.2805  0.0174  0.2879
 9138SOL    HW128855   1.470   4.544   4.751  0.1837  0.2767  0.7629
 9138SOL    HW228856   1.326   4.542   4.797  0.5010 -0.4408  1.7473
 9139SOL     OW28857   2.334   0.056   0.066 -0.0332  0.2273 -0.2665
 9139SOL    HW128858   2.396   0.072  -0.005 -0.2659 -0.5208 -0.6485
 9139SOL    HW228859   2.248   0.067   0.026 -0.2010  2.8108  0.6197
 9140SOL     OW28860   3.274   3.923   3.323 -0.2450  0.2313 -0.1028
 9140SOL    HW128861   3.287   3.996   3.383 -0.5068  2.5650 -2.7049
 9140SOL    HW228862   3.202   3.951   3.267 -0.5011 -2.1543 -1.0841
 9141SOL     OW28863   4.702   6.776   1.455 -0.0642 -0.1231 -0.9216
 9141SOL    HW128864   4.616   6.814   1.474 -0.2441  0.4954 -2.7496
 9141SOL    HW228865   4.722   6.723   1.532 -1.7146  0.3540 -0.1024
 9142SOL     OW28866   7.102   5.669   5.748  0.4820 -0.1022  0.4018
 9142SOL    HW128867   7.161   5.697   5.678  1.2597 -2.2342  0.1229
 9142SOL    HW228868   7.048   5.601   5.708 -0.2440 -0.1497  1.4293
 9143SOL     OW28869   1.981   4.603   4.879 -0.0782  0.2729 -0.2041
 9143SOL    HW128870   2.069   4.642   4.879 -0.2977  0.8004  1.1610
 9143SOL    HW228871   1.949   4.619   4.790  1.5303 -0.7193 -1.0209
 9144SOL     OW28872   2.840   5.811   1.955 -0.0157 -0.0917 -0.4974
 9144SOL    HW128873   2.845   5.716   1.947 -2.1694 -0.3446  0.4683
 9144SOL    HW228874   2.883   5.830   2.039 -1.0612 -0.4310  0.1328
 9145SOL     OW28875   6.556   4.562   4.822  0.2436  0.6232  0.1434
 9145SOL    HW128876   6.497   4.503   4.869  0.6805 -0.1846 -0.2990
 9145SOL    HW228877   6.501   4.603   4.755  0.3516 -0.9042 -0.9582
 9146SOL     OW28878   5.174   0.584   2.040 -0.6072  0.2814 -0.0329
 9146SOL    HW128879   5.163   0.667   1.994 -1.0405  1.4229  1.9884
 9146SOL    HW228880   5.136   0.519   1.982  0.5840  1.3328 -2.0852
 9147SOL     OW28881   2.269   1.917   0.758  0.5068  0.4502 -0.0937
 9147SOL    HW128882   2.182   1.878   0.746  0.6663  0.3822 -1.1610
 9147SOL    HW228883   2.313   1.859   0.820  0.5968 -0.8807 -1.3565
 9148SOL     OW28884   1.782   4.349   8.522  0.5764 -0.6693  0.7203
 9148SOL    HW128885   1.703   4.296   8.527  0.2035 -0.0150  2.2680
 9148SOL    HW228886   1.758   4.431   8.565  1.3985  0.4400 -0.8374
 9149SOL     OW28887   0.867   2.617   7.875  0.2868  0.4382  0.4234
 9149SOL    HW128888   0.912   2.621   7.959 -0.2980  0.3770  0.7477
 9149SOL    HW228889   0.911   2.547   7.827  0.3897  0.2302  0.8180
 9150SOL     OW28890   3.581   7.024  10.337 -0.1101  0.0334 -0.0857
 9150SOL    HW128891   3.660   7.003  10.386  0.4977 -0.0817 -1.0882
 9150SOL    HW228892   3.513   6.969  10.375  0.5106 -0.5878  0.1460
 9151SOL     OW28893   2.089   0.697  10.779 -0.7668  0.2716  0.1312
 9151SOL    HW128894   1.995   0.680  10.774 -1.1031  1.3955  1.8173
 9151SOL    HW228895   2.104   0.762  10.710 -0.5429 -2.2007 -2.3440
 9152SOL     OW28896   0.876   3.899   1.205  0.1669  0.5256 -0.1678
 9152SOL    HW128897   0.935   3.963   1.165  0.5650 -0.0840 -0.5752
 9152SOL    HW228898   0.819   3.871   1.134 -1.1225  1.6542  0.3898
 9153SOL     OW28899   3.404   2.683  10.959  0.1212  0.3831 -0.0757
 9153SOL    HW128900   3.343   2.755  10.945  0.7158  0.6889 -1.1864
 9153SOL    HW228901   3.489   2.725  10.971  0.4995 -0.1159 -0.8809
 9154SOL     OW28902   4.255   6.469   9.732  0.1510 -0.1471  0.2228
 9154SOL    HW128903   4.258   6.377   9.758  0.6670  0.0481  0.8806
 9154SOL    HW228904   4.345   6.501   9.745  0.1060  0.3144 -0.5142
 9155SOL     OW28905   0.702   6.805   3.737  0.3245  0.1930 -0.0835
 9155SOL    HW128906   0.784   6.840   3.771  0.2407 -1.0630  1.4969
 9155SOL    HW228907   0.650   6.784   3.814  0.2036 -3.0106 -0.8975
 9156SOL     OW28908   4.057   5.379   5.823 -0.3143  0.0998  0.3653
 9156SOL    HW128909   4.141   5.417   5.796  0.0671 -0.4976  0.6985
 9156SOL    HW228910   4.006   5.454   5.854 -0.4198  0.6618 -1.1159
 9157SOL     OW28911   2.899   6.016   5.898 -0.0080 -0.6803  0.4216
 9157SOL    HW128912   2.963   6.036   5.966  0.3711  1.2519 -0.4241
 9157SOL    HW228913   2.902   6.093   5.840 -1.0578 -1.8024 -1.1869
 9158SOL     OW28914   2.892   6.973   7.496  0.0363 -0.4354  0.1816
 9158SOL    HW128915   2.839   7.050   7.478 -0.6453 -0.0391  3.3310
 9158SOL    HW228916   2.840   6.900   7.461  0.1497  0.3941 -1.8067
 9159SOL     OW28917   5.532   5.584   2.701 -0.3861  0.1282 -0.2962
 9159SOL    HW128918   5.573   5.521   2.642 -1.6223  0.0130 -1.0870
 9159SOL    HW228919   5.540   5.668   2.657  1.6777  0.6553  0.9754
 9160SOL     OW28920   0.658   4.686   4.191 -0.3942  0.0056  0.3345
 9160SOL    HW128921   0.670   4.591   4.186 -1.3267 -0.1352  0.5652
 9160SOL    HW228922   0.738   4.718   4.235  0.9078 -0.3993 -1.6053
 9161SOL     OW28923   5.804   5.464   8.334  0.4021 -0.0756 -0.3798
 9161SOL    HW128924   5.881   5.410   8.313  1.9175  1.2292  1.4948
 9161SOL    HW228925   5.825   5.550   8.299  0.8780  0.8835  2.1101
 9162SOL     OW28926   3.679   3.980   8.733  0.7655  0.0310  0.1570
 9162SOL    HW128927   3.700   4.069   8.760  0.5366  0.0956  0.1219
 9162SOL    HW228928   3.603   3.989   8.676  0.2308 -0.2659  0.8149
 9163SOL     OW28929   7.934   1.412  12.208  0.7750 -0.0415  0.5348
 9163SOL    HW128930   7.872   1.477  12.175  1.2953  0.9017  1.3586
 9163SOL    HW228931   7.971   1.452  12.286  2.7242 -0.3974 -0.1470
 9164SOL     OW28932   4.020   4.167   3.990 -0.1939 -0.0037 -0.6162
 9164SOL    HW128933   3.972   4.133   3.915 -0.3925 -1.0714 -0.0336
 9164SOL    HW228934   4.111   4.171   3.960 -0.4525  0.8118 -1.3146
 9165SOL     OW28935   3.732   2.988   1.438  0.3136 -0.2180  0.5396
 9165SOL    HW128936   3.691   2.907   1.409 -1.2337  0.1119  1.6301
 9165SOL    HW228937   3.796   2.961   1.503  1.4478 -0.7060 -0.7458
 9166SOL     OW28938   4.599   7.970  12.033 -0.1062  0.3146 -0.1044
 9166SOL    HW128939   4.667   8.024  12.072  1.0249 -0.8626 -0.4093
 9166SOL    HW228940   4.540   7.950  12.106 -0.4596  1.7622  0.0544
 9167SOL     OW28941   5.202   6.137   4.946  0.5197  0.1273 -0.3840
 9167SOL    HW128942   5.256   6.161   4.871  0.3449  1.2175 -0.1757
 9167SOL    HW228943   5.255   6.161   5.023  0.8298 -1.2689 -0.1341
 9168SOL     OW28944   5.406   6.440   0.565 -0.6148  0.6278 -0.3012
 9168SOL    HW128945   5.395   6.535   0.573  3.2403  1.2154  0.2206
 9168SOL    HW228946   5.349   6.403   0.633 -0.9737  2.7102  0.6051
 9169SOL     OW28947   2.172   3.361   1.698 -0.2104  0.0174  0.4377
 9169SOL    HW128948   2.134   3.317   1.621 -0.1591 -0.2493  0.5648
 9169SOL    HW228949   2.264   3.374   1.675  0.3625 -2.0705  1.3169
 9170SOL     OW28950   4.607   1.267   1.926  0.4342  0.4473  0.4278
 9170SOL    HW128951   4.688   1.249   1.879 -0.4500  0.6917 -1.2856
 9170SOL    HW228952   4.577   1.181   1.957  0.7229  0.1911 -0.0003
 9171SOL     OW28953   6.138   0.434   2.445 -0.3306 -0.1065  0.0894
 9171SOL    HW128954   6.164   0.419   2.354 -0.7755  2.4714 -0.5263
 9171SOL    HW228955   6.215   0.472   2.487 -0.6711  0.3367  0.3237
 9172SOL     OW28956   5.218   1.175  11.667 -0.1118  0.1722 -0.0959
 9172SOL    HW128957   5.272   1.208  11.595 -1.6648  0.4191 -1.2022
 9172SOL    HW228958   5.247   1.225  11.743  0.0602  1.5361 -1.0181
 9173SOL     OW28959   5.666   2.466   5.084  0.1428  0.1564 -0.4173
 9173SOL    HW128960   5.614   2.413   5.145  0.8250  0.0290  0.0595
 9173SOL    HW228961   5.631   2.555   5.095  1.0921  0.3896  1.1258
 9174SOL     OW28962   5.528   6.052   6.799  0.1097 -0.6032  0.5112
 9174SOL    HW128963   5.505   6.079   6.710  1.4469 -2.5006 -0.4891
 9174SOL    HW228964   5.451   6.005   6.830 -0.7443  0.9056  0.7872
 9175SOL     OW28965   4.798   6.270   5.933 -0.1920  0.1431  0.0644
 9175SOL    HW128966   4.849   6.265   5.853 -0.8805  0.7783 -0.4246
 9175SOL    HW228967   4.722   6.324   5.910  0.3321  1.6008  1.5135
 9176SOL     OW28968   7.856   3.618   1.348 -0.2885 -0.3455 -0.5073
 9176SOL    HW128969   7.910   3.601   1.426 -0.7722 -3.0707 -0.6570
 9176SOL    HW228970   7.891   3.699   1.312  1.6466 -0.3674  1.1243
 9177SOL     OW28971   3.511   5.013   1.948  0.4697 -0.1807  0.1374
 9177SOL    HW128972   3.558   5.063   1.882  1.1685 -1.8226 -0.6865
 9177SOL    HW228973   3.580   4.976   2.003  0.0103 -0.5705  0.4548
 9178SOL     OW28974   4.954   3.829  11.324  0.7453  0.3013  0.0972
 9178SOL    HW128975   4.913   3.782  11.397  0.9551  0.1307  0.1042
 9178SOL    HW228976   5.032   3.869  11.363 -0.0219  1.5967  0.3696
 9179SOL     OW28977   5.327   5.495   3.074  0.3480 -0.3500 -0.5918
 9179SOL    HW128978   5.345   5.538   3.158 -1.2630  3.6431 -2.0322
 9179SOL    HW228979   5.241   5.455   3.084 -0.0413  0.5106 -0.4301
 9180SOL     OW28980   5.448   0.029  10.109 -0.4866 -0.4304  0.8055
 9180SOL    HW128981   5.541   0.023  10.088 -0.9236  1.7647 -2.5175
 9180SOL    HW228982   5.404  -0.013  10.035 -2.1375  2.7863 -0.2417
 9181SOL     OW28983   6.024   6.202  12.295  0.0980  0.3800  0.3327
 9181SOL    HW128984   5.980   6.172  12.216  1.0963  0.5367 -0.3070
 9181SOL    HW228985   5.988   6.289  12.311 -0.9313 -0.0995  0.7197
 9182SOL     OW28986   2.386   0.617   1.719 -0.2228  0.4401 -0.2029
 9182SOL    HW128987   2.381   0.711   1.741  0.9083  0.2036  1.2083
 9182SOL    HW228988   2.444   0.580   1.785 -0.0735 -1.1497 -1.1724
 9183SOL     OW28989   4.807   6.653   4.819  0.2209  0.3382  0.6728
 9183SOL    HW128990   4.808   6.595   4.743 -0.6128  0.7501  0.3309
 9183SOL    HW228991   4.718   6.646   4.853  0.3537  0.7793  1.1264
 9184SOL     OW28992   6.872   6.495   4.067 -0.2348 -1.0680  0.5338
 9184SOL    HW128993   6.914   6.440   4.002  1.0825 -1.7193  1.8720
 9184SOL    HW228994   6.841   6.571   4.018  1.1839 -1.2889 -0.7614
 9185SOL     OW28995   7.097   7.169   4.237 -0.6537 -0.7783 -0.1647
 9185SOL    HW128996   7.164   7.220   4.192  1.1440 -1.5891  1.4618
 9185SOL    HW228997   7.034   7.233   4.269 -0.4152  0.0446 -1.2982
 9186SOL     OW28998   2.354   5.041   9.854  0.3584 -0.5952  0.0007
 9186SOL    HW128999   2.278   5.008   9.902  0.4106 -0.0369  0.4866
 9186SOL    HW229000   2.399   4.962   9.822 -0.7128 -0.9102 -0.7645
 9187SOL     OW29001   2.794   6.857   0.630  0.2515 -0.5583  0.3389
 9187SOL    HW129002   2.743   6.782   0.663 -0.7190  0.2303  0.6948
 9187SOL    HW229003   2.809   6.836   0.537  0.5565 -1.4882  0.5858
 9188SOL     OW29004   6.059   3.857   5.166 -0.1132 -0.2183 -0.4039
 9188SOL    HW129005   6.089   3.768   5.145 -2.0977 -1.0867  0.1296
 9188SOL    HW229006   6.138   3.903   5.192  1.0213 -1.7636 -0.9228
 9189SOL     OW29007   6.091   1.691   1.795  0.2936  0.2923 -0.3802
 9189SOL    HW129008   6.096   1.653   1.883  1.5226 -0.1258 -0.6159
 9189SOL    HW229009   6.012   1.745   1.797 -0.7893 -1.2578  0.3593
 9190SOL     OW29010   2.134   2.335   5.727  0.0600  0.1057  0.4896
 9190SOL    HW129011   2.208   2.288   5.767  1.3236  2.2705  0.8808
 9190SOL    HW229012   2.064   2.329   5.792  0.2393 -1.0633  0.5913
 9191SOL     OW29013   7.633   6.472   4.398 -0.4433  0.0219 -0.1891
 9191SOL    HW129014   7.723   6.502   4.408  0.0202 -0.8203 -1.5917
 9191SOL    HW229015   7.594   6.482   4.485  2.1834 -3.5190  1.6226
 9192SOL     OW29016   2.607   0.257   2.738 -0.8437  0.2290  0.0618
 9192SOL    HW129017   2.690   0.250   2.690 -0.7453  1.3001  0.0535
 9192SOL    HW229018   2.544   0.288   2.673 -0.4314  2.9627  0.8338
 9193SOL     OW29019   0.696   7.977  10.869  0.0139  0.3402  0.4332
 9193SOL    HW129020   0.775   7.987  10.923 -0.3000  2.9582  0.5500
 9193SOL    HW229021   0.728   7.983  10.779  0.1394 -0.5151  0.4133
 9194SOL     OW29022   0.395   6.277   1.816 -0.2324 -0.0004 -0.3240
 9194SOL    HW129023   0.442   6.354   1.784 -1.9369  0.5555 -1.6240
 9194SOL    HW229024   0.327   6.312   1.874  1.1919 -0.8290  1.9936
 9195SOL     OW29025   6.895   4.892   0.150  0.0162 -0.1489 -0.2830
 9195SOL    HW129026   6.847   4.946   0.213  0.2001  0.2713 -0.4978
 9195SOL    HW229027   6.859   4.917   0.065  1.0389  0.6316 -0.5057
 9196SOL     OW29028   5.029   4.093   9.478  0.6807  0.0023  0.2639
 9196SOL    HW129029   4.945   4.050   9.496  1.1638 -2.0431 -1.9200
 9196SOL    HW229030   5.007   4.186   9.470 -1.7065 -0.6116 -1.7207
 9197SOL     OW29031   2.853   7.815  11.421 -0.5166  0.4612 -0.0614
 9197SOL    HW129032   2.872   7.725  11.395 -1.4244  0.3131 -0.2598
 9197SOL    HW229033   2.937   7.849  11.453  0.5672  0.5174 -2.7142
 9198SOL     OW29034   2.094   1.605   7.297 -0.7449 -0.0550 -0.0344
 9198SOL    HW129035   2.059   1.682   7.252 -0.6260  0.1929  0.2936
 9198SOL    HW229036   2.168   1.638   7.349 -1.1129 -0.2710  0.6377
 9199SOL     OW29037   5.659   6.545   1.489 -0.3900  0.3595  0.1711
 9199SOL    HW129038   5.747   6.509   1.486  0.1769  1.7754 -0.7885
 9199SOL    HW229039   5.671   6.640   1.487 -1.9252  0.5767  0.1089
 9200SOL     OW29040   2.318   7.960   2.804  0.3480 -0.0360 -0.5074
 9200SOL    HW129041   2.228   7.988   2.788 -0.3401 -2.5250 -1.4052
 9200SOL    HW229042   2.343   7.912   2.725  1.6442 -1.2905  0.6078
 9201SOL     OW29043   4.884   0.342  11.219  0.4749 -0.3371 -0.3243
 9201SOL    HW129044   4.846   0.396  11.289  0.6149  1.3660 -1.5323
 9201SOL    HW229045   4.829   0.263  11.219 -1.6024  1.0414 -0.4473
 9202SOL     OW29046   5.174   3.375   2.222  0.0476 -0.5296 -0.3375
 9202SOL    HW129047   5.261   3.398   2.188  0.3230 -0.1970  0.5626
 9202SOL    HW229048   5.181   3.390   2.317 -1.2520  0.3256 -0.3570
 9203SOL     OW29049   3.878   5.399   5.551  0.2246 -0.0152 -0.0743
 9203SOL    HW129050   3.921   5.320   5.584  2.1822  0.6811 -0.7700
 9203SOL    HW229051   3.829   5.433   5.626 -1.1779 -2.1686  0.0718
 9204SOL     OW29052   3.981   3.284   9.012  0.0835 -0.0737 -0.3068
 9204SOL    HW129053   4.056   3.340   8.993 -0.6039  1.5894  1.5064
 9204SOL    HW229054   4.017   3.195   9.015  1.9577  0.6595  0.3365
 9205SOL     OW29055   2.484   7.806   6.563 -0.3874  0.1988 -0.4252
 9205SOL    HW129056   2.429   7.864   6.616 -2.0482 -1.5036 -0.1364
 9205SOL    HW229057   2.441   7.720   6.571  1.5371 -0.9146 -1.4046
 9206SOL     OW29058   3.008   2.292  11.956 -0.5972 -0.0344 -0.2627
 9206SOL    HW129059   2.936   2.325  11.902  0.8274  0.1569 -2.1479
 9206SOL    HW229060   3.086   2.304  11.902  0.8681 -0.2625  1.6986
 9207SOL     OW29061   1.177   1.048   6.803  0.0833  0.1365 -0.6683
 9207SOL    HW129062   1.238   1.005   6.863  1.9654  2.4983 -0.7536
 9207SOL    HW229063   1.187   1.001   6.720  1.5885  0.2921 -0.5972
 9208SOL     OW29064   0.087   0.761  11.876 -0.3784 -0.0338 -0.7024
 9208SOL    HW129065   0.087   0.665  11.868 -0.4065 -0.0612 -0.3933
 9208SOL    HW229066   0.172   0.787  11.841 -0.0045 -0.2488  0.0197
 9209SOL     OW29067   6.017   6.982   0.732  0.1605 -0.4440  0.3883
 9209SOL    HW129068   5.945   7.026   0.688 -0.5316 -2.1686 -0.3155
 9209SOL    HW229069   6.084   6.972   0.665  0.4361 -0.2100  0.6246
 9210SOL     OW29070   0.366   1.244   6.956  0.0803 -0.0613  0.8493
 9210SOL    HW129071   0.437   1.252   6.892 -1.1731 -0.2029 -0.6228
 9210SOL    HW229072   0.318   1.326   6.948 -1.7361 -1.1994 -0.4787
 9211SOL     OW29073   2.854   1.090   2.734 -0.6589 -0.2220 -0.0939
 9211SOL    HW129074   2.849   1.134   2.819 -1.8571  0.9099 -0.7267
 9211SOL    HW229075   2.946   1.098   2.709 -0.5698  0.6516  0.4663
 9212SOL     OW29076   6.731   5.193   1.370 -0.0448  0.4722  0.2948
 9212SOL    HW129077   6.706   5.212   1.279 -1.3496  2.9171  1.0618
 9212SOL    HW229078   6.806   5.134   1.362 -1.9115 -1.8154 -2.2697
 9213SOL     OW29079   4.496   2.146  11.996 -0.6032  0.1758  0.0758
 9213SOL    HW129080   4.433   2.076  12.011 -0.6010  0.0112 -0.6306
 9213SOL    HW229081   4.442   2.223  11.978 -0.6049  0.3002  0.6138
 9214SOL     OW29082   1.905   7.700   7.423  0.0538  0.0975  0.4611
 9214SOL    HW129083   1.869   7.745   7.500 -1.1403  0.5946 -0.3577
 9214SOL    HW229084   1.837   7.638   7.397  0.2604  0.2445 -0.4543
 9215SOL     OW29085   3.563   6.655   9.122 -0.0433 -0.1523  0.0647
 9215SOL    HW129086   3.480   6.621   9.087 -1.0708  0.4339  1.7744
 9215SOL    HW229087   3.593   6.717   9.055 -2.0443  1.1118  0.2239
 9216SOL     OW29088   7.008   5.517   7.596 -0.1428 -0.0922 -0.3989
 9216SOL    HW129089   7.074   5.533   7.528 -0.0522  0.1849 -0.2498
 9216SOL    HW229090   6.925   5.542   7.554 -0.0766  0.1632 -0.3793
 9217SOL     OW29091   0.429   2.147   3.597 -0.0089 -0.0777 -0.4158
 9217SOL    HW129092   0.495   2.170   3.532 -0.8537  0.0661 -1.2389
 9217SOL    HW229093   0.395   2.230   3.629  0.6499 -0.1395  0.4908
 9218SOL     OW29094   0.809   6.833   4.075  0.3559 -0.1506  0.6105
 9218SOL    HW129095   0.774   6.753   4.035  1.3448 -0.1774 -0.2264
 9218SOL    HW229096   0.732   6.881   4.105 -0.3735 -0.4269 -0.7753
 9219SOL     OW29097   6.498   5.918   9.044 -0.2699  0.2959  0.0051
 9219SOL    HW129098   6.561   5.990   9.033 -0.4060  0.4788  0.3998
 9219SOL    HW229099   6.463   5.903   8.956 -1.3110  1.7032  0.1341
 9220SOL     OW29100   5.264   6.064   9.871 -0.2306  0.2509  0.1198
 9220SOL    HW129101   5.263   6.159   9.866  2.3660  0.3154 -0.6481
 9220SOL    HW229102   5.287   6.036   9.782  2.7262 -0.8394  1.0854
 9221SOL     OW29103   7.384   6.669  10.479 -0.1728  0.1697 -0.2250
 9221SOL    HW129104   7.473   6.635  10.471 -0.0493  0.3412  0.3554
 9221SOL    HW229105   7.360   6.650  10.569 -0.9365 -0.3748 -0.5381
 9222SOL     OW29106   2.910   1.155   6.616 -0.0797 -0.2945 -0.0478
 9222SOL    HW129107   2.840   1.206   6.657 -0.0762 -0.2785 -0.0620
 9222SOL    HW229108   2.864   1.096   6.555 -0.0433  0.0424 -0.4035
 9223SOL     OW29109   7.701   6.725  12.412  0.3404 -0.0298  0.3906
 9223SOL    HW129110   7.784   6.764  12.385 -0.1610  0.3062 -0.7246
 9223SOL    HW229111   7.643   6.738  12.338 -1.4023  1.7032  1.9445
 9224SOL     OW29112   0.932   7.375   8.953  0.0155 -0.0618  0.1105
 9224SOL    HW129113   0.981   7.330   9.021 -0.1566  1.6360  1.4228
 9224SOL    HW229114   0.985   7.366   8.874  1.6878  0.4192  1.1499
 9225SOL     OW29115   0.434   7.014  10.923  0.2174 -0.8758  0.0048
 9225SOL    HW129116   0.426   7.017  10.828  0.5540 -1.9885 -0.0735
 9225SOL    HW229117   0.517   6.969  10.939  0.4103 -0.2553  0.8302
 9226SOL     OW29118   2.451   3.295   6.086  0.3376 -0.1366 -0.5830
 9226SOL    HW129119   2.500   3.218   6.115  1.7196  1.1936  0.7648
 9226SOL    HW229120   2.516   3.351   6.043 -0.5746  0.4465 -1.2499
 9227SOL     OW29121   6.393   4.486   8.849 -0.0711  0.5474  0.0067
 9227SOL    HW129122   6.410   4.497   8.755  0.7369 -0.9666 -0.0575
 9227SOL    HW229123   6.319   4.543   8.867 -1.1915 -0.2287 -1.8695
 9228SOL     OW29124   5.426   6.776   8.517  0.0083  0.3192 -0.7571
 9228SOL    HW129125   5.488   6.842   8.546  0.0316 -0.4723  1.0949
 9228SOL    HW229126   5.471   6.730   8.446  0.6894  1.0932 -0.8418
 9229SOL     OW29127   0.835   5.086   7.640  0.0804  0.6212  0.1377
 9229SOL    HW129128   0.757   5.046   7.678 -0.2670 -0.2481 -1.4020
 9229SOL    HW229129   0.862   5.151   7.705 -1.2762  0.1838  1.2047
 9230SOL     OW29130   1.417   0.779   1.986  0.0928 -0.3369 -0.2418
 9230SOL    HW129131   1.389   0.710   2.047 -0.2697 -0.6012 -0.7032
 9230SOL    HW229132   1.489   0.740   1.937  1.3936  0.3772  1.0129
 9231SOL     OW29133   0.974   7.118   6.157 -1.0009 -0.3110  0.1079
 9231SOL    HW129134   0.985   7.057   6.084 -2.1066 -1.4650  0.8694
 9231SOL    HW229135   0.920   7.071   6.220 -3.5358  2.0733 -0.0666
 9232SOL     OW29136   6.619   3.305  11.893  0.2770  0.1946  1.1523
 9232SOL    HW129137   6.527   3.319  11.872  0.5503  1.5520  0.7791
 9232SOL    HW229138   6.662   3.292  11.809  0.7364  1.6732  1.1234
 9233SOL     OW29139   1.351   1.209  10.021 -0.0011  0.3234 -0.3253
 9233SOL    HW129140   1.359   1.297   9.986 -0.5953  0.1198 -0.9850
 9233SOL    HW229141   1.438   1.189  10.056  0.8015  0.3120 -2.2127
 9234SOL     OW29142   6.807   3.235   6.583  0.3073  0.0595  0.0644
 9234SOL    HW129143   6.883   3.213   6.636 -0.2340 -0.2725  0.7190
 9234SOL    HW229144   6.843   3.263   6.499  1.2285  1.8020  0.9912
 9235SOL     OW29145   7.740   6.269   7.306  0.1473  0.4714  0.1133
 9235SOL    HW129146   7.658   6.237   7.344  0.9706  0.3317  1.8389
 9235SOL    HW229147   7.716   6.351   7.262 -1.4677 -1.0493 -2.0451
 9236SOL     OW29148   6.083   5.637   0.909  0.5871 -0.5937 -0.7668
 9236SOL    HW129149   6.130   5.708   0.865 -0.0573  0.7296  0.5958
 9236SOL    HW229150   6.153   5.581   0.944  1.1623  0.4818 -0.1314
 9237SOL     OW29151   3.031   0.404   9.147 -1.1777  0.5118 -0.0422
 9237SOL    HW129152   2.986   0.336   9.198 -1.7014  1.0249  0.1844
 9237SOL    HW229153   3.074   0.356   9.076 -1.7858 -0.0218 -0.0590
 9238SOL     OW29154   3.617   1.212   9.085 -0.3548  0.5607  0.2769
 9238SOL    HW129155   3.680   1.159   9.037 -2.0316 -0.1857 -1.2139
 9238SOL    HW229156   3.565   1.148   9.134 -1.9659  0.8347 -1.0008
 9239SOL     OW29157   2.731   1.408  10.806  0.1877 -0.7352 -0.3532
 9239SOL    HW129158   2.788   1.404  10.730 -2.8433  0.4873 -2.9338
 9239SOL    HW229159   2.726   1.502  10.828 -0.0924 -0.9231  0.4410
 9240SOL     OW29160   2.209   3.926   8.515  0.1519  0.3711 -0.1597
 9240SOL    HW129161   2.190   4.003   8.461  2.0637  1.5887  0.8205
 9240SOL    HW229162   2.281   3.953   8.571  1.1629 -2.2833 -0.0651
 9241SOL     OW29163   0.871   7.062   6.968 -0.5709  0.0170 -0.5802
 9241SOL    HW129164   0.891   7.140   7.019 -0.5183  0.3686 -1.1238
 9241SOL    HW229165   0.779   7.071   6.943 -0.3794  0.2593 -1.2293
 9242SOL     OW29166   1.220   6.242   5.026  0.0839  0.2178  0.4985
 9242SOL    HW129167   1.197   6.295   5.102  0.2068 -0.2538  0.8717
 9242SOL    HW229168   1.296   6.287   4.988 -1.2631  1.6722 -0.6328
 9243SOL     OW29169   4.025   0.664   5.409 -0.8833  0.4698  0.1319
 9243SOL    HW129170   4.108   0.619   5.424  0.4026  1.9583 -1.9449
 9243SOL    HW229171   4.027   0.740   5.467 -1.0448  0.2201  0.4657
 9244SOL     OW29172   1.523   2.378   7.035 -0.1245 -0.1005  0.8035
 9244SOL    HW129173   1.576   2.414   6.964 -0.5526 -1.1902 -0.0936
 9244SOL    HW229174   1.503   2.453   7.090 -0.4769  0.9401 -0.6758
 9245SOL     OW29175   2.717   7.799  12.164 -0.3117 -0.4994 -0.0778
 9245SOL    HW129176   2.730   7.726  12.104 -0.3561  0.0105 -0.7153
 9245SOL    HW229177   2.678   7.868  12.111  0.2736  0.2019  0.3777
 9246SOL     OW29178   6.798   1.717   6.507 -0.5466 -0.0932  0.6207
 9246SOL    HW129179   6.768   1.627   6.494  0.3683 -0.4809  1.1050
 9246SOL    HW229180   6.718   1.768   6.515 -1.0803 -0.7585 -0.3537
 9247SOL     OW29181   5.838   5.345   6.853 -0.3908  0.3015 -0.0712
 9247SOL    HW129182   5.781   5.417   6.827 -0.4218  0.3953  0.2610
 9247SOL    HW229183   5.811   5.272   6.797 -0.0925  0.6507 -0.6875
 9248SOL     OW29184   1.358   1.209   4.906  0.1854 -0.0567  0.1778
 9248SOL    HW129185   1.413   1.137   4.937  0.6669  0.0411 -0.4277
 9248SOL    HW229186   1.277   1.167   4.877  0.4191 -0.3442 -0.0678
 9249SOL     OW29187   5.736   6.688   8.110  0.1319  0.3780  0.0894
 9249SOL    HW129188   5.742   6.604   8.155 -2.5364  0.3626  0.6019
 9249SOL    HW229189   5.718   6.665   8.019  0.9806  0.4151 -0.0953
 9250SOL     OW29190   4.259   1.408   7.894 -0.2915  0.4378 -0.1694
 9250SOL    HW129191   4.274   1.415   7.800 -1.2320 -1.4725 -0.5122
 9250SOL    HW229192   4.346   1.392   7.931 -0.0995 -0.3489 -0.9222
 9251SOL     OW29193   7.498   2.705   5.348  0.1953  0.6159 -0.2556
 9251SOL    HW129194   7.421   2.740   5.394 -1.1327  1.1721 -2.7410
 9251SOL    HW229195   7.549   2.782   5.326  0.5492  0.3948 -0.2145
 9252SOL     OW29196   0.056   3.407   0.248  0.0448  0.2119 -0.5126
 9252SOL    HW129197   0.097   3.494   0.252 -0.3510  0.4896 -1.8616
 9252SOL    HW229198  -0.033   3.421   0.280 -0.3641  0.5567 -1.7443
 9253SOL     OW29199   2.444   5.449  11.140  0.0764  0.3883  0.4040
 9253SOL    HW129200   2.440   5.365  11.095 -2.8701  0.8441 -0.3622
 9253SOL    HW229201   2.474   5.427  11.229  0.5265 -1.2709 -0.1269
 9254SOL     OW29202   5.274   7.593   7.494 -0.7238  0.0087 -0.4754
 9254SOL    HW129203   5.190   7.548   7.501 -0.5788 -0.1986 -0.0096
 9254SOL    HW229204   5.334   7.527   7.458 -0.7415  0.1317 -0.7315
 9255SOL     OW29205   4.950   6.684   3.282 -0.7344 -0.2516 -0.2474
 9255SOL    HW129206   5.037   6.688   3.322 -0.8245  1.2234 -0.1421
 9255SOL    HW229207   4.904   6.760   3.316 -1.1173  0.5887 -2.4653
 9256SOL     OW29208   6.109   7.255   2.000  0.4529 -0.4705  0.0951
 9256SOL    HW129209   6.028   7.301   1.978  0.6105 -0.0070  0.4628
 9256SOL    HW229210   6.105   7.244   2.095  1.6388  1.1910  0.3881
 9257SOL     OW29211   4.749   1.311   8.531 -0.0053 -0.0988  0.1090
 9257SOL    HW129212   4.691   1.387   8.533 -0.4126 -0.4158  0.8629
 9257SOL    HW229213   4.690   1.236   8.523  0.3435 -0.3906  0.2346
 9258SOL     OW29214   2.805   0.578   9.546  0.2829 -0.3533  0.5033
 9258SOL    HW129215   2.745   0.644   9.510 -0.5072 -0.7463  1.0544
 9258SOL    HW229216   2.782   0.574   9.639  1.9620  0.3084  0.9775
 9259SOL     OW29217   0.951   1.963   0.629  0.6797 -0.2063  0.0169
 9259SOL    HW129218   0.910   1.894   0.681 -2.5459 -0.1182 -2.0969
 9259SOL    HW229219   0.884   2.031   0.623  2.3677  1.4354 -1.0709
 9260SOL     OW29220   5.702   1.870   5.891  0.7018 -0.4821  1.0351
 9260SOL    HW129221   5.623   1.829   5.926  1.5484 -1.5978  1.6864
 9260SOL    HW229222   5.733   1.927   5.961  0.7977 -0.4961  1.0043
 9261SOL     OW29223   6.639   4.132   4.577 -0.4151  0.1273 -0.0299
 9261SOL    HW129224   6.640   4.038   4.561  0.4644  0.0396  0.4530
 9261SOL    HW229225   6.709   4.146   4.641 -0.1349  1.1802 -0.5391
 9262SOL     OW29226   7.307   7.605   1.669  0.4412 -0.0454 -0.7190
 9262SOL    HW129227   7.380   7.601   1.731  0.8313 -0.2433 -1.1769
 9262SOL    HW229228   7.279   7.514   1.659 -0.7945  0.1811  0.5107
 9263SOL     OW29229   7.161   1.961   9.402  0.1516 -0.1335  0.1347
 9263SOL    HW129230   7.164   2.055   9.380  0.5640 -0.0193  0.6572
 9263SOL    HW229231   7.068   1.941   9.411  0.0814  0.3734  0.6116
 9264SOL     OW29232   1.235   5.826   6.389  0.2822  0.1947  0.0107
 9264SOL    HW129233   1.259   5.918   6.380  0.3134  0.1819 -0.0395
 9264SOL    HW229234   1.262   5.786   6.306 -1.2853  0.4818 -0.6695
 9265SOL     OW29235   2.167   6.136   3.744  0.0053 -0.2406 -0.1801
 9265SOL    HW129236   2.127   6.212   3.702  2.1302  1.0533 -0.0298
 9265SOL    HW229237   2.261   6.149   3.731  0.4487 -2.8578 -0.1300
 9266SOL     OW29238   4.509   5.138   7.964 -0.1579 -0.3576  0.5294
 9266SOL    HW129239   4.481   5.056   7.925 -1.8723 -0.2060  1.3332
 9266SOL    HW229240   4.584   5.115   8.019  0.3395 -1.0919 -0.4421
 9267SOL     OW29241   5.189   1.227  10.675  0.2171  0.2682  0.1943
 9267SOL    HW129242   5.097   1.214  10.657  0.6846 -0.0287 -2.2089
 9267SOL    HW229243   5.205   1.319  10.656  0.4782  0.2603  0.3591
 9268SOL     OW29244   5.019   4.672   0.752  0.2042 -0.0006 -0.6626
 9268SOL    HW129245   4.980   4.703   0.670  0.6054 -1.3276 -1.3772
 9268SOL    HW229246   4.991   4.737   0.817 -3.2962 -0.8437 -1.0794
 9269SOL     OW29247   0.595   7.571  10.560  0.5088  0.4817  0.2199
 9269SOL    HW129248   0.653   7.601  10.630 -0.2088 -0.2095  1.1313
 9269SOL    HW229249   0.558   7.651  10.523  1.6186  0.8992 -0.0144
 9270SOL     OW29250   5.603   6.049   1.893  0.4189  0.0712 -0.1054
 9270SOL    HW129251   5.633   6.065   1.804  2.0951  0.5497  0.5159
 9270SOL    HW229252   5.598   5.953   1.900  2.4404 -0.0788 -0.0736
 9271SOL     OW29253   3.755   7.079   1.763  0.1919 -0.2525  0.0692
 9271SOL    HW129254   3.779   6.986   1.764 -1.4065 -0.7208 -0.8176
 9271SOL    HW229255   3.778   7.108   1.674 -1.3436 -0.4239 -0.4201
 9272SOL     OW29256   0.951   5.844   4.288  0.0723 -0.0660  0.5134
 9272SOL    HW129257   0.916   5.796   4.213 -0.3418 -1.2756  1.4317
 9272SOL    HW229258   1.043   5.820   4.291  0.4739  1.2329 -0.5033
 9273SOL     OW29259   5.215   1.363  12.331  0.3272  0.3974 -0.6883
 9273SOL    HW129260   5.279   1.427  12.361  0.7559 -0.2519 -0.1924
 9273SOL    HW229261   5.151   1.358  12.402  0.3536  0.1896 -0.6800
 9274SOL     OW29262   6.649   3.655   3.960 -0.0936 -0.3990 -0.3844
 9274SOL    HW129263   6.615   3.598   3.891 -0.1233  0.0505 -0.7452
 9274SOL    HW229264   6.744   3.654   3.949 -0.1590  0.7077 -1.2819
 9275SOL     OW29265   5.872   7.357   1.895 -0.0952  0.1736 -0.5916
 9275SOL    HW129266   5.868   7.435   1.839 -2.2531  1.0691  0.6917
 9275SOL    HW229267   5.825   7.383   1.975  1.9097 -1.4244  1.1967
 9276SOL     OW29268   5.850   2.679  11.506 -0.1274 -0.3144 -0.0466
 9276SOL    HW129269   5.847   2.585  11.528  0.8439 -0.0705  1.2684
 9276SOL    HW229270   5.886   2.720  11.585  3.5088  0.6839 -2.0221
 9277SOL     OW29271   4.103   5.120   2.159  0.1999  0.4593  0.4181
 9277SOL    HW129272   4.156   5.043   2.139 -0.6727  0.5493 -2.6784
 9277SOL    HW229273   4.149   5.162   2.232  1.6142 -2.0429  1.0869
 9278SOL     OW29274   5.724   6.020  10.694 -0.2278  0.2276 -0.2419
 9278SOL    HW129275   5.656   5.987  10.751  1.4083 -1.2954  0.9509
 9278SOL    HW229276   5.696   5.995  10.606 -2.3472  1.8300 -0.0923
 9279SOL     OW29277   7.292   3.716   7.525 -0.0255 -0.0858 -0.3685
 9279SOL    HW129278   7.337   3.660   7.588 -1.8259  0.8486  1.9236
 9279SOL    HW229279   7.213   3.744   7.571 -0.9335  1.5229 -2.7176
 9280SOL     OW29280   1.740   5.411   7.994 -0.2179  0.0241 -0.5515
 9280SOL    HW129281   1.795   5.388   8.068 -0.9879  0.3221  0.1368
 9280SOL    HW229282   1.801   5.439   7.926  0.5500 -1.0306 -0.3250
 9281SOL     OW29283   5.270   2.981   4.947  0.0757  0.0142  0.7036
 9281SOL    HW129284   5.322   2.901   4.939  0.4598  0.3282 -0.1664
 9281SOL    HW229285   5.260   3.011   4.856  0.5607  1.3370  1.0727
 9282SOL     OW29286   5.338   4.566   6.176 -0.1877  0.0817  0.3348
 9282SOL    HW129287   5.306   4.523   6.255  0.8842 -1.8053 -0.1997
 9282SOL    HW229288   5.328   4.660   6.194 -1.0635 -0.3274  2.2140
 9283SOL     OW29289   6.017   7.165   5.636 -0.4834  0.1241 -0.3702
 9283SOL    HW129290   5.940   7.189   5.687  0.0188  0.4870  0.2514
 9283SOL    HW229291   6.034   7.074   5.660 -0.8892 -0.0480 -0.7350
 9284SOL     OW29292   0.406   5.628   7.008  0.0843 -0.2115 -0.2339
 9284SOL    HW129293   0.373   5.540   7.024  1.7126 -0.9309 -0.5658
 9284SOL    HW229294   0.372   5.651   6.921 -0.6825 -0.3402  0.0294
 9285SOL     OW29295   1.289   7.021   5.372  0.5650  0.0923 -0.5388
 9285SOL    HW129296   1.218   6.978   5.420  0.3879  1.0870  0.1443
 9285SOL    HW229297   1.348   7.053   5.441  1.6616 -0.6713 -1.0925
 9286SOL     OW29298   4.864   6.719   3.672  0.2294 -0.1238 -0.4383
 9286SOL    HW129299   4.934   6.656   3.656 -1.6640 -2.1354 -1.2194
 9286SOL    HW229300   4.799   6.671   3.724 -2.1400  0.4777 -2.6437
 9287SOL     OW29301   0.949   0.783   2.682 -0.4097  0.3564 -0.2630
 9287SOL    HW129302   1.038   0.815   2.671 -0.7517  1.4136 -0.1008
 9287SOL    HW229303   0.904   0.810   2.602 -0.6384  0.0155 -0.2508
 9288SOL     OW29304   1.301   4.626  11.807 -0.0446 -0.3796  0.0818
 9288SOL    HW129305   1.331   4.633  11.717 -0.4174  3.1271  0.0968
 9288SOL    HW229306   1.210   4.595  11.800 -0.5418  1.2064 -0.9120
 9289SOL     OW29307   5.514   6.022   3.687 -0.0302 -0.0323  0.3501
 9289SOL    HW129308   5.428   6.025   3.728 -0.4659  2.6885 -0.5429
 9289SOL    HW229309   5.499   5.981   3.602 -1.2936  3.3857 -1.2638
 9290SOL     OW29310   7.967   5.752   7.199 -0.0188 -0.1308  0.2009
 9290SOL    HW129311   8.013   5.669   7.203 -0.2056 -0.3653 -1.7817
 9290SOL    HW229312   7.921   5.751   7.115  1.1110  2.5492 -0.5751
 9291SOL     OW29313   0.897   3.943   7.078  0.0227  0.2123 -0.3927
 9291SOL    HW129314   0.875   3.925   7.169  1.5101 -0.9609 -0.2149
 9291SOL    HW229315   0.912   4.037   7.076  1.1016  0.1098  0.8816
 9292SOL     OW29316   4.987   0.504   1.026 -0.5367 -0.0709 -0.3120
 9292SOL    HW129317   5.053   0.571   1.012 -1.7424  1.0788 -0.7621
 9292SOL    HW229318   4.965   0.474   0.937 -0.5604 -0.5036 -0.1607
 9293SOL     OW29319   2.915   5.759  12.220  0.5087 -0.2848  0.4092
 9293SOL    HW129320   2.824   5.776  12.199 -0.1557 -0.6504  2.6893
 9293SOL    HW229321   2.957   5.845  12.221  0.1541 -0.0963 -0.4512
 9294SOL     OW29322   7.608   6.234   3.174  0.1313 -0.4230  0.0168
 9294SOL    HW129323   7.569   6.222   3.087  0.9264 -1.2302 -0.2296
 9294SOL    HW229324   7.546   6.192   3.234  0.5409 -1.5739 -0.3588
 9295SOL     OW29325   3.518   7.676   7.031  0.0847 -0.0393  0.2330
 9295SOL    HW129326   3.589   7.712   6.978  0.0342 -0.3704 -0.0688
 9295SOL    HW229327   3.562   7.629   7.102  0.1920 -0.6647 -0.2291
 9296SOL     OW29328   7.315   4.964   0.574 -0.1650 -0.4290 -0.0267
 9296SOL    HW129329   7.319   4.915   0.492  0.5452  1.2276 -1.0334
 9296SOL    HW229330   7.396   5.016   0.575 -0.5060  0.1189  1.3785
 9297SOL     OW29331   3.034   6.597   4.146  0.2591 -0.2622 -0.2708
 9297SOL    HW129332   3.071   6.539   4.212  2.4566 -1.4110 -2.3545
 9297SOL    HW229333   2.951   6.556   4.121  1.3985 -2.1673 -1.1309
 9298SOL     OW29334   5.015   3.887   2.614  0.0407  0.6172 -0.2178
 9298SOL    HW129335   5.004   3.910   2.706  1.2084  0.5646 -0.0400
 9298SOL    HW229336   4.931   3.906   2.573 -0.3729  0.9899  0.7893
 9299SOL     OW29337   4.295   4.514   0.688 -0.0002  0.1701 -0.2552
 9299SOL    HW129338   4.256   4.600   0.674  0.4210  0.3599 -0.2627
 9299SOL    HW229339   4.312   4.510   0.782 -2.1240 -0.8067  0.1605
 9300SOL     OW29340   3.895   7.287   1.894  0.0834 -0.4389  0.4217
 9300SOL    HW129341   3.902   7.331   1.810 -0.7147 -1.3966 -0.1648
 9300SOL    HW229342   3.876   7.196   1.872 -1.5724 -0.4233  1.6405
 9301SOL     OW29343   2.476   5.236   9.074  0.3209 -0.4251  0.0637
 9301SOL    HW129344   2.412   5.284   9.127  0.4925  0.2275 -0.3089
 9301SOL    HW229345   2.430   5.216   8.993  0.6757  0.3387 -0.3421
 9302SOL     OW29346   1.134   6.173   7.587 -0.6027  0.2027 -0.3863
 9302SOL    HW129347   1.138   6.083   7.554 -2.2011  0.6944 -2.0641
 9302SOL    HW229348   1.225   6.203   7.586 -0.0114 -1.4338  0.3997
 9303SOL     OW29349   2.137   7.157   6.958  0.0224  0.2517  0.0919
 9303SOL    HW129350   2.059   7.175   7.011  1.9962  1.3790  2.8998
 9303SOL    HW229351   2.165   7.244   6.927 -1.1353 -0.3888 -3.1154
 9304SOL     OW29352   5.721   3.749  11.657  0.0425  0.2095  0.2690
 9304SOL    HW129353   5.784   3.819  11.641 -1.8453  2.2383  1.1371
 9304SOL    HW229354   5.660   3.755  11.584 -0.5414 -0.0110  0.7308
 9305SOL     OW29355   1.845   1.584   0.464 -0.1044 -0.3427  0.0091
 9305SOL    HW129356   1.887   1.503   0.434 -0.2058 -0.4907  0.2627
 9305SOL    HW229357   1.759   1.556   0.496  0.3707 -0.3468  1.3512
 9306SOL     OW29358   7.774   1.237   2.617  0.7298  0.3651 -0.8784
 9306SOL    HW129359   7.803   1.291   2.543 -0.2704  0.3233 -1.3235
 9306SOL    HW229360   7.679   1.241   2.613  0.6444  0.7998  0.7495
 9307SOL     OW29361   6.250   5.033   7.630  0.0942  0.8435  0.1696
 9307SOL    HW129362   6.240   5.085   7.710  0.3709  1.2447 -0.0542
 9307SOL    HW229363   6.237   4.942   7.659 -1.7407  1.1133  0.3281
 9308SOL     OW29364   3.466   0.128   1.670 -0.2068  0.0874  0.1160
 9308SOL    HW129365   3.408   0.178   1.728  0.6224  0.3362  0.7585
 9308SOL    HW229366   3.435   0.148   1.582 -0.7882  0.5929  0.4256
 9309SOL     OW29367   4.401   5.262   5.276 -0.6162  0.2981 -0.6749
 9309SOL    HW129368   4.496   5.268   5.272 -0.6546  1.6009 -0.0999
 9309SOL    HW229369   4.383   5.173   5.307  0.4500  0.5034  0.5841
 9310SOL     OW29370   3.387   2.283   1.685  0.3041 -0.0234  0.2904
 9310SOL    HW129371   3.347   2.368   1.665  0.6807  0.1688  0.3353
 9310SOL    HW229372   3.345   2.255   1.767  0.1980  0.1354  0.2908
 9311SOL     OW29373   4.393   7.399   8.425  0.3621  0.1296  0.4271
 9311SOL    HW129374   4.304   7.385   8.391  0.4962 -1.5997  0.6827
 9311SOL    HW229375   4.386   7.476   8.481 -0.5516  1.1420 -1.0079
 9312SOL     OW29376   2.341   0.181   0.293 -0.3152 -0.4025  0.2493
 9312SOL    HW129377   2.336   0.139   0.207 -0.9680 -0.4257  0.2965
 9312SOL    HW229378   2.392   0.121   0.346  1.9302  0.5412 -0.6629
 9313SOL     OW29379   7.135   7.894   8.217 -0.1271  0.8448 -0.0380
 9313SOL    HW129380   7.206   7.876   8.155 -1.7317 -1.3032 -1.3933
 9313SOL    HW229381   7.180   7.918   8.298  2.3527 -2.9230 -0.0186
 9314SOL     OW29382   5.290   1.630   1.743 -0.0529 -0.0242 -0.3291
 9314SOL    HW129383   5.375   1.647   1.705 -0.1759  1.1781 -0.0938
 9314SOL    HW229384   5.305   1.629   1.838  0.0035 -1.6167 -0.3195
 9315SOL     OW29385   6.466   5.203   5.081 -0.0934 -0.4209 -0.2361
 9315SOL    HW129386   6.543   5.212   5.137 -0.5507 -0.8381  0.4834
 9315SOL    HW229387   6.394   5.238   5.135 -0.3632  0.2212 -1.0007
 9316SOL     OW29388   5.218   2.857   6.897  0.3396 -0.1206 -0.4960
 9316SOL    HW129389   5.238   2.823   6.984  3.1182  2.0608 -0.1139
 9316SOL    HW229390   5.268   2.802   6.837  0.6296  0.0568 -0.4182
 9317SOL     OW29391   2.607   7.123   9.650 -0.0020 -0.0361  0.5731
 9317SOL    HW129392   2.683   7.101   9.703 -0.3526  0.8344  1.4595
 9317SOL    HW229393   2.643   7.156   9.568  0.6379  1.5481  1.4433
 9318SOL     OW29394   0.571   2.503   1.713 -0.5946 -0.1280  0.1551
 9318SOL    HW129395   0.552   2.433   1.775  0.3598 -0.7764 -0.2696
 9318SOL    HW229396   0.665   2.519   1.722 -0.7192  0.7874 -0.0763
 9319SOL     OW29397   3.450   0.504  11.213 -0.3480  0.6649 -1.0751
 9319SOL    HW129398   3.522   0.563  11.238 -0.0697  0.2875 -0.9730
 9319SOL    HW229399   3.392   0.558  11.160 -0.4241  1.2043 -0.4574
 9320SOL     OW29400   5.484   1.567  10.541  0.6246 -0.0917 -0.2718
 9320SOL    HW129401   5.502   1.498  10.477 -1.7646  0.7317 -1.9848
 9320SOL    HW229402   5.519   1.646  10.501 -1.1711  0.4871 -0.7809
 9321SOL     OW29403   6.239   7.833   1.764  0.4199  0.4450 -0.3204
 9321SOL    HW129404   6.325   7.872   1.780 -0.0930  1.5311 -0.1228
 9321SOL    HW229405   6.227   7.839   1.669 -0.8547  3.4918 -0.0663
 9322SOL     OW29406   5.504   4.783   8.603  0.6854  0.1650 -0.4696
 9322SOL    HW129407   5.599   4.774   8.607  0.6388  0.0124  0.2412
 9322SOL    HW229408   5.489   4.831   8.521  1.2710 -1.1825 -1.4095
 9323SOL     OW29409   7.913   4.227   6.479  0.2456  0.1370 -0.0533
 9323SOL    HW129410   7.874   4.312   6.463  1.0238  0.5818  0.3645
 9323SOL    HW229411   8.004   4.237   6.451  0.7182 -0.1172  1.3313
 9324SOL     OW29412   4.397   7.251   1.497 -0.4424 -0.6154 -0.3191
 9324SOL    HW129413   4.338   7.182   1.467 -0.2834 -1.0919  0.4443
 9324SOL    HW229414   4.475   7.242   1.441  1.1506 -3.4829  2.0963
 9325SOL     OW29415   0.796   4.533   6.150  0.4740 -0.5751 -0.3795
 9325SOL    HW129416   0.718   4.521   6.097 -1.1844 -1.7587  2.1475
 9325SOL    HW229417   0.863   4.479   6.106 -0.3684 -0.3647 -2.0087
 9326SOL     OW29418   7.307   4.329   4.196 -0.5751 -0.2464  0.4345
 9326SOL    HW129419   7.239   4.393   4.174 -0.9950 -1.1704 -1.1329
 9326SOL    HW229420   7.308   4.268   4.122  1.1366 -0.9618  0.9846
 9327SOL     OW29421   6.674   6.664   9.164 -0.1943  0.0059 -0.5116
 9327SOL    HW129422   6.632   6.749   9.148  2.0774  0.9877 -1.6996
 9327SOL    HW229423   6.613   6.600   9.126 -0.4503  1.4032 -2.6559
 9328SOL     OW29424   5.661   0.044   1.133 -0.0557 -0.0735  0.0345
 9328SOL    HW129425   5.673   0.122   1.079 -1.0438  0.0665  0.0048
 9328SOL    HW229426   5.620   0.076   1.213  1.5037 -0.2591  0.9577
 9329SOL     OW29427   4.844   6.112   3.161 -0.0756  0.8205  0.2782
 9329SOL    HW129428   4.843   6.145   3.071  1.1757 -0.0063 -0.0639
 9329SOL    HW229429   4.840   6.190   3.216 -1.0144  1.3243 -0.4889
 9330SOL     OW29430   4.749   3.713   7.895  0.2510  0.7525 -0.2056
 9330SOL    HW129431   4.823   3.773   7.898 -0.0070  1.1163 -0.9635
 9330SOL    HW229432   4.775   3.645   7.833  0.5015  0.1208  0.5717
 9331SOL     OW29433   5.113   5.295   2.912  0.0419  0.0303 -0.4615
 9331SOL    HW129434   5.143   5.209   2.883 -1.4499 -0.5201 -0.4498
 9331SOL    HW229435   5.018   5.289   2.913 -0.0994  0.6109  2.7285
 9332SOL     OW29436   0.869   3.176  11.252  0.1729  0.0439  0.4078
 9332SOL    HW129437   0.885   3.270  11.262 -0.5885  0.4051 -1.3702
 9332SOL    HW229438   0.924   3.150  11.178 -0.9051 -0.5159 -0.2289
 9333SOL     OW29439   1.023   6.546   1.680 -0.1036 -0.6499 -0.8773
 9333SOL    HW129440   1.006   6.454   1.703 -0.5917  0.1829  2.7082
 9333SOL    HW229441   1.115   6.559   1.701 -0.2343 -0.1169 -0.6415
 9334SOL     OW29442   6.745   5.238   0.042  0.1547  0.3092 -0.4829
 9334SOL    HW129443   6.692   5.302   0.089  0.0579 -0.6296  0.7260
 9334SOL    HW229444   6.814   5.289   0.001  0.7474  1.0935  1.3857
 9335SOL     OW29445   1.896   1.061  10.311  0.1778 -0.1509  0.2977
 9335SOL    HW129446   1.902   1.079  10.217  0.4509 -1.4769  0.0386
 9335SOL    HW229447   1.807   1.028  10.324  0.7205 -1.7702  0.1397
 9336SOL     OW29448   1.995   7.272   4.320  0.5720 -0.5788  0.0728
 9336SOL    HW129449   1.928   7.259   4.387 -0.5727 -0.1928 -0.9593
 9336SOL    HW229450   1.988   7.194   4.264  0.2912 -0.0867 -0.5951
 9337SOL     OW29451   0.704   0.459   6.140 -0.5778 -0.0627 -0.0122
 9337SOL    HW129452   0.673   0.495   6.057  0.8584 -0.4441 -0.7385
 9337SOL    HW229453   0.672   0.369   6.141  0.2555 -0.3737 -0.6369
 9338SOL     OW29454   4.654   0.917   2.309  0.2313  1.2808 -0.3939
 9338SOL    HW129455   4.611   0.866   2.240 -1.1740  0.8987  0.7066
 9338SOL    HW229456   4.685   0.996   2.265 -0.7454  1.1006 -1.4556
 9339SOL     OW29457   4.897   3.966  10.785  0.2452  0.5797 -0.6003
 9339SOL    HW129458   4.978   3.916  10.792 -0.0444  0.1266 -0.4675
 9339SOL    HW229459   4.842   3.916  10.724  0.0680  0.8851 -0.6970
 9340SOL     OW29460   1.331   7.091   0.309 -0.4460 -0.2418 -0.9144
 9340SOL    HW129461   1.315   7.078   0.402 -0.2327  0.5509 -0.7628
 9340SOL    HW229462   1.419   7.056   0.294 -0.2340  0.1892 -0.6895
 9341SOL     OW29463   4.589   4.489   8.202  0.0937  0.2813  0.3422
 9341SOL    HW129464   4.646   4.467   8.276  1.3887 -2.4466 -1.3130
 9341SOL    HW229465   4.528   4.416   8.196  0.8381 -0.2241 -1.9958
 9342SOL     OW29466   6.514   1.728   2.350 -0.0883 -0.1295  0.1271
 9342SOL    HW129467   6.576   1.657   2.359  0.0194  0.1603  2.0052
 9342SOL    HW229468   6.548   1.781   2.278  1.7314 -0.0952  0.9685
 9343SOL     OW29469   3.123   2.235   2.283  0.1799  0.0750  0.0306
 9343SOL    HW129470   3.030   2.225   2.262 -0.2741  1.2548  1.2920
 9343SOL    HW229471   3.154   2.147   2.301 -0.9140 -0.2484  0.4040
 9344SOL     OW29472   0.313   3.395   8.069  0.1036  0.4828 -0.1252
 9344SOL    HW129473   0.332   3.386   7.976 -2.0861 -0.4667 -0.5433
 9344SOL    HW229474   0.337   3.310   8.107 -0.1387  0.4448 -0.0537
 9345SOL     OW29475   4.455   5.974   4.978  0.2679  0.7090 -0.0872
 9345SOL    HW129476   4.460   5.879   4.977  0.9738  0.7221 -1.8680
 9345SOL    HW229477   4.370   5.994   4.938  0.7937  0.8178 -1.1869
 9346SOL     OW29478   7.880   5.576   3.354 -0.0273  0.4417  0.3671
 9346SOL    HW129479   7.858   5.652   3.407 -0.4107  0.4375  0.2223
 9346SOL    HW229480   7.848   5.598   3.266 -0.0106  0.1773  0.2930
 9347SOL     OW29481   3.899   5.272   2.065 -0.3580  0.5443  0.5207
 9347SOL    HW129482   3.973   5.223   2.102 -1.6178  0.0920  2.6179
 9347SOL    HW229483   3.927   5.294   1.976  0.7296 -2.9925 -0.1598
 9348SOL     OW29484   1.014   0.710   7.622  0.1143 -0.1346  0.2846
 9348SOL    HW129485   0.976   0.730   7.707  0.3024  0.6064  0.2089
 9348SOL    HW229486   0.943   0.722   7.560 -0.0223 -0.6732  0.3342
 9349SOL     OW29487   6.429   7.234   5.279  0.4639  0.4953  0.2969
 9349SOL    HW129488   6.446   7.172   5.350 -1.2137 -3.6998 -2.5275
 9349SOL    HW229489   6.337   7.221   5.257  0.5317  2.6936 -1.6937
 9350SOL     OW29490   1.462   0.448   8.403 -0.1324  0.2903  0.2125
 9350SOL    HW129491   1.394   0.442   8.470  0.3656 -3.8049  0.6137
 9350SOL    HW229492   1.529   0.505   8.442 -1.1118  0.3380  1.9508
 9351SOL     OW29493   6.020   1.759   9.572  0.3058 -0.0720 -0.4923
 9351SOL    HW129494   6.029   1.833   9.511 -1.2661  0.2095 -0.4064
 9351SOL    HW229495   5.994   1.685   9.516 -1.0016  0.1538 -0.2181
 9352SOL     OW29496   7.898   2.295   5.962 -0.1452 -0.5576 -0.4736
 9352SOL    HW129497   7.829   2.356   5.936  0.0920  0.8793  1.9436
 9352SOL    HW229498   7.910   2.311   6.056  1.3714 -2.9303 -0.1718
 9353SOL     OW29499   0.611   0.915   3.555 -0.5370  0.0395  0.0508
 9353SOL    HW129500   0.589   0.991   3.610 -0.2477 -0.5923  1.0584
 9353SOL    HW229501   0.528   0.873   3.538 -0.6269  0.2263  0.0227
 9354SOL     OW29502   0.167   7.955   3.355  0.9622 -0.0644  0.1717
 9354SOL    HW129503   0.178   7.990   3.443  0.5461 -0.0985  0.2398
 9354SOL    HW229504   0.213   8.017   3.298 -1.3751  1.7220  0.0666
 9355SOL     OW29505   7.052   0.618  11.545 -0.0808 -0.0433  0.2650
 9355SOL    HW129506   6.994   0.560  11.593  1.3903 -0.8712  1.1247
 9355SOL    HW229507   6.999   0.695  11.526 -1.1512 -0.3181  1.9236
 9356SOL     OW29508   2.473   7.967   3.285  0.0467  0.1427 -0.1091
 9356SOL    HW129509   2.471   7.918   3.203  1.5145  1.5870 -1.0747
 9356SOL    HW229510   2.392   8.018   3.284 -1.0952 -1.5616  0.5214
 9357SOL     OW29511   1.604   2.518  10.406  0.0395  0.4457 -0.3019
 9357SOL    HW129512   1.610   2.588  10.341  2.3944 -0.1118 -0.7759
 9357SOL    HW229513   1.543   2.455  10.367  0.4136  0.7295 -1.3935
 9358SOL     OW29514   0.549   5.355   0.858  0.0431 -0.2012 -0.2202
 9358SOL    HW129515   0.563   5.274   0.905  1.2227 -0.5210 -1.0859
 9358SOL    HW229516   0.468   5.340   0.808  0.1284 -0.7498 -0.1968
 9359SOL     OW29517   0.280   1.308  11.109 -0.7256 -0.6234  0.5789
 9359SOL    HW129518   0.306   1.300  11.017  0.6729 -1.4047  1.0188
 9359SOL    HW229519   0.248   1.398  11.117  1.3167  0.2224 -0.1458
 9360SOL     OW29520   6.524   4.033   5.320 -0.3659 -0.1114 -0.4421
 9360SOL    HW129521   6.517   4.058   5.412  0.5153 -2.0095  0.1891
 9360SOL    HW229522   6.574   3.952   5.321 -2.2532 -1.4038 -2.4086
 9361SOL     OW29523   1.366   6.618   7.738 -0.6600 -0.1256  0.3550
 9361SOL    HW129524   1.311   6.549   7.702 -0.1190  0.4687 -1.7204
 9361SOL    HW229525   1.337   6.698   7.694  2.1489  0.1282 -1.2874
 9362SOL     OW29526   5.986   4.658   8.432 -0.4101  0.8572 -0.4176
 9362SOL    HW129527   5.979   4.621   8.344 -1.1277  0.2170 -0.0998
 9362SOL    HW229528   6.031   4.590   8.482 -0.9900  0.7620 -0.0273
 9363SOL     OW29529   2.484   7.758   9.129 -0.6406  0.4905  0.4091
 9363SOL    HW129530   2.415   7.692   9.125 -1.6553  1.5579 -0.2244
 9363SOL    HW229531   2.560   7.716   9.090 -1.2698 -0.3062  0.0308
 9364SOL     OW29532   3.490   4.096   3.369 -0.0659 -0.0553  0.3652
 9364SOL    HW129533   3.509   4.032   3.301 -0.9950  0.7841 -0.7242
 9364SOL    HW229534   3.463   4.175   3.321 -1.9887  0.1626  1.6999
 9365SOL     OW29535   7.895   1.638   7.597  0.5853 -0.0551  0.0319
 9365SOL    HW129536   7.803   1.642   7.571  0.5422 -1.4123 -0.1326
 9365SOL    HW229537   7.943   1.642   7.514  0.4870 -3.2759 -0.3092
 9366SOL     OW29538   0.550   1.541   5.407 -0.4305 -0.0166 -0.0955
 9366SOL    HW129539   0.507   1.579   5.330 -0.4191  0.3108  0.0584
 9366SOL    HW229540   0.600   1.468   5.372 -1.5106 -0.7184 -0.2039
 9367SOL     OW29541   2.721   3.417   7.330 -0.3233 -0.3388  0.1156
 9367SOL    HW129542   2.631   3.403   7.362 -1.7911  2.6701 -2.2160
 9367SOL    HW229543   2.713   3.417   7.235  1.5916  2.6459 -0.1725
 9368SOL     OW29544   6.256   0.370   3.032  0.5829  0.0181 -0.2372
 9368SOL    HW129545   6.340   0.337   3.001  1.3291  2.0069 -0.4942
 9368SOL    HW229546   6.197   0.361   2.957  1.2018  0.7363 -0.8192
 9369SOL     OW29547   3.633   3.150   2.333 -0.5585  0.0908  0.9935
 9369SOL    HW129548   3.614   3.238   2.300 -1.7357 -0.4249  0.2544
 9369SOL    HW229549   3.626   3.158   2.429  0.4347  1.0326  1.0047
 9370SOL     OW29550   7.593   0.766   4.671  0.3537 -0.2692 -0.1880
 9370SOL    HW129551   7.637   0.850   4.682 -1.2580  0.5846  0.0480
 9370SOL    HW229552   7.551   0.771   4.585 -1.6019  0.1171  0.7166
 9371SOL     OW29553   1.797   6.029  11.910 -0.1404  0.8537 -0.0683
 9371SOL    HW129554   1.762   6.115  11.888  0.2957  1.3150  0.9901
 9371SOL    HW229555   1.860   6.011  11.840  0.7926  2.0366  0.4195
 9372SOL     OW29556   4.633   5.875  10.922 -0.0035  0.0174 -0.1966
 9372SOL    HW129557   4.642   5.793  10.874 -1.6077 -0.1049 -0.3442
 9372SOL    HW229558   4.589   5.851  11.004 -0.0176  0.6497 -0.0117
 9373SOL     OW29559   2.209   2.691   2.728  0.0684  0.5174 -0.4724
 9373SOL    HW129560   2.156   2.757   2.775 -0.0852  0.4626 -0.5679
 9373SOL    HW229561   2.275   2.664   2.792 -0.8336 -0.3877  0.1161
 9374SOL     OW29562   3.014   1.125   5.226 -0.1453  0.2757 -0.2366
 9374SOL    HW129563   2.996   1.061   5.157  0.1620 -0.2689  0.1724
 9374SOL    HW229564   2.983   1.208   5.191  1.4893  0.3296 -1.7150
 9375SOL     OW29565   2.260   6.281   5.642  0.4437 -0.4085  0.0284
 9375SOL    HW129566   2.303   6.326   5.714  0.4727  0.5874 -0.5900
 9375SOL    HW229567   2.174   6.257   5.677  0.7063 -0.5272  0.5979
 9376SOL     OW29568   1.471   1.792   2.173  0.7809  0.1373  0.2294
 9376SOL    HW129569   1.530   1.795   2.249 -1.4943 -1.2590  2.2340
 9376SOL    HW229570   1.488   1.707   2.133  0.1371 -0.3228  0.8863
 9377SOL     OW29571   1.173   0.029   1.462 -0.1452  0.1161  0.0509
 9377SOL    HW129572   1.092   0.021   1.411  0.5866  0.1952 -1.1697
 9377SOL    HW229573   1.216  -0.056   1.451  1.1973  0.9302 -1.6005
 9378SOL     OW29574   4.580   7.026   6.499 -0.3936 -0.3310 -0.4227
 9378SOL    HW129575   4.640   6.954   6.482 -0.5300 -0.1789 -1.6081
 9378SOL    HW229576   4.500   7.003   6.451 -1.0135 -0.1447  0.4793
 9379SOL     OW29577   5.629   6.639   3.928  0.0108  0.3754 -0.1889
 9379SOL    HW129578   5.700   6.682   3.974 -0.0484  0.8405 -0.5251
 9379SOL    HW229579   5.555   6.699   3.936 -1.0067 -1.0340  1.9967
 9380SOL     OW29580   6.226   1.293  10.587 -0.0587 -0.3618 -0.0442
 9380SOL    HW129581   6.170   1.244  10.526  0.2160 -0.1735 -0.4541
 9380SOL    HW229582   6.304   1.313  10.536  1.3565 -2.4916  1.1242
 9381SOL     OW29583   4.833   5.190   8.058 -0.6719  0.2327  0.3539
 9381SOL    HW129584   4.833   5.125   7.988 -0.2558 -0.6106  1.1299
 9381SOL    HW229585   4.860   5.142   8.136 -3.5615  0.5763  1.6724
 9382SOL     OW29586   7.102   3.195   2.379  0.5285 -0.0806  0.2908
 9382SOL    HW129587   7.197   3.211   2.384  0.9454 -1.5711 -1.6192
 9382SOL    HW229588   7.067   3.236   2.457  2.7705  0.4669  1.0920
 9383SOL     OW29589   6.194   6.582   2.309 -0.7535  0.5073  0.0890
 9383SOL    HW129590   6.184   6.596   2.403 -0.7487  2.8774 -0.2053
 9383SOL    HW229591   6.178   6.668   2.270 -1.7755 -0.6245 -2.1788
 9384SOL     OW29592   2.183   5.713   0.599  0.0883 -0.5213 -0.4934
 9384SOL    HW129593   2.120   5.785   0.603  0.2549 -0.3030 -1.5794
 9384SOL    HW229594   2.218   5.707   0.688 -2.0269 -1.1752  0.3662
 9385SOL     OW29595   1.654   6.381   0.531  0.3778 -0.1830  0.0419
 9385SOL    HW129596   1.711   6.348   0.600  0.5515 -2.3656 -1.0513
 9385SOL    HW229597   1.711   6.391   0.455 -0.1317  0.5257 -0.2634
 9386SOL     OW29598   4.722   3.358   4.310 -0.1074 -0.2211  0.1253
 9386SOL    HW129599   4.767   3.442   4.314 -0.2786 -0.0604 -1.0401
 9386SOL    HW229600   4.778   3.299   4.361  2.7893 -0.6185 -3.1644
 9387SOL     OW29601   0.408   7.753   7.049  0.5032  0.0927  0.7279
 9387SOL    HW129602   0.362   7.699   6.984 -1.0693  2.0035  0.1829
 9387SOL    HW229603   0.421   7.694   7.124 -0.2290 -1.3241 -0.2059
 9388SOL     OW29604   6.975   5.352   0.240  0.1805  0.2135  0.0097
 9388SOL    HW129605   7.047   5.413   0.256 -0.2902  0.8748 -0.3443
 9388SOL    HW229606   6.961   5.357   0.145  2.8483 -3.5251 -0.7934
 9389SOL     OW29607   0.150   0.384   3.678  0.3433 -0.4905 -0.4725
 9389SOL    HW129608   0.109   0.445   3.739 -0.5218  1.4218 -2.7933
 9389SOL    HW229609   0.191   0.318   3.734 -3.1540 -0.7963  2.0996
 9390SOL     OW29610   5.439   1.442   1.920 -0.2356  0.0508 -0.2071
 9390SOL    HW129611   5.527   1.452   1.886  0.8668 -2.9066  1.4503
 9390SOL    HW229612   5.399   1.374   1.865 -0.8716  0.1306  0.1395
 9391SOL     OW29613   2.763   1.368   4.832 -0.0281 -0.4670  0.1420
 9391SOL    HW129614   2.787   1.340   4.744 -1.0581 -2.2273  0.3574
 9391SOL    HW229615   2.709   1.296   4.866 -2.1696  1.4656  1.1173
 9392SOL     OW29616   4.989   1.959   2.434  0.6545 -0.2280  1.2386
 9392SOL    HW129617   4.991   1.867   2.459  0.3508 -1.1147 -1.6548
 9392SOL    HW229618   5.043   1.964   2.355 -1.0489  1.6460  0.0988
 9393SOL     OW29619   4.693   5.071   1.721 -0.0581 -0.1063 -0.2443
 9393SOL    HW129620   4.662   5.158   1.697  1.0414 -0.0607 -1.6613
 9393SOL    HW229621   4.773   5.058   1.668  0.3971 -1.5450  0.7168
 9394SOL     OW29622   5.937   4.826  12.229 -0.5647 -0.1420 -0.5489
 9394SOL    HW129623   6.014   4.778  12.258 -0.5201  0.3221  0.1441
 9394SOL    HW229624   5.881   4.760  12.188  0.7076 -0.2679 -2.1469
 9395SOL     OW29625   2.925   7.386   8.972  0.3492  0.1190  0.2067
 9395SOL    HW129626   2.882   7.367   9.056  1.2609  0.5199  0.7884
 9395SOL    HW229627   2.985   7.312   8.959  0.4572  0.2280  0.0839
 9396SOL     OW29628   5.516   6.383  10.853 -0.3112 -0.0880  0.0838
 9396SOL    HW129629   5.602   6.390  10.811 -1.6641 -1.6979 -3.3216
 9396SOL    HW229630   5.525   6.308  10.912  0.5320 -0.4677 -0.4998
 9397SOL     OW29631   7.244   4.732   5.307  0.3240 -0.4184 -0.6230
 9397SOL    HW129632   7.266   4.644   5.277  0.0350 -0.6948 -0.0316
 9397SOL    HW229633   7.320   4.785   5.283 -0.1948 -0.4521 -2.5321
 9398SOL     OW29634   2.637   3.458   0.516  0.0234 -0.3577  0.2138
 9398SOL    HW129635   2.678   3.527   0.568 -0.1290  0.0408 -0.1883
 9398SOL    HW229636   2.602   3.503   0.439 -0.2087 -0.8599  0.0182
 9399SOL     OW29637   2.173   5.175   5.828 -0.1224  0.3770  0.0622
 9399SOL    HW129638   2.161   5.234   5.903 -0.0122  0.9280 -0.3459
 9399SOL    HW229639   2.267   5.154   5.829  0.1917  1.6195 -0.8111
 9400SOL     OW29640   4.569   4.130   7.653  0.2897 -0.3563  0.6643
 9400SOL    HW129641   4.655   4.089   7.664  0.4153 -0.5051 -0.6952
 9400SOL    HW229642   4.557   4.136   7.558 -0.9211  0.2648  0.8333
 9401SOL     OW29643   5.857   1.667   2.660 -1.1484 -0.0967  0.0186
 9401SOL    HW129644   5.937   1.620   2.681 -0.2034  0.5818 -1.8172
 9401SOL    HW229645   5.845   1.729   2.732 -0.4253 -0.6959  0.6571
 9402SOL     OW29646   0.382   4.668   1.669  0.2278 -1.1861  0.3479
 9402SOL    HW129647   0.469   4.706   1.661  0.5607 -2.0114 -0.0071
 9402SOL    HW229648   0.372   4.652   1.763 -0.6745  1.4792  0.7980
 9403SOL     OW29649   0.102   6.734   5.790 -0.1277  0.2559  0.7789
 9403SOL    HW129650   0.057   6.816   5.810  0.3740  0.8392 -0.4057
 9403SOL    HW229651   0.036   6.682   5.743  0.8281  1.8512 -2.6936
 9404SOL     OW29652   1.724   0.401   1.583  0.0406  0.0714  0.2529
 9404SOL    HW129653   1.745   0.495   1.584 -1.6273  0.4962  2.0830
 9404SOL    HW229654   1.742   0.372   1.672 -0.2441 -1.1636 -0.0811
 9405SOL     OW29655   6.498   2.211   8.325 -0.2609 -1.1369  0.4491
 9405SOL    HW129656   6.485   2.305   8.335 -0.7785 -1.3849  3.0660
 9405SOL    HW229657   6.438   2.185   8.255 -0.1311  0.4624 -0.2759
 9406SOL     OW29658   3.529   1.719  11.626 -0.3331  0.3663 -0.0608
 9406SOL    HW129659   3.445   1.679  11.647 -0.8598  1.1545 -0.6072
 9406SOL    HW229660   3.533   1.797  11.682 -0.5620  1.0375 -0.9507
 9407SOL     OW29661   4.378   3.518   0.870  0.6302  0.1152 -0.5326
 9407SOL    HW129662   4.337   3.432   0.865 -2.3129  1.3301  0.1654
 9407SOL    HW229663   4.345   3.555   0.952  0.7152  2.3843 -1.4450
 9408SOL     OW29664   1.751   6.121   6.954  0.3877 -0.1501  0.5740
 9408SOL    HW129665   1.694   6.178   7.005 -0.5654 -1.7324  1.3645
 9408SOL    HW229666   1.710   6.034   6.960  0.8228 -0.6197 -2.0119
 9409SOL     OW29667   4.737   6.639   8.975  0.1818 -0.1386  0.0869
 9409SOL    HW129668   4.688   6.713   9.011  1.3285  0.4497  0.4878
 9409SOL    HW229669   4.780   6.600   9.051 -0.8348 -1.5523 -0.0440
 9410SOL     OW29670   1.484   3.005   1.777 -0.2923  1.2516 -0.1885
 9410SOL    HW129671   1.408   2.948   1.768  1.1487 -0.5372 -2.2235
 9410SOL    HW229672   1.498   3.012   1.871 -2.2854  0.7050  0.1851
 9411SOL     OW29673   1.295   5.650   6.178 -0.0097 -0.2479 -0.3731
 9411SOL    HW129674   1.355   5.576   6.193  0.2937  0.4650  2.2473
 9411SOL    HW229675   1.273   5.643   6.085  2.3666 -1.8616 -0.9119
 9412SOL     OW29676   0.629   1.029   0.370  0.4765  0.6096 -0.0946
 9412SOL    HW129677   0.696   1.077   0.420 -0.0625  0.8539  0.4121
 9412SOL    HW229678   0.572   1.098   0.335 -0.3043  0.3489  0.6331
 9413SOL     OW29679   1.335   0.716  10.176  0.0960 -0.3528  0.1042
 9413SOL    HW129680   1.301   0.759  10.255 -1.3670 -2.6415  0.8080
 9413SOL    HW229681   1.423   0.687  10.199 -0.2990 -0.9439  0.8973
 9414SOL     OW29682   6.714   6.102   4.671  0.1467 -0.1306 -0.3112
 9414SOL    HW129683   6.729   6.140   4.758  1.4719 -0.3631 -0.4150
 9414SOL    HW229684   6.686   6.012   4.689  1.7287 -0.6258 -0.0950
 9415SOL     OW29685   1.603   7.294   8.014 -0.7847  0.1647  0.0729
 9415SOL    HW129686   1.658   7.254   8.081  1.1250 -1.7929 -2.4555
 9415SOL    HW229687   1.656   7.367   7.980 -2.1796  1.8269  1.2870
 9416SOL     OW29688   4.894   7.212   7.199 -0.6891 -0.3119 -0.1145
 9416SOL    HW129689   4.956   7.213   7.125 -0.4977 -0.7851  0.0300
 9416SOL    HW229690   4.923   7.284   7.255 -0.1295 -0.6541  0.0532
 9417SOL     OW29691   0.655   0.911   2.236  0.2408 -0.1002 -0.0801
 9417SOL    HW129692   0.596   0.979   2.268  0.7851  0.9850 -1.2966
 9417SOL    HW229693   0.617   0.884   2.152  1.9286  1.3223 -1.3744
 9418SOL     OW29694   5.811   0.029   5.425 -0.3901 -0.6066 -0.1574
 9418SOL    HW129695   5.774  -0.056   5.399 -2.4258  0.1634  0.0207
 9418SOL    HW229696   5.744   0.068   5.481  1.2344  0.4400  1.1358
 9419SOL     OW29697   0.148   7.762   5.173 -0.3912 -0.3420 -0.5134
 9419SOL    HW129698   0.136   7.695   5.106  1.1174 -2.1632  0.9017
 9419SOL    HW229699   0.242   7.779   5.173 -0.5529  0.5979  0.2337
 9420SOL     OW29700   6.074   3.653  12.286  0.4409 -0.8884 -0.0244
 9420SOL    HW129701   6.100   3.728  12.232 -2.2667  0.1646 -0.0365
 9420SOL    HW229702   6.113   3.577  12.242  1.6221  0.2984 -1.1453
 9421SOL     OW29703   0.674   5.187   8.633  0.4716  0.1683  0.1961
 9421SOL    HW129704   0.612   5.253   8.663 -0.8157 -0.6002 -0.6604
 9421SOL    HW229705   0.626   5.138   8.566  1.9235 -0.6328 -0.3005
 9422SOL     OW29706   1.243   0.327   8.185  0.1314  0.3227 -0.3636
 9422SOL    HW129707   1.277   0.250   8.230  0.4922  0.2254 -0.7896
 9422SOL    HW229708   1.213   0.293   8.100 -0.9693  0.4164 -0.0378
 9423SOL     OW29709   5.196   6.722   0.037  0.7631 -0.0820  0.4263
 9423SOL    HW129710   5.154   6.723   0.123 -0.5606  1.6552 -0.1760
 9423SOL    HW229711   5.290   6.723   0.056  0.4958  0.4489  1.8496
 9424SOL     OW29712   4.340   3.162   1.356  0.2101  0.1806  0.2480
 9424SOL    HW129713   4.274   3.134   1.419  0.6146 -1.5215 -0.0288
 9424SOL    HW229714   4.298   3.233   1.308 -1.5834 -1.0844 -0.1625
 9425SOL     OW29715   5.941   5.468   5.778  0.0172 -0.0612 -0.4153
 9425SOL    HW129716   5.878   5.396   5.773 -0.0958 -0.0561  0.6661
 9425SOL    HW229717   5.892   5.545   5.749  0.2016 -0.4320 -1.7905
 9426SOL     OW29718   2.551   5.997   8.371  0.5065  0.3589 -0.1549
 9426SOL    HW129719   2.528   5.908   8.395 -0.3807 -0.3722 -3.2361
 9426SOL    HW229720   2.637   5.989   8.329  0.8854  1.1341  0.4487
 9427SOL     OW29721   7.551   0.827  11.337  0.5044  0.4726  0.5605
 9427SOL    HW129722   7.581   0.736  11.348 -1.7070 -0.8641 -2.8707
 9427SOL    HW229723   7.474   0.834  11.394  0.5848  0.1589  0.7117
 9428SOL     OW29724   5.317   5.801  10.724 -0.0769 -0.4161  0.0248
 9428SOL    HW129725   5.246   5.737  10.714 -0.0025 -0.6202  0.7183
 9428SOL    HW229726   5.272   5.885  10.732 -0.2935 -0.6088  1.0703
 9429SOL     OW29727   2.983   1.420  11.140  0.0659  0.3364 -0.2861
 9429SOL    HW129728   2.974   1.429  11.045  0.8021  0.7917 -0.3186
 9429SOL    HW229729   3.059   1.474  11.162  0.3104 -0.3155  0.4805
 9430SOL     OW29730   3.128   5.224   4.764 -0.2535  0.0952  0.4635
 9430SOL    HW129731   3.053   5.273   4.729  0.1451 -0.4602 -1.2658
 9430SOL    HW229732   3.202   5.284   4.755  0.2177 -0.6924 -1.5705
 9431SOL     OW29733   6.724   5.170   4.536  0.3142  0.4652  0.0209
 9431SOL    HW129734   6.644   5.204   4.576 -0.0858 -0.7749  0.3285
 9431SOL    HW229735   6.714   5.190   4.443  0.0347  1.0624  0.1746
 9432SOL     OW29736   0.391   3.721  12.353 -0.2748  0.0668 -0.5216
 9432SOL    HW129737   0.329   3.710  12.281 -0.1180 -1.2426 -0.4709
 9432SOL    HW229738   0.477   3.725  12.311 -0.1829 -0.7052 -0.4124
 9433SOL     OW29739   6.240   4.107   0.747 -0.3119 -0.2800  0.2277
 9433SOL    HW129740   6.194   4.024   0.758 -0.7647 -0.1877 -0.9012
 9433SOL    HW229741   6.173   4.167   0.714  0.5391 -0.0648 -1.1596
 9434SOL     OW29742   1.512   3.960  11.283 -0.0595 -0.0720 -0.2975
 9434SOL    HW129743   1.602   3.928  11.279  0.0200  0.1798 -0.6062
 9434SOL    HW229744   1.520   4.050  11.315 -0.2492 -0.2282  0.2004
 9435SOL     OW29745   7.738   7.851   9.059  0.0573  0.6511 -0.3178
 9435SOL    HW129746   7.769   7.937   9.086 -0.3844  0.9027 -0.5908
 9435SOL    HW229747   7.817   7.798   9.049  0.3527  1.1180 -0.4668
 9436SOL     OW29748   2.761   3.050   7.930  0.3143  0.0424  0.7007
 9436SOL    HW129749   2.821   2.979   7.952 -0.4481 -0.2406  1.9912
 9436SOL    HW229750   2.810   3.130   7.948  0.0523 -0.1803  2.6580
 9437SOL     OW29751   6.968   2.551   3.981 -0.1821 -0.5125  0.3317
 9437SOL    HW129752   6.886   2.581   3.941  0.8074  1.1938 -0.5081
 9437SOL    HW229753   7.035   2.609   3.945  1.4813 -2.1528  0.6473
 9438SOL     OW29754   1.909   5.860   7.717  0.3688  0.1081  0.5599
 9438SOL    HW129755   1.956   5.779   7.695  1.6817  1.2749 -1.2257
 9438SOL    HW229756   1.914   5.913   7.637 -0.4272  1.9700  1.6798
 9439SOL     OW29757   3.724   4.202   8.888  0.1552 -0.5856 -0.6901
 9439SOL    HW129758   3.647   4.250   8.859 -0.1991 -1.8885 -2.0211
 9439SOL    HW229759   3.798   4.260   8.866 -0.3594  0.0812 -0.6784
 9440SOL     OW29760   5.293   5.823   5.401 -0.7877  0.2435 -0.0173
 9440SOL    HW129761   5.264   5.790   5.487 -1.0873  0.8770  0.1309
 9440SOL    HW229762   5.274   5.751   5.341 -2.1543  0.4053  0.1697
 9441SOL     OW29763   5.510   5.259   0.154  0.2779 -0.2791  0.0890
 9441SOL    HW129764   5.434   5.249   0.211  0.4544 -0.0349  0.3696
 9441SOL    HW229765   5.482   5.321   0.087  0.5873  0.6832  0.8320
 9442SOL     OW29766   6.815   7.730   9.606  0.3026  0.1825 -0.6528
 9442SOL    HW129767   6.721   7.713   9.601  0.2440 -1.1749  2.6558
 9442SOL    HW229768   6.823   7.825   9.603 -1.1728  0.3174 -0.8367
 9443SOL     OW29769   1.970   5.261   8.124  0.1054 -0.3584  0.0426
 9443SOL    HW129770   2.047   5.281   8.071  0.6854 -1.8347  0.3003
 9443SOL    HW229771   1.981   5.314   8.203 -0.7250  1.7978 -1.2104
 9444SOL     OW29772   4.192   4.823   0.263  0.3827 -0.1923  0.1182
 9444SOL    HW129773   4.286   4.817   0.281  0.5807 -1.0743 -1.0588
 9444SOL    HW229774   4.150   4.793   0.344  1.1028  0.4484  0.7408
 9445SOL     OW29775   0.668   2.966  10.203 -1.0268 -0.4529  0.3701
 9445SOL    HW129776   0.577   2.991  10.185 -1.1441 -1.5309 -0.7187
 9445SOL    HW229777   0.665   2.923  10.288 -2.2057 -3.4177 -1.0241
 9446SOL     OW29778   4.610   0.575   7.648 -0.2069 -0.3077 -0.3780
 9446SOL    HW129779   4.680   0.522   7.610  0.7302  0.2007  0.5926
 9446SOL    HW229780   4.542   0.512   7.670  1.2663 -1.2901  1.6110
 9447SOL     OW29781   0.531   1.303   9.949 -0.1113  0.4708 -0.9117
 9447SOL    HW129782   0.520   1.397   9.937 -0.1895  0.8126  1.3737
 9447SOL    HW229783   0.466   1.263   9.892 -1.4276  1.8827 -0.4721
 9448SOL     OW29784   7.521   3.315  12.357  0.6326 -0.1440 -0.5484
 9448SOL    HW129785   7.570   3.397  12.362  1.0012 -0.3720 -0.3964
 9448SOL    HW229786   7.530   3.275  12.443 -0.6255  0.2610 -0.2058
 9449SOL     OW29787   6.000   4.547   5.066 -0.4216  0.0972  0.0985
 9449SOL    HW129788   5.980   4.622   5.123  0.4420 -0.0407  0.6115
 9449SOL    HW229789   6.089   4.522   5.091  0.2271  0.4315 -1.7708
 9450SOL     OW29790   4.518   7.894   6.782  0.0620 -0.3441 -0.1462
 9450SOL    HW129791   4.443   7.860   6.831  0.7869 -1.4784  0.1912
 9450SOL    HW229792   4.529   7.984   6.814 -1.4057 -0.0021 -0.5099
 9451SOL     OW29793   7.980   2.718   1.552 -0.6096 -0.1998 -0.7017
 9451SOL    HW129794   7.933   2.797   1.577 -0.6462 -0.7151  0.9462
 9451SOL    HW229795   7.920   2.673   1.493 -1.7474 -0.3112  0.5081
 9452SOL     OW29796   3.567   2.450   2.872  0.0943  0.4777  0.1798
 9452SOL    HW129797   3.656   2.483   2.888 -0.8315  2.0490  2.8017
 9452SOL    HW229798   3.566   2.363   2.913  0.1696  0.9065  1.1295
 9453SOL     OW29799   1.293   0.481  12.190  0.3825 -0.3360 -0.9075
 9453SOL    HW129800   1.350   0.552  12.218 -0.1851 -0.9074  2.0402
 9453SOL    HW229801   1.332   0.403  12.229 -2.0014 -0.8207  0.7108
 9454SOL     OW29802   2.316   7.274   1.092  0.1033 -0.1723 -0.1084
 9454SOL    HW129803   2.234   7.293   1.137  0.2688  3.9726 -1.1404
 9454SOL    HW229804   2.382   7.326   1.138  1.3027 -0.0921 -1.7899
 9455SOL     OW29805   0.257   4.513   3.689 -0.0758 -0.4635 -0.3522
 9455SOL    HW129806   0.254   4.428   3.645 -0.1283 -0.3440 -0.5840
 9455SOL    HW229807   0.183   4.561   3.652  0.1158 -0.2220 -0.4242
 9456SOL     OW29808   0.827   2.679  12.333  0.0646 -0.2294  0.1223
 9456SOL    HW129809   0.885   2.691  12.257 -1.1529 -3.7551 -1.5979
 9456SOL    HW229810   0.885   2.650  12.403  1.0655  1.9938  0.2951
 9457SOL     OW29811   0.194   1.352   0.358 -0.3543  0.2172  0.0252
 9457SOL    HW129812   0.112   1.395   0.382 -1.1417 -0.3294 -1.6126
 9457SOL    HW229813   0.236   1.413   0.297  0.2504  0.2652  0.4722
 9458SOL     OW29814   2.410   4.621   5.391  0.1978  0.0356  0.4997
 9458SOL    HW129815   2.315   4.612   5.387  0.0024  1.9425 -0.4624
 9458SOL    HW229816   2.441   4.572   5.315 -0.3946  2.5576 -1.5186
 9459SOL     OW29817   1.843   6.168   8.973 -0.1466 -0.6102  0.2701
 9459SOL    HW129818   1.833   6.215   9.056 -0.6259 -1.1325  0.5159
 9459SOL    HW229819   1.841   6.237   8.906 -0.1295 -0.2176  0.6679
 9460SOL     OW29820   1.090   3.725   9.562  0.6115 -0.0154  0.1765
 9460SOL    HW129821   1.171   3.684   9.592  1.0472 -0.1362 -1.1067
 9460SOL    HW229822   1.031   3.652   9.544  0.0392  0.0851  1.5191
 9461SOL     OW29823   4.637   6.715   0.269  0.4747 -0.1230 -0.1294
 9461SOL    HW129824   4.557   6.678   0.232 -1.1708  2.0442  1.0064
 9461SOL    HW229825   4.647   6.673   0.354  0.6573 -0.5287 -0.3502
 9462SOL     OW29826   4.051   6.092   0.231 -0.5003 -0.4942  0.5928
 9462SOL    HW129827   3.997   6.046   0.295  0.3684 -1.3299  0.7600
 9462SOL    HW229828   4.024   6.056   0.147  0.2651 -1.4539  0.7326
 9463SOL     OW29829   1.517   4.161   9.146  0.0316 -0.5019 -0.0727
 9463SOL    HW129830   1.430   4.165   9.107  0.9726  0.0852 -2.2814
 9463SOL    HW229831   1.550   4.251   9.139 -0.0059 -0.1770  2.8780
 9464SOL     OW29832   4.830   2.988   8.255 -0.2757  0.4568 -0.1439
 9464SOL    HW129833   4.742   2.999   8.218  0.3091  1.5930 -1.2758
 9464SOL    HW229834   4.839   3.060   8.317  0.0958  0.7658 -0.5469
 9465SOL     OW29835   3.658   7.003   2.110  0.2960  0.2355  0.1800
 9465SOL    HW129836   3.571   7.010   2.071  0.2582 -2.0596 -0.2376
 9465SOL    HW229837   3.663   7.078   2.170 -1.6981  0.7735 -0.2592
 9466SOL     OW29838   1.163   5.317  10.927 -0.3445  0.2171  0.0451
 9466SOL    HW129839   1.185   5.390  10.985  1.1083 -0.5957  0.5906
 9466SOL    HW229840   1.205   5.241  10.968  0.0295 -0.5285 -1.6372
 9467SOL     OW29841   3.059   3.668  12.354  0.0447 -0.2326  0.0709
 9467SOL    HW129842   3.085   3.709  12.271 -1.2053 -1.3272 -0.8986
 9467SOL    HW229843   3.049   3.741  12.415 -3.5033  1.1970 -1.9549
 9468SOL     OW29844   4.981   7.552   7.920 -0.1231 -0.1480 -0.5058
 9468SOL    HW129845   4.991   7.462   7.951  0.1705 -0.1979 -0.7339
 9468SOL    HW229846   5.067   7.592   7.935  0.0426 -0.1875 -1.2803
 9469SOL     OW29847   7.047   2.910   2.611 -0.2118  0.3740  0.6396
 9469SOL    HW129848   7.090   2.906   2.525  1.2149 -1.7762  1.3865
 9469SOL    HW229849   6.982   2.840   2.608 -0.4449  0.5604  1.2061
 9470SOL     OW29850   0.561   1.437   7.265  0.3922 -0.0448 -0.2255
 9470SOL    HW129851   0.565   1.450   7.170  0.2827 -1.1773 -0.3964
 9470SOL    HW229852   0.605   1.513   7.301  0.6348  0.2925 -1.1948
 9471SOL     OW29853   4.344   1.973   0.352 -0.7132  0.4863 -0.6572
 9471SOL    HW129854   4.294   2.052   0.372 -0.4415  1.0409 -2.0263
 9471SOL    HW229855   4.410   2.002   0.289  1.0998 -0.3040  0.7683
 9472SOL     OW29856   0.788   0.330   6.461  0.0023  0.3143  0.0385
 9472SOL    HW129857   0.833   0.346   6.378  1.1050 -1.7091  0.1860
 9472SOL    HW229858   0.838   0.378   6.526 -0.4903  1.3811 -0.3377
 9473SOL     OW29859   4.891   2.122   2.631  0.1580  0.1463 -0.0615
 9473SOL    HW129860   4.936   2.137   2.713  0.2837  0.6301 -0.2155
 9473SOL    HW229861   4.934   2.045   2.593 -0.7583 -0.8899  0.9282
 9474SOL     OW29862   6.261   6.504   6.733 -0.0742  0.0466  0.1324
 9474SOL    HW129863   6.311   6.422   6.740 -0.5124 -0.4200 -1.5126
 9474SOL    HW229864   6.172   6.475   6.714 -0.5993  0.9021  1.2386
 9475SOL     OW29865   5.580   6.089   8.229  0.3387 -0.7265 -0.5332
 9475SOL    HW129866   5.506   6.141   8.261  0.1199 -0.0480 -2.0571
 9475SOL    HW229867   5.543   6.035   8.159  1.2967 -0.2466 -1.4408
 9476SOL     OW29868   7.128   3.367   6.483 -1.5363 -0.2220 -0.8168
 9476SOL    HW129869   7.148   3.345   6.392  1.4196 -0.4699 -0.2070
 9476SOL    HW229870   7.134   3.284   6.530 -0.3400  0.2799 -0.0230
 9477SOL     OW29871   4.479   2.736  10.080  0.3922  0.5820  0.2135
 9477SOL    HW129872   4.387   2.719  10.101  0.1477 -1.7835 -2.2904
 9477SOL    HW229873   4.480   2.759   9.987  2.4121 -0.4927 -0.0921
 9478SOL     OW29874   6.641   7.934   8.357  0.0318  0.9064 -0.1580
 9478SOL    HW129875   6.571   7.883   8.398  0.9527  0.1525  0.5236
 9478SOL    HW229876   6.722   7.895   8.391  0.9803 -1.1075 -4.1075
 9479SOL     OW29877   3.365   5.821   1.006 -0.0161 -0.1568 -0.0595
 9479SOL    HW129878   3.415   5.779   0.936  1.7719  2.2384 -0.3645
 9479SOL    HW229879   3.275   5.792   0.992  0.8081 -2.3894 -1.2532
 9480SOL     OW29880   1.127   7.278   2.347  0.3650 -0.4000  0.2580
 9480SOL    HW129881   1.138   7.372   2.339 -0.7955 -0.1636  1.1038
 9480SOL    HW229882   1.057   7.256   2.285 -0.4713 -0.4293  1.1831
 9481SOL     OW29883   0.121   2.148   8.350  0.2162  0.1448  0.3383
 9481SOL    HW129884   0.077   2.196   8.421  1.7163  1.2521  0.5820
 9481SOL    HW229885   0.213   2.175   8.357  0.6168 -0.7083 -1.2507
 9482SOL     OW29886   4.730   2.197  10.427 -0.1371  0.2263  0.3453
 9482SOL    HW129887   4.813   2.241  10.444  0.0766  0.1564 -0.4680
 9482SOL    HW229888   4.731   2.181  10.332 -1.6227  1.3501  0.1007
 9483SOL     OW29889   3.631   2.663   5.177 -0.1960 -0.4954  0.0618
 9483SOL    HW129890   3.664   2.696   5.261  1.3070  0.0876 -0.7211
 9483SOL    HW229891   3.704   2.675   5.117 -0.2966 -3.3258 -0.7647
 9484SOL     OW29892   7.738   6.599   6.839  0.7946 -0.3544 -0.6473
 9484SOL    HW129893   7.780   6.517   6.865  2.1516  0.4657 -0.1658
 9484SOL    HW229894   7.737   6.596   6.744  0.6107 -1.0309 -0.6316
 9485SOL     OW29895   0.413   3.741   0.148  0.4489  0.0107  0.1867
 9485SOL    HW129896   0.457   3.657   0.165  0.1573  0.1683  1.8535
 9485SOL    HW229897   0.395   3.739   0.054  0.4245 -1.8239  0.1772
 9486SOL     OW29898   3.726   5.467   5.187 -0.6205  0.4826  0.7436
 9486SOL    HW129899   3.681   5.443   5.268 -2.2972  0.4802 -0.1391
 9486SOL    HW229900   3.761   5.384   5.154 -0.2379  0.4254  1.2868
 9487SOL     OW29901   2.856   6.371   2.661  0.0303 -0.3261 -0.0891
 9487SOL    HW129902   2.904   6.345   2.740  1.0384  1.5716 -0.0220
 9487SOL    HW229903   2.765   6.377   2.690  0.2416 -0.6054  0.6719
 9488SOL     OW29904   5.741   2.726  12.358  0.5271 -0.3427  0.3797
 9488SOL    HW129905   5.829   2.713  12.322 -0.0601  0.4068 -1.4459
 9488SOL    HW229906   5.688   2.749  12.282 -1.0513  0.1681  1.5982
 9489SOL     OW29907   1.760   3.502   8.032 -0.1227 -0.4171  0.0949
 9489SOL    HW129908   1.793   3.590   8.051 -0.0116 -0.6076  0.8196
 9489SOL    HW229909   1.711   3.477   8.111  1.1809 -1.6312  0.5607
 9490SOL     OW29910   4.920   2.575   3.214 -0.1333 -0.4854  0.2004
 9490SOL    HW129911   4.841   2.533   3.248  0.1139 -2.1619 -1.1849
 9490SOL    HW229912   4.988   2.508   3.220  0.4369 -0.1007 -1.4629
 9491SOL     OW29913   2.384   2.504  12.303 -0.5093  0.5179 -0.2663
 9491SOL    HW129914   2.311   2.529  12.245 -0.8421 -0.4766 -0.3009
 9491SOL    HW229915   2.346   2.502  12.390 -0.5432 -0.0408 -0.2890
 9492SOL     OW29916   3.332   2.645   5.228  0.0645  0.0528 -0.1705
 9492SOL    HW129917   3.309   2.577   5.291 -0.7129  1.9203  1.7089
 9492SOL    HW229918   3.428   2.643   5.224  0.1044 -0.4043  0.7316
 9493SOL     OW29919   0.927   3.574  11.637  0.1121 -0.1989 -0.1153
 9493SOL    HW129920   0.921   3.660  11.679 -0.1047 -0.3229  0.1104
 9493SOL    HW229921   0.865   3.579  11.564 -1.6102 -0.9148  1.2249
 9494SOL     OW29922   4.710   4.050   7.209  0.0942 -0.2239 -0.2769
 9494SOL    HW129923   4.687   3.959   7.191  2.3540 -0.6236 -1.3832
 9494SOL    HW229924   4.693   4.096   7.127  0.4040  0.0434 -0.1936
 9495SOL     OW29925   6.725   0.347   1.277  0.2184 -0.4596  0.0271
 9495SOL    HW129926   6.659   0.343   1.346 -0.2737 -0.7551 -0.4446
 9495SOL    HW229927   6.689   0.292   1.207  0.9365 -0.5688 -0.2665
 9496SOL     OW29928   5.773   2.568   6.775 -0.3075  0.8617 -0.2319
 9496SOL    HW129929   5.826   2.527   6.706 -0.8425 -1.1678  0.5185
 9496SOL    HW229930   5.791   2.516   6.853 -0.3339  2.6372  1.0076
 9497SOL     OW29931   7.619   1.561   1.171  0.2491  0.2714  0.1386
 9497SOL    HW129932   7.602   1.590   1.261  0.1245 -0.6982  0.4440
 9497SOL    HW229933   7.697   1.506   1.178  1.2694  1.5708 -0.6378
 9498SOL     OW29934   6.301   4.655  11.128  0.0842  0.0958  0.8183
 9498SOL    HW129935   6.358   4.732  11.122  0.9222 -0.4894  1.0990
 9498SOL    HW229936   6.294   4.624  11.037  2.8850 -1.6943  1.0933
 9499SOL     OW29937   1.648   3.405   1.783 -0.2029 -0.1739  0.4911
 9499SOL    HW129938   1.619   3.382   1.870 -0.2011 -2.2805 -0.0249
 9499SOL    HW229939   1.574   3.384   1.726 -1.1472  3.4235  0.1396
 9500SOL     OW29940   2.604   0.286   0.168 -0.3107 -0.3632 -0.0279
 9500SOL    HW129941   2.515   0.277   0.201 -0.7737  1.4713 -0.6661
 9500SOL    HW229942   2.596   0.275   0.073  0.5602 -2.6418  0.0935
 9501SOL     OW29943   3.578   3.753   5.781 -0.0511  0.1666  0.5490
 9501SOL    HW129944   3.561   3.710   5.865  0.8646  2.3215  1.9275
 9501SOL    HW229945   3.522   3.831   5.782 -1.7916 -0.9226 -1.9430
 9502SOL     OW29946   3.543   7.206   1.595 -0.0542  0.5964  0.1403
 9502SOL    HW129947   3.564   7.137   1.532  1.3368 -0.2012  1.4211
 9502SOL    HW229948   3.479   7.167   1.653 -0.2835  0.8517  0.0594
 9503SOL     OW29949   2.516   5.968   5.332  0.3961  0.1543 -0.0752
 9503SOL    HW129950   2.440   5.910   5.335  0.8804 -0.4786  0.3730
 9503SOL    HW229951   2.483   6.052   5.363 -0.8305  0.7689 -2.7870
 9504SOL     OW29952   2.179   1.337  11.678  0.1571 -0.1342 -0.1430
 9504SOL    HW129953   2.094   1.363  11.641 -0.1163 -0.7477  0.0464
 9504SOL    HW229954   2.171   1.243  11.694  0.4312  0.0272  1.0426
 9505SOL     OW29955   5.262   4.134   0.633 -0.1720 -0.2721 -0.3030
 9505SOL    HW129956   5.170   4.158   0.645 -0.1005  0.1501 -0.5713
 9505SOL    HW229957   5.274   4.130   0.538  0.3835  0.8883 -0.2980
 9506SOL     OW29958   1.919   4.849   0.277  0.9818  0.3423  0.0935
 9506SOL    HW129959   1.994   4.893   0.239  1.3946 -0.2390  0.2182
 9506SOL    HW229960   1.932   4.858   0.372  1.7007 -1.0401  0.1570
 9507SOL     OW29961   2.026   6.291   8.679  0.0826  0.3840 -0.1301
 9507SOL    HW129962   2.107   6.265   8.635  0.2939 -0.0438  0.5042
 9507SOL    HW229963   1.957   6.247   8.629  0.0824  2.0265 -1.6651
 9508SOL     OW29964   5.657   3.783   4.111  0.4630  0.5047  0.6891
 9508SOL    HW129965   5.692   3.752   4.027 -0.0223 -2.1637  1.3641
 9508SOL    HW229966   5.565   3.755   4.111  0.7519 -0.6516  2.5444
 9509SOL     OW29967   1.808   0.422   2.857 -0.3050  0.4762  0.1665
 9509SOL    HW129968   1.761   0.456   2.933 -1.4878  1.5132 -0.9615
 9509SOL    HW229969   1.738   0.395   2.797  0.5438  1.2039 -1.2013
 9510SOL     OW29970   4.254   3.412   4.557 -0.1391 -0.1139 -0.2262
 9510SOL    HW129971   4.222   3.436   4.470  1.2437 -2.2580 -1.4060
 9510SOL    HW229972   4.244   3.317   4.561 -0.4329 -0.0494  2.1085
 9511SOL     OW29973   1.699   4.424   6.223  0.6536 -0.7240 -0.2075
 9511SOL    HW129974   1.700   4.352   6.286 -3.5480  0.3720  1.4497
 9511SOL    HW229975   1.712   4.381   6.138  1.0300 -3.0436  0.9451
 9512SOL     OW29976   1.735   4.090   3.025 -0.0823 -0.3723  0.1279
 9512SOL    HW129977   1.755   4.024   2.959 -0.4035 -0.6028  0.2565
 9512SOL    HW229978   1.716   4.169   2.974  1.0399 -0.1690  0.0031
 9513SOL     OW29979   3.507   4.341   8.801  0.0394 -0.2130  0.4292
 9513SOL    HW129980   3.458   4.408   8.848 -0.7858 -0.0879 -0.5818
 9513SOL    HW229981   3.521   4.378   8.714  3.0400  0.2730  1.0233
 9514SOL     OW29982   2.357   4.221   9.959  0.4353 -0.4237  0.3946
 9514SOL    HW129983   2.436   4.270   9.980  0.0662  0.0563  0.6800
 9514SOL    HW229984   2.354   4.151  10.025 -0.8767  1.2503  2.2218
 9515SOL     OW29985   0.836   0.916  10.790 -0.0284 -0.0737 -0.1383
 9515SOL    HW129986   0.925   0.931  10.821  0.4139  0.9133 -1.7384
 9515SOL    HW229987   0.788   0.995  10.814 -0.2584 -0.2465 -0.0216
 9516SOL     OW29988   0.583   6.255  11.284  0.1152  0.5379 -0.8159
 9516SOL    HW129989   0.560   6.211  11.202  4.2482 -2.3211 -0.7838
 9516SOL    HW229990   0.652   6.316  11.259 -0.3047  1.4683  0.2382
 9517SOL     OW29991   0.570   1.259   9.635 -0.1412  0.4584 -0.8479
 9517SOL    HW129992   0.540   1.350   9.643 -0.0198  0.6366 -2.2277
 9517SOL    HW229993   0.647   1.263   9.579  0.9953 -0.3023  0.6082
 9518SOL     OW29994   4.065   6.267   3.534 -0.8005 -0.0229 -0.4743
 9518SOL    HW129995   4.091   6.184   3.573 -0.0341  0.3314 -0.1971
 9518SOL    HW229996   3.995   6.244   3.473 -0.2066 -0.9535 -0.8328
 9519SOL     OW29997   0.194   5.223   2.688  0.7414  0.5659  0.5106
 9519SOL    HW129998   0.219   5.224   2.780  0.5922 -1.9928  0.6272
 9519SOL    HW229999   0.119   5.164   2.683  0.5694  0.8637 -1.2219
 9520SOL     OW30000   0.487   5.410   8.669 -0.2560  0.2441 -0.2992
 9520SOL    HW130001   0.481   5.505   8.658  0.3305  0.5464  1.6763
 9520SOL    HW230002   0.487   5.396   8.763  0.7828 -1.6597 -0.5191
 9521SOL     OW30003   4.133   5.738   6.773 -0.5702 -0.1426 -0.4369
 9521SOL    HW130004   4.083   5.812   6.807 -0.6969 -0.1388 -0.6294
 9521SOL    HW230005   4.177   5.773   6.695  0.2102  0.0251  0.0608
 9522SOL     OW30006   0.084   4.857   6.537 -0.5523  0.1925 -0.0763
 9522SOL    HW130007   0.163   4.878   6.588 -1.8299  1.0671  1.6342
 9522SOL    HW230008   0.074   4.932   6.479  0.4639 -0.4331 -1.0950
 9523SOL     OW30009   0.816   3.945   9.836  0.6938 -0.0165 -1.0077
 9523SOL    HW130010   0.911   3.945   9.826  0.8520 -0.6894  0.2651
 9523SOL    HW230011   0.801   3.931   9.929 -0.6682 -1.6649 -1.4203
 9524SOL     OW30012   0.240   7.880   2.874 -0.2814 -0.4199  0.0438
 9524SOL    HW130013   0.247   7.822   2.949 -2.0763 -0.4099  0.2471
 9524SOL    HW230014   0.151   7.869   2.842  0.0883  0.4282 -1.4055
 9525SOL     OW30015   5.145   7.302   5.667  0.1274  0.7352 -0.1962
 9525SOL    HW130016   5.141   7.219   5.619  0.0739 -0.2684  1.4834
 9525SOL    HW230017   5.068   7.301   5.722  0.7654  1.3382  0.7238
 9526SOL     OW30018   4.657   6.835   5.405 -0.1519 -0.2198 -0.4154
 9526SOL    HW130019   4.621   6.916   5.368  0.5367  0.1925 -0.2178
 9526SOL    HW230020   4.700   6.863   5.486  0.1948 -0.7629 -0.4087
 9527SOL     OW30021   3.675   7.948   9.022  0.2390  0.6993  0.0860
 9527SOL    HW130022   3.612   8.019   9.021  0.4745  0.9008 -1.1184
 9527SOL    HW230023   3.627   7.874   9.059 -0.0369  1.4265  1.2568
 9528SOL     OW30024   3.885   0.937   0.486  0.2488 -0.5405  0.3885
 9528SOL    HW130025   3.820   0.964   0.551  0.0902 -1.0231  0.4373
 9528SOL    HW230026   3.834   0.890   0.420 -0.0105  2.0394 -1.4006
 9529SOL     OW30027   2.568   7.009   4.091  0.2400 -0.5329  0.1787
 9529SOL    HW130028   2.581   7.070   4.018 -0.2400 -0.8613 -0.1880
 9529SOL    HW230029   2.500   6.949   4.060 -1.6080  0.6443  1.7045
 9530SOL     OW30030   1.237   4.578   3.283 -0.3811 -0.3773 -0.8177
 9530SOL    HW130031   1.299   4.505   3.280 -2.2004 -2.0140 -2.0074
 9530SOL    HW230032   1.277   4.647   3.230  1.6475 -0.2356  0.8153
 9531SOL     OW30033   1.549   1.005   5.459 -0.4412  0.3847 -0.3112
 9531SOL    HW130034   1.538   0.910   5.458 -0.9568  0.4302  0.1000
 9531SOL    HW230035   1.644   1.019   5.455 -0.4013 -0.0956 -2.1800
 9532SOL     OW30036   5.723   7.386  11.295  0.0027 -0.2442 -0.1796
 9532SOL    HW130037   5.647   7.426  11.339 -0.2639 -1.4954  0.5354
 9532SOL    HW230038   5.798   7.435  11.329 -0.3473 -0.0613  0.3484
 9533SOL     OW30039   7.940   4.535  10.195  0.2885  0.1634 -0.0458
 9533SOL    HW130040   7.978   4.604  10.140  2.1877 -0.5916  0.2356
 9533SOL    HW230041   8.012   4.506  10.250 -0.9600 -0.7774  1.1517
 9534SOL     OW30042   0.164   4.728  11.259 -0.0035  0.2223 -0.5041
 9534SOL    HW130043   0.153   4.812  11.214 -1.0462 -0.2534 -1.1904
 9534SOL    HW230044   0.252   4.732  11.297  0.3080  1.2669 -1.2820
 9535SOL     OW30045   6.823   4.947  10.356 -0.6183 -0.0259 -0.2179
 9535SOL    HW130046   6.810   5.028  10.306 -2.1064  0.4509  0.8707
 9535SOL    HW230047   6.821   4.975  10.447 -0.8633 -1.2583  0.1642
 9536SOL     OW30048   0.559   0.054   5.140  0.6148 -0.4328 -0.5251
 9536SOL    HW130049   0.562   0.149   5.129 -1.0446 -0.1095  1.2354
 9536SOL    HW230050   0.576   0.040   5.233 -1.8359 -1.5976 -0.1659
 9537SOL     OW30051   2.931   6.314   9.720  0.6164  0.0425 -0.0629
 9537SOL    HW130052   2.999   6.372   9.686  1.4015 -0.7919  0.0494
 9537SOL    HW230053   2.979   6.245   9.766 -0.2088 -1.6514 -1.6541
 9538SOL     OW30054   0.459   4.812   1.030 -0.1687 -0.3357  0.3680
 9538SOL    HW130055   0.491   4.889   0.983 -0.6604 -0.5368 -0.3066
 9538SOL    HW230056   0.538   4.766   1.057  0.1609 -1.1113 -1.7271
 9539SOL     OW30057   7.891   3.403   7.297 -0.0138 -0.7883 -0.5103
 9539SOL    HW130058   7.923   3.407   7.207  0.9008  1.8471 -0.1481
 9539SOL    HW230059   7.806   3.447   7.295 -0.2366 -1.1954 -0.1731
 9540SOL     OW30060   3.760   6.952   3.773 -0.3514 -0.6484 -0.2176
 9540SOL    HW130061   3.669   6.980   3.785  0.1625  0.4263  1.4371
 9540SOL    HW230062   3.779   6.971   3.681 -0.9347  1.8383  0.1091
 9541SOL     OW30063   3.978   3.156  10.792  0.7374 -0.3066 -0.2731
 9541SOL    HW130064   3.890   3.179  10.762  0.1725 -0.1146  1.3910
 9541SOL    HW230065   4.022   3.240  10.804  1.3437 -0.4174 -1.5804
 9542SOL     OW30066   7.805   1.366   5.188  1.0789  0.2794 -0.1618
 9542SOL    HW130067   7.745   1.440   5.183 -0.5974 -0.8345  1.7655
 9542SOL    HW230068   7.888   1.404   5.213  0.6312  1.6484 -0.6760
 9543SOL     OW30069   4.502   7.084  11.503  0.1325  0.2475 -0.2930
 9543SOL    HW130070   4.435   7.029  11.464 -0.2382 -0.1337  0.8424
 9543SOL    HW230071   4.477   7.090  11.595  1.5446  0.2508  0.1092
 9544SOL     OW30072   4.736   2.847   0.746 -0.4080 -0.7037  0.6423
 9544SOL    HW130073   4.755   2.821   0.836  0.2163 -0.4816  0.5785
 9544SOL    HW230074   4.798   2.917   0.728  0.2525 -1.5225 -0.3479
 9545SOL     OW30075   7.076   2.990   1.707 -0.1077 -0.2604 -0.0002
 9545SOL    HW130076   7.149   2.986   1.645  0.3633 -0.8524  0.5809
 9545SOL    HW230077   7.059   2.899   1.730  0.3051 -0.0052  1.4024
 9546SOL     OW30078   3.889   6.884   1.991  0.1371 -0.2856  0.0593
 9546SOL    HW130079   3.805   6.906   2.033  0.4326  0.3082  0.3609
 9546SOL    HW230080   3.866   6.863   1.901 -0.3228  0.0514  0.0922
 9547SOL     OW30081   6.871   6.961   4.880 -0.4574  0.1709  0.2421
 9547SOL    HW130082   6.895   7.003   4.963 -0.1234  2.1763 -0.7966
 9547SOL    HW230083   6.781   6.930   4.894 -1.5807  3.1617  0.4812
 9548SOL     OW30084   5.915   2.359   5.999  0.4793  0.1167  0.4020
 9548SOL    HW130085   5.922   2.389   6.090  0.8111  0.8454  0.1382
 9548SOL    HW230086   5.849   2.416   5.960  0.3312 -0.2036  0.1859
 9549SOL     OW30087   2.193   2.554  12.101  0.1627 -0.0728  0.0693
 9549SOL    HW130088   2.166   2.463  12.085 -1.1425  0.4767 -1.1278
 9549SOL    HW230089   2.132   2.606  12.048  0.5593  1.5326  1.1292
 9550SOL     OW30090   3.586   7.222   8.495  0.1607  0.1745 -0.0339
 9550SOL    HW130091   3.502   7.226   8.449 -1.3739 -2.2557  2.3030
 9550SOL    HW230092   3.641   7.166   8.440  0.0694  1.1876 -1.2092
 9551SOL     OW30093   7.853   3.446   4.292  0.0203  0.2273 -0.0808
 9551SOL    HW130094   7.866   3.486   4.206  0.5564 -0.4046 -0.2954
 9551SOL    HW230095   7.832   3.520   4.349 -0.4075  0.6459 -0.7624
 9552SOL     OW30096   2.240   4.039   8.087  0.0017 -0.1090 -0.3852
 9552SOL    HW130097   2.308   3.972   8.103 -0.7376 -1.0190 -0.9574
 9552SOL    HW230098   2.286   4.122   8.098  1.1281 -0.7050 -0.3881
 9553SOL     OW30099   4.104   4.261   3.598  0.0565 -0.2600 -0.2358
 9553SOL    HW130100   4.013   4.263   3.566  0.1221  0.1247 -0.3972
 9553SOL    HW230101   4.111   4.337   3.655  0.4609  0.0678 -0.7157
 9554SOL     OW30102   3.434   0.737   8.982  0.0682  0.1262  0.1738
 9554SOL    HW130103   3.361   0.784   8.944 -0.4989 -0.4929  0.4765
 9554SOL    HW230104   3.399   0.650   9.003  0.8768 -0.1736  0.3438
 9555SOL     OW30105   1.050   4.790  12.309  0.0715 -0.0085 -0.0914
 9555SOL    HW130106   1.062   4.788  12.214  1.8359  0.9013  0.0738
 9555SOL    HW230107   1.105   4.863  12.339 -0.6164 -0.1390  1.6061
 9556SOL     OW30108   0.911   3.482   4.523 -0.0184 -0.0102  0.2655
 9556SOL    HW130109   0.828   3.523   4.546 -1.0741 -2.4791  1.1927
 9556SOL    HW230110   0.893   3.435   4.441  1.0533  1.0164 -0.5891
 9557SOL     OW30111   4.147   6.986   2.689  0.2052 -0.0382  0.4965
 9557SOL    HW130112   4.203   6.909   2.684 -0.0757 -0.2255  0.1598
 9557SOL    HW230113   4.060   6.954   2.665  0.2753  0.5714 -0.6565
 9558SOL     OW30114   4.229   6.101   1.027 -0.0268  0.2031 -0.3049
 9558SOL    HW130115   4.268   6.179   0.988  0.3885 -0.7219 -1.8197
 9558SOL    HW230116   4.167   6.069   0.961 -1.8505  0.4463  1.1919
 9559SOL     OW30117   0.129   4.201   1.242 -0.2364 -0.2511  0.0019
 9559SOL    HW130118   0.156   4.278   1.191 -1.7302  0.2394 -0.0935
 9559SOL    HW230119   0.181   4.207   1.322  1.0913 -0.2368 -0.8150
 9560SOL     OW30120   4.857   6.616  11.212  0.0718 -0.1177 -0.2646
 9560SOL    HW130121   4.793   6.684  11.194  0.2078  1.1986  3.4146
 9560SOL    HW230122   4.825   6.572  11.291  1.2501 -2.7826 -1.1249
 9561SOL     OW30123   0.113   2.313   0.003  0.0514  0.5314  0.3030
 9561SOL    HW130124   0.096   2.271  -0.082 -1.8842  2.4416 -0.3317
 9561SOL    HW230125   0.040   2.284   0.059  0.3453  0.6818  0.7684
 9562SOL     OW30126   3.008   2.497   5.940  0.1682 -0.0463 -0.1578
 9562SOL    HW130127   3.012   2.482   6.034  1.0046 -1.0066 -0.3259
 9562SOL    HW230128   3.071   2.435   5.903 -0.7723 -0.2933 -1.4181
 9563SOL     OW30129   4.903   7.468   6.895  0.2872 -0.5254 -0.1981
 9563SOL    HW130130   4.992   7.491   6.924  0.8158 -1.5917 -0.9051
 9563SOL    HW230131   4.849   7.478   6.974  1.2164 -0.8016  0.4939
 9564SOL     OW30132   6.892   2.263   4.466  0.0892 -0.0770 -0.0692
 9564SOL    HW130133   6.878   2.333   4.530 -0.5547 -0.3527  0.0995
 9564SOL    HW230134   6.830   2.195   4.492  1.0600 -0.9203  0.0722
 9565SOL     OW30135   1.002   3.897   2.129  0.1982 -0.0878 -0.1853
 9565SOL    HW130136   1.005   3.965   2.062 -2.7623  0.1430 -0.2277
 9565SOL    HW230137   1.033   3.940   2.208 -0.5648  1.0218 -0.4623
 9566SOL     OW30138   7.309   5.369   7.227 -0.5980 -0.4272  0.1906
 9566SOL    HW130139   7.345   5.332   7.146 -0.4862  2.9813 -1.4707
 9566SOL    HW230140   7.214   5.369   7.213 -0.7115 -1.4289  0.8579
 9567SOL     OW30141   0.360   7.364   0.400  0.4158  0.4509 -0.1591
 9567SOL    HW130142   0.373   7.401   0.487 -0.6000 -3.0144  1.6453
 9567SOL    HW230143   0.268   7.338   0.399  1.2345 -2.8045 -0.8113
 9568SOL     OW30144   6.728   4.191   3.526  0.5731  0.3708 -0.2254
 9568SOL    HW130145   6.711   4.124   3.460 -2.1737  0.4470  0.2719
 9568SOL    HW230146   6.729   4.144   3.609 -2.8661  0.9134  0.3010
 9569SOL     OW30147   4.871   3.574   6.726  0.0472 -0.1533 -0.3182
 9569SOL    HW130148   4.797   3.545   6.780  0.0927 -0.9039 -0.6404
 9569SOL    HW230149   4.904   3.652   6.771 -0.2810 -0.4178  0.4115
 9570SOL     OW30150   0.919   6.244   1.453 -0.5911 -0.1852 -0.2797
 9570SOL    HW130151   0.922   6.330   1.411  0.8120  0.0714  0.3054
 9570SOL    HW230152   0.846   6.199   1.410 -1.0577  1.1259 -0.9064
 9571SOL     OW30153   7.536   2.518   3.850 -0.1889  0.3090  0.2259
 9571SOL    HW130154   7.572   2.574   3.781 -3.2360  2.7607  0.4208
 9571SOL    HW230155   7.552   2.567   3.931  1.2775 -1.4360  1.0523
 9572SOL     OW30156   2.043   1.180   3.829 -0.1098  0.3949  0.7997
 9572SOL    HW130157   2.131   1.217   3.819  1.3630 -2.5469  1.8022
 9572SOL    HW230158   2.038   1.153   3.921 -1.0741 -1.7583  0.1712
 9573SOL     OW30159   1.867   5.184   3.836  0.5491 -0.6332  0.5664
 9573SOL    HW130160   1.885   5.101   3.880 -1.5383 -0.5679  1.6705
 9573SOL    HW230161   1.809   5.160   3.763  1.8440 -0.3906 -0.5962
 9574SOL     OW30162   1.782   1.189  12.110 -1.0913 -0.7991 -0.1020
 9574SOL    HW130163   1.700   1.147  12.084 -1.2265 -0.4765 -0.1973
 9574SOL    HW230164   1.832   1.196  12.029 -1.3661 -0.1190 -0.2145
 9575SOL     OW30165   0.152   0.870   8.418 -0.4157 -0.4351 -0.3327
 9575SOL    HW130166   0.241   0.898   8.399 -0.2398 -0.1895  0.8087
 9575SOL    HW230167   0.097   0.932   8.370 -0.0053 -1.2997 -2.0398
 9576SOL     OW30168   1.433   5.857   7.162  0.1895  0.4391  0.2307
 9576SOL    HW130169   1.350   5.838   7.119  1.5870  0.9147 -2.9451
 9576SOL    HW230170   1.451   5.779   7.215 -1.4201 -0.4094 -0.4080
 9577SOL     OW30171   7.202   4.252  12.373  0.8004 -0.0245 -0.2078
 9577SOL    HW130172   7.122   4.297  12.348  1.3288 -0.3861 -2.8480
 9577SOL    HW230173   7.173   4.177  12.424 -0.6537 -0.6128 -1.8002
 9578SOL     OW30174   4.212   2.545   4.625 -0.2012 -0.0633  0.0685
 9578SOL    HW130175   4.230   2.638   4.607 -1.1254  0.0697 -0.2692
 9578SOL    HW230176   4.120   2.544   4.654 -0.0653 -0.8245  0.5023
 9579SOL     OW30177   1.851   4.494   0.650  0.0584 -0.7877  0.0473
 9579SOL    HW130178   1.872   4.577   0.692 -0.4347 -0.1488 -0.9422
 9579SOL    HW230179   1.769   4.510   0.605  1.0593 -1.1211 -2.0132
 9580SOL     OW30180   6.146   7.766   4.903  0.0637  0.2081 -0.1262
 9580SOL    HW130181   6.127   7.815   4.983  2.5566  1.5943 -0.2901
 9580SOL    HW230182   6.061   7.757   4.860 -1.2122  0.1535  2.2227
 9581SOL     OW30183   6.744   3.405   7.449  0.5710  0.0288 -0.3870
 9581SOL    HW130184   6.683   3.408   7.375  1.7178 -0.8916 -1.3987
 9581SOL    HW230185   6.708   3.336   7.506 -0.1639  0.5513 -0.1979
 9582SOL     OW30186   3.224   4.712   6.456 -0.7276 -1.1051 -0.0712
 9582SOL    HW130187   3.211   4.703   6.551 -0.0822 -2.9041 -0.1148
 9582SOL    HW230188   3.318   4.702   6.444 -0.6218  0.5528 -0.7880
 9583SOL     OW30189   2.405   3.932   6.660  0.3358 -0.2600 -0.0189
 9583SOL    HW130190   2.354   3.880   6.722  2.1971 -2.2813 -0.0417
 9583SOL    HW230191   2.374   3.905   6.574  0.1506 -0.0662 -0.0134
 9584SOL     OW30192   0.711   3.522   0.940  0.1098 -0.0272  0.7097
 9584SOL    HW130193   0.787   3.506   0.996 -1.3982  2.1292  3.6325
 9584SOL    HW230194   0.723   3.611   0.908 -0.2391 -0.3957 -0.5086
 9585SOL     OW30195   4.688   4.722   7.776 -0.0105  0.6159  0.7297
 9585SOL    HW130196   4.714   4.665   7.848  1.5846  1.0295  0.5024
 9585SOL    HW230197   4.739   4.692   7.701 -3.0687 -1.1050 -0.8515
 9586SOL     OW30198   6.709   5.498   1.355  0.4285  0.0190 -0.3382
 9586SOL    HW130199   6.757   5.573   1.321  0.6490 -0.3542 -0.8543
 9586SOL    HW230200   6.764   5.422   1.335 -0.3243 -0.4053 -0.8581
 9587SOL     OW30201   2.010   7.273   9.749 -0.8182  0.5489 -0.1102
 9587SOL    HW130202   1.984   7.285   9.841 -1.4030  0.9802 -0.3254
 9587SOL    HW230203   2.103   7.251   9.754 -0.9498  0.0953  0.6138
 9588SOL     OW30204   7.556   0.298  11.199  0.1277  0.5164 -0.5743
 9588SOL    HW130205   7.479   0.353  11.186 -0.9845 -0.6235  0.8663
 9588SOL    HW230206   7.627   0.359  11.219 -1.0083  1.4438  0.7486
 9589SOL     OW30207   3.169   7.619  12.385  0.7642 -0.2097 -0.2336
 9589SOL    HW130208   3.077   7.594  12.398  0.3421  2.1081  2.3280
 9589SOL    HW230209   3.218   7.537  12.391 -0.9594 -1.2210  0.9877
 9590SOL     OW30210   1.639   4.815  11.603  0.4859 -0.4701 -0.0240
 9590SOL    HW130211   1.701   4.743  11.591 -1.2042 -1.9901 -0.1940
 9590SOL    HW230212   1.633   4.827  11.698  1.8351  0.4630 -0.0354
 9591SOL     OW30213   6.717   0.417   9.586  0.2222 -0.3607 -0.6323
 9591SOL    HW130214   6.685   0.488   9.529  0.4651  1.1322  1.0011
 9591SOL    HW230215   6.672   0.339   9.554  0.4639  0.3714 -2.9386
 9592SOL     OW30216   6.326   7.398   4.508 -0.4036 -0.4436 -0.3656
 9592SOL    HW130217   6.303   7.348   4.586 -2.3984 -1.0864 -1.3029
 9592SOL    HW230218   6.272   7.477   4.513  2.2655  1.4785  0.7963
 9593SOL     OW30219   5.608   1.196  11.644 -0.1227 -0.0500 -0.2238
 9593SOL    HW130220   5.542   1.221  11.579 -1.0669 -0.9413  0.3604
 9593SOL    HW230221   5.602   1.101  11.648 -0.5842  0.0181  1.6507
 9594SOL     OW30222   5.890   5.117  11.229  0.1469  0.3295 -0.4937
 9594SOL    HW130223   5.900   5.147  11.319  0.6955 -0.6161 -0.2320
 9594SOL    HW230224   5.857   5.194  11.182  0.7234  1.0908  0.3188
 9595SOL     OW30225   3.625   4.789  11.815 -0.4233 -1.0405  0.1513
 9595SOL    HW130226   3.659   4.700  11.809  1.6706 -0.3501  0.9288
 9595SOL    HW230227   3.696   4.840  11.853 -0.3608  1.6322 -3.0990
 9596SOL     OW30228   3.348   3.559   5.375  0.1922  0.0878 -0.0986
 9596SOL    HW130229   3.264   3.522   5.349  1.4039 -2.0518 -1.2409
 9596SOL    HW230230   3.342   3.568   5.470 -0.5057 -2.3660  0.1642
 9597SOL     OW30231   0.090   4.390   6.996 -0.1024  0.2628  0.3805
 9597SOL    HW130232   0.067   4.424   6.909  0.5592 -0.8642 -0.2599
 9597SOL    HW230233   0.166   4.443   7.023 -1.0974  1.4855  0.8675
 9598SOL     OW30234   3.777   1.796   8.500  1.0319  0.1632  1.1413
 9598SOL    HW130235   3.696   1.825   8.459  1.0810 -0.6833  0.4260
 9598SOL    HW230236   3.841   1.796   8.429  1.2853 -0.6432  1.3638
 9599SOL     OW30237   2.048   4.615   3.848  0.3220 -0.7309 -0.4601
 9599SOL    HW130238   2.027   4.522   3.848  0.0768 -0.6747 -1.2814
 9599SOL    HW230239   1.981   4.656   3.794  0.5068 -0.0891 -0.2179
 9600SOL     OW30240   1.410   3.462   6.993 -0.2667 -0.1715  0.4648
 9600SOL    HW130241   1.362   3.413   6.926  0.4146 -0.3457  0.0907
 9600SOL    HW230242   1.345   3.481   7.061 -0.4139 -2.1786  0.9483
 9601SOL     OW30243   3.875   4.974   9.816  0.2680 -0.3624  0.0174
 9601SOL    HW130244   3.959   5.012   9.841 -0.2580  1.5526 -0.9664
 9601SOL    HW230245   3.876   4.974   9.720 -1.2265  0.6237 -0.0294
 9602SOL     OW30246   0.554   0.611   6.710 -0.0292  0.3125  0.3580
 9602SOL    HW130247   0.500   0.630   6.787  1.0931 -1.9905  1.8382
 9602SOL    HW230248   0.519   0.528   6.676  1.9066 -0.7515  0.8021
 9603SOL     OW30249   0.079   3.975   8.074 -0.3621  0.1556  0.2744
 9603SOL    HW130250   0.163   3.986   8.029 -1.0143  0.1040 -0.9939
 9603SOL    HW230251   0.056   3.883   8.060  0.2582 -0.3519  2.2629
 9604SOL     OW30252   6.722   2.206   7.054 -0.1033 -0.2413 -0.5099
 9604SOL    HW130253   6.778   2.212   7.131  1.7552 -0.3507 -1.8087
 9604SOL    HW230254   6.636   2.182   7.089  0.8477 -0.9831  1.4506
 9605SOL     OW30255   2.472   7.192   9.199  0.6676  0.0734  0.1866
 9605SOL    HW130256   2.429   7.172   9.116  0.5440  1.3072 -0.0748
 9605SOL    HW230257   2.406   7.239   9.250  0.2825 -1.8556  1.5615
 9606SOL     OW30258   0.913   3.084  11.691 -0.4015 -0.3489 -0.3509
 9606SOL    HW130259   0.862   3.165  11.685 -0.4231 -0.1646  1.7724
 9606SOL    HW230260   0.968   3.096  11.768  0.4727 -1.8933 -0.7048
 9607SOL     OW30261   1.812   6.970   0.754  0.2634 -0.0539 -0.3124
 9607SOL    HW130262   1.759   7.049   0.766 -0.0377 -0.2148 -0.5582
 9607SOL    HW230263   1.750   6.898   0.764  0.6581 -0.2817  0.5347
 9608SOL     OW30264   2.841   4.301   2.829 -0.4776  0.1894 -0.9101
 9608SOL    HW130265   2.773   4.329   2.890 -0.4103  1.1604 -1.2536
 9608SOL    HW230266   2.843   4.371   2.763 -0.7951 -1.0135 -2.2279
 9609SOL     OW30267   4.611   3.159   1.357  0.3643 -0.4399 -0.7701
 9609SOL    HW130268   4.516   3.174   1.359 -0.1283 -3.0528 -0.3909
 9609SOL    HW230269   4.627   3.117   1.273  0.7950 -1.9322  0.0163
 9610SOL     OW30270   0.516   6.562  11.622 -0.0089  0.5641  0.5565
 9610SOL    HW130271   0.455   6.524  11.560 -2.1234  2.6407  1.2085
 9610SOL    HW230272   0.554   6.636  11.575  1.1206  0.0095  0.5714
 9611SOL     OW30273   7.945   4.407   7.487  0.7670 -0.5444 -0.2011
 9611SOL    HW130274   8.031   4.448   7.485 -0.0720  1.3000  0.0419
 9611SOL    HW230275   7.915   4.418   7.577  0.3430 -1.3622 -0.2356
 9612SOL     OW30276   3.456   6.336  11.696 -0.3552  0.5497  0.5483
 9612SOL    HW130277   3.502   6.355  11.614 -1.0234  0.8566  0.2318
 9612SOL    HW230278   3.472   6.413  11.750 -0.9694  0.9159  0.2182
 9613SOL     OW30279   1.257   6.673  10.433  0.2552  0.4490  0.0091
 9613SOL    HW130280   1.291   6.659  10.345 -0.1625  0.6767 -0.1888
 9613SOL    HW230281   1.236   6.766  10.437 -1.5469  0.0814 -0.3059
 9614SOL     OW30282   3.860   2.332   6.422  0.3183  0.3291 -0.1372
 9614SOL    HW130283   3.937   2.321   6.367  1.0615 -1.1689  1.1397
 9614SOL    HW230284   3.835   2.243   6.448 -1.8324  0.7727 -0.4700
 9615SOL     OW30285   1.474   7.800   6.100  0.2845 -0.1479  0.0364
 9615SOL    HW130286   1.413   7.727   6.109  1.7003 -1.3236  0.4739
 9615SOL    HW230287   1.462   7.851   6.181  2.3322 -2.3687  1.8920
 9616SOL     OW30288   7.237   6.456   6.130 -0.5376 -0.2027 -0.4833
 9616SOL    HW130289   7.148   6.482   6.153 -0.5046 -0.9796  0.5865
 9616SOL    HW230290   7.244   6.474   6.036 -0.4738  3.6752  0.0782
 9617SOL     OW30291   3.790   1.578   0.010  0.1367  0.2779  0.1782
 9617SOL    HW130292   3.707   1.623  -0.001 -0.1205 -0.3899 -0.8132
 9617SOL    HW230293   3.806   1.577   0.104 -1.5107 -0.5431  0.4737
 9618SOL     OW30294   7.468   1.859   8.618  0.0925 -0.4877  0.5436
 9618SOL    HW130295   7.487   1.880   8.526 -2.8383 -0.3254 -0.1258
 9618SOL    HW230296   7.463   1.764   8.620 -0.5599 -0.4569  0.3707
 9619SOL     OW30297   2.987   2.265  11.649 -0.2679 -0.4783 -0.5485
 9619SOL    HW130298   3.076   2.288  11.676 -0.6745  0.8942 -0.3236
 9619SOL    HW230299   2.994   2.254  11.554 -0.0755  0.8206 -0.7084
 9620SOL     OW30300   5.618   4.932   8.267  0.1992  0.2411 -0.2198
 9620SOL    HW130301   5.693   4.916   8.210  0.3723  0.7219 -0.1319
 9620SOL    HW230302   5.655   4.978   8.343 -0.1672  0.3824 -0.1252
 9621SOL     OW30303   0.385   1.908   0.589  0.7002  0.2719 -0.3103
 9621SOL    HW130304   0.411   1.852   0.662  2.2557  0.0404 -0.9929
 9621SOL    HW230305   0.405   1.997   0.618  3.1456  0.0464 -1.1004
 9622SOL     OW30306   1.373   6.854   6.481  0.2998  0.7578  0.0837
 9622SOL    HW130307   1.381   6.895   6.567 -0.3787 -1.8603  1.5009
 9622SOL    HW230308   1.280   6.861   6.460  0.1341 -0.2063  0.4511
 9623SOL     OW30309   3.480   2.056   9.780 -0.6285  0.2599  0.0189
 9623SOL    HW130310   3.559   2.019   9.740 -0.6614  0.0023  0.1937
 9623SOL    HW230311   3.495   2.151   9.778 -0.4341  0.2265 -0.1962
 9624SOL     OW30312   3.409   6.334  11.247  0.2881 -0.4090 -0.4066
 9624SOL    HW130313   3.478   6.361  11.308  0.5274 -0.5187 -0.6264
 9624SOL    HW230314   3.343   6.294  11.302  0.3558 -0.2166 -0.1816
 9625SOL     OW30315   1.499   2.294   8.020 -0.0177  0.6496  0.0782
 9625SOL    HW130316   1.576   2.266   7.970  0.5989  0.2500  1.2097
 9625SOL    HW230317   1.425   2.250   7.979  0.4339  0.5469 -0.6396
 9626SOL     OW30318   4.932   2.783   6.842  0.0027 -0.3115  0.5891
 9626SOL    HW130319   4.991   2.839   6.791 -0.1338 -1.1044 -0.4775
 9626SOL    HW230320   4.987   2.748   6.911 -0.0983  1.7333  1.7801
 9627SOL     OW30321   2.549   7.847   3.514  0.7213 -0.3252  0.1926
 9627SOL    HW130322   2.643   7.868   3.511  0.7787 -0.1284  2.2283
 9627SOL    HW230323   2.512   7.897   3.441  2.3220 -1.2924 -1.3772
 9628SOL     OW30324   2.072   4.870  10.328 -0.2871 -0.6498  0.1017
 9628SOL    HW130325   2.053   4.803  10.393  0.3836  1.0994  2.2030
 9628SOL    HW230326   2.160   4.848  10.295  0.0372 -0.6782  0.9701
 9629SOL     OW30327   2.780   3.170   2.296 -0.0032  0.0268 -0.7519
 9629SOL    HW130328   2.821   3.160   2.382 -0.7741  0.4229 -0.3326
 9629SOL    HW230329   2.832   3.113   2.239 -0.0644 -0.9830  0.1593
 9630SOL     OW30330   3.212   5.649   0.399 -0.5187 -0.3300 -0.0666
 9630SOL    HW130331   3.283   5.649   0.335 -1.2777 -2.4936 -1.0020
 9630SOL    HW230332   3.137   5.613   0.352 -0.9006 -2.7680  2.1785
 9631SOL     OW30333   7.220   1.933   7.152  0.2160  0.1548  0.3197
 9631SOL    HW130334   7.275   1.890   7.218 -0.5157 -0.3077  0.6335
 9631SOL    HW230335   7.206   1.867   7.085  0.1443  0.3121  0.1789
 9632SOL     OW30336   5.325   5.072   0.989 -0.0055 -0.3577  0.7237
 9632SOL    HW130337   5.367   5.086   1.074 -3.1042 -0.1982  2.3880
 9632SOL    HW230338   5.300   5.160   0.959 -1.0940 -0.5805  0.9148
 9633SOL     OW30339   3.676   4.824  12.447 -0.0796 -0.1883  0.2998
 9633SOL    HW130340   3.726   4.903  12.427 -1.2404  0.5151  0.1256
 9633SOL    HW230341   3.667   4.780  12.363 -0.7268  0.2674  0.1253
 9634SOL     OW30342   6.394   7.036  11.544 -0.0755  0.1957  0.0299
 9634SOL    HW130343   6.479   7.030  11.586 -0.8772 -0.5437  1.6245
 9634SOL    HW230344   6.390   7.126  11.511  1.6815 -0.0432 -0.9918
 9635SOL     OW30345   5.134   1.345   5.840 -0.0645 -0.2273  0.8267
 9635SOL    HW130346   5.213   1.293   5.827 -0.8356 -1.5730  1.3314
 9635SOL    HW230347   5.064   1.281   5.847 -1.3210  0.9567 -0.2883
 9636SOL     OW30348   2.403   4.068   9.744 -0.5074 -0.2952 -0.1153
 9636SOL    HW130349   2.486   4.037   9.782  1.0177  0.6624 -2.4417
 9636SOL    HW230350   2.361   4.116   9.815  1.8536  0.8028  0.6569
 9637SOL     OW30351   6.335   7.511  12.471  0.2317 -0.2378  0.8619
 9637SOL    HW130352   6.422   7.484  12.439  1.3024  1.9497  1.7035
 9637SOL    HW230353   6.294   7.552  12.395  0.0953 -0.8959  0.5751
 9638SOL     OW30354   2.910   6.539   5.649 -0.1769 -0.1195  0.3214
 9638SOL    HW130355   2.949   6.600   5.587 -0.0947 -0.8017 -0.3099
 9638SOL    HW230356   2.894   6.460   5.598 -1.3068 -0.2561  0.8508
 9639SOL     OW30357   3.514   2.622   4.408 -0.5325  0.3314  0.4323
 9639SOL    HW130358   3.440   2.615   4.468 -0.6995 -1.5083  0.0875
 9639SOL    HW230359   3.507   2.544   4.353  0.3461  1.3114 -1.1368
 9640SOL     OW30360   7.408   1.045   2.288 -0.4396  0.6968  0.1680
 9640SOL    HW130361   7.355   1.005   2.356 -0.0216  1.0276  0.6915
 9640SOL    HW230362   7.384   1.138   2.291 -2.0300  0.4152 -1.5937
 9641SOL     OW30363   6.068   2.203  10.135  0.0231 -0.5993  0.2440
 9641SOL    HW130364   6.154   2.173  10.106  1.4390  2.5754  0.7687
 9641SOL    HW230365   6.075   2.207  10.231 -0.0461  1.2911  0.2075
 9642SOL     OW30366   4.032   3.241   3.683  0.4076 -0.0775 -0.3314
 9642SOL    HW130367   4.065   3.156   3.656  0.0851 -0.6257  0.9327
 9642SOL    HW230368   4.091   3.304   3.642  0.7514 -0.8988 -1.1359
 9643SOL     OW30369   2.764   2.131   4.160 -0.1664  0.2262  0.4754
 9643SOL    HW130370   2.764   2.225   4.174 -0.9714  0.1900  0.7724
 9643SOL    HW230371   2.847   2.113   4.116  0.2074  1.0048  0.8472
 9644SOL     OW30372   6.818   5.050   8.841 -0.1421 -0.1642 -0.0156
 9644SOL    HW130373   6.777   5.080   8.922 -0.0885 -1.1005  0.3673
 9644SOL    HW230374   6.908   5.083   8.845  0.6725 -2.3620  1.5602
 9645SOL     OW30375   0.225   4.054   1.915  0.0231  0.5109 -0.3338
 9645SOL    HW130376   0.251   3.987   1.978 -0.2544  0.5231 -0.2054
 9645SOL    HW230377   0.243   4.137   1.959 -3.8349  0.6492  1.4138
 9646SOL     OW30378   0.412   3.231   6.478 -0.0662  0.2345 -0.2696
 9646SOL    HW130379   0.453   3.246   6.393  0.1910  0.1037 -0.1665
 9646SOL    HW230380   0.476   3.180   6.528 -0.3790 -0.0307 -0.1348
 9647SOL     OW30381   0.722   1.896  10.211  0.0373  0.2489 -0.2627
 9647SOL    HW130382   0.718   1.964  10.144  1.6812  1.2414  0.5536
 9647SOL    HW230383   0.814   1.895  10.238 -0.1685 -1.5613  0.5244
 9648SOL     OW30384   4.821   4.454   6.947  0.3528  0.6431 -0.0276
 9648SOL    HW130385   4.912   4.483   6.947  0.2446  0.9881 -0.2398
 9648SOL    HW230386   4.775   4.521   6.998  0.4823 -0.3810  1.4863
 9649SOL     OW30387   7.965   2.329   9.036  0.3095  0.1383 -0.4736
 9649SOL    HW130388   7.931   2.287   9.115  0.6821  1.4273  0.4002
 9649SOL    HW230389   8.010   2.407   9.068 -1.8070  2.1606 -2.1198
 9650SOL     OW30390   5.967   5.183   1.942 -0.1991 -0.3867 -0.4211
 9650SOL    HW130391   5.922   5.106   1.975 -0.0298 -0.1605  0.3582
 9650SOL    HW230392   5.925   5.257   1.986  0.3686 -0.1151 -0.3205
 9651SOL     OW30393   4.726   0.416   7.121  0.1665 -0.7350  0.5208
 9651SOL    HW130394   4.694   0.326   7.113  1.1147 -1.0851  0.5905
 9651SOL    HW230395   4.698   0.444   7.208  1.3254 -1.5692  1.1912
 9652SOL     OW30396   3.440   1.192   9.895  0.2473  0.4016  0.2375
 9652SOL    HW130397   3.440   1.116   9.953 -0.3888 -0.6257 -1.0369
 9652SOL    HW230398   3.532   1.217   9.888  0.3611  0.3389  1.4168
 9653SOL     OW30399   6.465   4.143   3.102  0.5217  0.2372  0.4486
 9653SOL    HW130400   6.544   4.097   3.130 -0.0436 -0.4530  0.9686
 9653SOL    HW230401   6.399   4.074   3.093 -0.5816  1.0069  2.0523
 9654SOL     OW30402   4.466   1.277   5.689  0.1345  0.1376  0.5151
 9654SOL    HW130403   4.493   1.284   5.781  0.2449  1.4274  0.3996
 9654SOL    HW230404   4.547   1.288   5.640  0.1719 -1.1537  0.2546
 9655SOL     OW30405   3.458   5.126  11.333  0.4101  0.1344  0.1464
 9655SOL    HW130406   3.553   5.137  11.339  0.5000 -0.3333 -0.3900
 9655SOL    HW230407   3.442   5.036  11.361  0.4870 -0.9114 -2.8792
 9656SOL     OW30408   4.332   0.111  11.846  0.5149 -0.0864  0.0917
 9656SOL    HW130409   4.426   0.097  11.839  0.2354 -2.1522 -0.0698
 9656SOL    HW230410   4.311   0.085  11.936 -0.1686 -1.7437 -0.4982
 9657SOL     OW30411   1.438   1.173   1.212 -0.5930  0.1395  0.0528
 9657SOL    HW130412   1.413   1.108   1.278 -0.6460 -0.5283 -0.6064
 9657SOL    HW230413   1.355   1.214   1.187 -0.9863 -1.4657 -1.4979
 9658SOL     OW30414   3.327   4.909  11.938  0.0488  0.2566 -0.2475
 9658SOL    HW130415   3.304   4.817  11.942  1.1350  0.0218  1.2841
 9658SOL    HW230416   3.350   4.924  11.846  0.9172 -1.2663 -0.3145
 9659SOL     OW30417   0.416   4.398   4.635  0.0362  0.3699  0.1551
 9659SOL    HW130418   0.424   4.469   4.571  0.6041  0.7556  0.6453
 9659SOL    HW230419   0.360   4.435   4.703  0.0720  0.2339  0.2562
 9660SOL     OW30420   5.969   4.348   4.483  0.3987  0.1121  0.6148
 9660SOL    HW130421   5.878   4.378   4.479  0.5370  0.6938  1.5449
 9660SOL    HW230422   5.986   4.337   4.576  1.1553 -0.3933  0.4186
 9661SOL     OW30423   1.396   0.362   2.465 -0.8169  0.2228  0.3328
 9661SOL    HW130424   1.423   0.449   2.439 -3.3056  1.1290  0.4445
 9661SOL    HW230425   1.326   0.377   2.529 -1.9618 -1.8136 -0.3388
 9662SOL     OW30426   5.419   0.020   9.323 -0.3728  0.2269 -0.3795
 9662SOL    HW130427   5.331   0.011   9.360 -0.7775 -2.7750 -1.7335
 9662SOL    HW230428   5.405   0.023   9.228  0.9268 -2.3424 -0.7598
 9663SOL     OW30429   3.543   1.235   9.482  0.4318  0.6816  0.2332
 9663SOL    HW130430   3.608   1.274   9.423  1.8096 -0.7610  0.7342
 9663SOL    HW230431   3.591   1.219   9.563 -0.0217 -2.0180  0.0545
 9664SOL     OW30432   0.866   2.528   6.680  0.2539  0.2949  0.1354
 9664SOL    HW130433   0.902   2.569   6.759  1.0112 -2.4418  1.3392
 9664SOL    HW230434   0.838   2.602   6.625 -1.0057  2.3718  3.2448
 9665SOL     OW30435   5.662   0.885  10.265  0.0201  0.5369  0.4949
 9665SOL    HW130436   5.577   0.913  10.231 -0.3117 -0.8537  0.1121
 9665SOL    HW230437   5.685   0.952  10.329  0.0237  2.5033 -1.4594
 9666SOL     OW30438   3.373   4.959   3.783  0.1704 -0.1705  0.4499
 9666SOL    HW130439   3.327   5.015   3.846  0.9562  0.3222  0.6065
 9666SOL    HW230440   3.435   4.909   3.836 -0.1974 -0.8525  0.2481
 9667SOL     OW30441   1.069   7.703   8.621 -0.6567 -0.1439  0.1517
 9667SOL    HW130442   0.984   7.710   8.577 -0.6238 -1.3756 -0.1201
 9667SOL    HW230443   1.096   7.794   8.634 -1.3091  0.2485 -1.1223
 9668SOL     OW30444   1.009   2.526  12.470 -0.3336 -0.1607 -0.0922
 9668SOL    HW130445   1.099   2.531  12.438 -0.0457 -2.2636  0.2246
 9668SOL    HW230446   1.009   2.452  12.531 -1.3932  2.1669  3.0323
 9669SOL     OW30447   1.005   2.937  11.345  0.1069  0.5020 -0.6429
 9669SOL    HW130448   0.909   2.933  11.349  0.0989  1.1859  2.3059
 9669SOL    HW230449   1.026   3.027  11.370  1.5237 -0.0080  0.1200
 9670SOL     OW30450   5.839   2.439  11.605 -0.0365 -0.0792 -0.0364
 9670SOL    HW130451   5.758   2.390  11.620 -0.0237 -1.3279 -3.2574
 9670SOL    HW230452   5.906   2.371  11.596  0.9378  0.8209  0.3222
 9671SOL     OW30453   1.523   2.179   4.801  0.3262  0.2864 -0.4750
 9671SOL    HW130454   1.535   2.085   4.818 -0.0929  0.2613 -0.3095
 9671SOL    HW230455   1.431   2.187   4.777  0.5556  0.5385 -1.3117
 9672SOL     OW30456   3.167   0.553   0.410  0.0748  0.3170 -0.1191
 9672SOL    HW130457   3.199   0.630   0.362  0.3969 -0.3785 -1.0459
 9672SOL    HW230458   3.072   0.555   0.397  0.0207  0.8723  0.3400
 9673SOL     OW30459   1.137   4.328   7.928 -0.3791 -0.1729  0.3231
 9673SOL    HW130460   1.132   4.240   7.965 -0.3024 -0.7422 -0.9692
 9673SOL    HW230461   1.047   4.361   7.934 -0.7825 -1.0150 -0.7209
 9674SOL     OW30462   7.014   2.579   8.285  0.5129  0.3808  0.0553
 9674SOL    HW130463   6.925   2.588   8.251  0.6795  0.8987 -0.2572
 9674SOL    HW230464   7.004   2.524   8.363 -0.3592  2.0138  1.1581
 9675SOL     OW30465   7.163   1.799   6.795 -0.4540 -0.3974  0.2283
 9675SOL    HW130466   7.119   1.775   6.713  1.9688  0.6237 -1.4762
 9675SOL    HW230467   7.227   1.729   6.809 -0.0833  0.0236  0.6489
 9676SOL     OW30468   3.814   6.085   3.076  0.3649  0.1309 -0.3372
 9676SOL    HW130469   3.785   6.010   3.127  0.6369 -0.4288 -0.9852
 9676SOL    HW230470   3.764   6.079   2.994 -1.6661  2.2070  0.6384
 9677SOL     OW30471   7.901   6.409   6.613  0.5064  0.3625  0.1328
 9677SOL    HW130472   7.905   6.368   6.699 -0.1956 -0.2575 -0.1187
 9677SOL    HW230473   7.845   6.486   6.626  0.7450  0.5074  0.3162
 9678SOL     OW30474   6.133   1.678   6.658 -0.0604 -0.1851 -0.8784
 9678SOL    HW130475   6.130   1.688   6.753 -1.5303  1.8139 -1.0726
 9678SOL    HW230476   6.116   1.765   6.624 -0.9966 -1.1091 -2.9796
 9679SOL     OW30477   2.911   4.687   8.536 -0.1132  0.0937  0.0246
 9679SOL    HW130478   2.849   4.694   8.463  0.1272  2.2944 -0.0132
 9679SOL    HW230479   2.992   4.658   8.495 -0.4347 -0.4003 -0.2840
 9680SOL     OW30480   0.892   1.001   3.614  0.5010 -0.3912 -0.1717
 9680SOL    HW130481   0.807   0.985   3.574  1.2481 -1.2378 -1.4715
 9680SOL    HW230482   0.882   1.086   3.657 -1.5585 -1.2762  1.3309
 9681SOL     OW30483   7.928   6.191   2.239 -0.3003 -0.0470 -0.2711
 9681SOL    HW130484   7.922   6.120   2.303  0.9837 -0.2380 -0.3213
 9681SOL    HW230485   7.843   6.192   2.195 -2.0846  1.5739  2.9172
 9682SOL     OW30486   3.232   0.483   7.365  0.7070 -0.6749 -0.1498
 9682SOL    HW130487   3.244   0.421   7.292 -0.5477  0.6620 -1.5696
 9682SOL    HW230488   3.269   0.565   7.332 -0.6860  0.1865  0.3664
 9683SOL     OW30489   4.368   3.312   0.296 -0.0448 -0.0918  0.2422
 9683SOL    HW130490   4.348   3.238   0.239 -1.4926 -0.4892  1.2303
 9683SOL    HW230491   4.299   3.312   0.362  0.4931  1.5323  0.8681
 9684SOL     OW30492   1.046   2.059   1.262  0.5631 -0.0705  0.3170
 9684SOL    HW130493   1.112   2.075   1.194 -0.6054 -2.0820 -1.3847
 9684SOL    HW230494   1.076   1.980   1.307  0.2797  0.1008  0.8155
 9685SOL     OW30495   1.995   2.757   6.065  0.1400  0.4311 -0.4624
 9685SOL    HW130496   2.069   2.807   6.028  0.5594  2.4742  2.7772
 9685SOL    HW230497   1.920   2.784   6.012  1.2990 -0.1838 -2.5673
 9686SOL     OW30498   3.253   4.393   9.190  0.0675  0.2382  0.3062
 9686SOL    HW130499   3.282   4.454   9.257  1.0224  1.1485 -0.8843
 9686SOL    HW230500   3.315   4.404   9.118 -0.7669 -0.8806 -0.6445
 9687SOL     OW30501   4.108   2.205   7.752  0.6529  0.1915  0.2445
 9687SOL    HW130502   4.186   2.228   7.703 -0.0606 -0.0731 -1.0420
 9687SOL    HW230503   4.048   2.278   7.739  0.7888  0.5629  1.5230
 9688SOL     OW30504   6.419   4.417   5.001  0.3579  0.6021  0.6239
 9688SOL    HW130505   6.446   4.338   5.049 -0.9569 -0.0226  0.4009
 9688SOL    HW230506   6.347   4.452   5.053 -1.7972 -0.6608 -1.3103
 9689SOL     OW30507   7.101   7.780  11.482 -0.4270  0.2749 -0.4660
 9689SOL    HW130508   7.061   7.724  11.548  0.1826  0.0324 -0.2942
 9689SOL    HW230509   7.111   7.724  11.405  1.7374 -0.3994  0.2288
 9690SOL     OW30510   2.827   3.316  10.942  0.3404  0.1923  0.3751
 9690SOL    HW130511   2.868   3.359  11.017  2.1035 -2.2434  0.9269
 9690SOL    HW230512   2.761   3.257  10.980  0.4993 -0.2791 -0.0626
 9691SOL     OW30513   1.210   4.126  12.337 -0.6573 -0.3590 -0.1760
 9691SOL    HW130514   1.204   4.117  12.242  0.1085 -0.9472 -0.1695
 9691SOL    HW230515   1.299   4.099  12.359 -1.5535 -2.6088  0.9788
 9692SOL     OW30516   1.837   7.557   6.276  0.1846  0.1530 -0.4069
 9692SOL    HW130517   1.790   7.602   6.206  2.3225  1.5833 -1.0485
 9692SOL    HW230518   1.814   7.465   6.266 -2.0606  0.7289 -0.9178
 9693SOL     OW30519   3.023   1.242   3.612  0.4155  0.1227  0.2577
 9693SOL    HW130520   2.981   1.325   3.590  1.1970  0.4416 -0.0763
 9693SOL    HW230521   2.966   1.203   3.678 -1.4271 -0.3461 -1.5163
 9694SOL     OW30522   4.343   5.352   8.675 -0.1211  0.4688 -0.3114
 9694SOL    HW130523   4.290   5.399   8.739  0.0151  2.3772 -1.5256
 9694SOL    HW230524   4.290   5.275   8.652 -0.5526  0.2092  1.3892
 9695SOL     OW30525   6.878   6.981   8.077  0.0223 -0.0278 -0.4886
 9695SOL    HW130526   6.969   6.954   8.087 -0.4911 -1.6722 -0.0876
 9695SOL    HW230527   6.869   7.057   8.135  1.3287  0.6942 -1.1819
 9696SOL     OW30528   5.768   4.012   2.152 -0.0794  0.4666 -0.3222
 9696SOL    HW130529   5.854   4.024   2.193  0.0735  0.5784 -0.6721
 9696SOL    HW230530   5.767   4.074   2.080  0.0998 -0.5143 -1.1871
 9697SOL     OW30531   2.953   7.705   1.423 -0.0860 -0.0194 -0.1993
 9697SOL    HW130532   2.932   7.634   1.362  0.4440 -1.0433  0.7610
 9697SOL    HW230533   2.873   7.757   1.428  0.1256  0.6268 -2.4300
 9698SOL     OW30534   5.428   3.241   4.465  0.0476  0.0421 -0.0987
 9698SOL    HW130535   5.515   3.209   4.487 -1.0089 -2.7527  0.4674
 9698SOL    HW230536   5.434   3.336   4.472  2.8158 -0.1217  0.6815
 9699SOL     OW30537   5.723   6.231   2.102 -0.3801  0.5602 -0.3562
 9699SOL    HW130538   5.810   6.249   2.068 -0.3844 -1.1407 -1.3612
 9699SOL    HW230539   5.677   6.187   2.031 -0.5869 -2.5963  1.5258
 9700SOL     OW30540   1.423   4.579   9.224 -0.3084 -0.0604 -0.1310
 9700SOL    HW130541   1.356   4.514   9.244  0.3047 -1.4427 -2.2607
 9700SOL    HW230542   1.380   4.638   9.162 -0.2577  0.4398  0.3050
 9701SOL     OW30543   5.677   7.011   5.190 -0.4586 -0.2729 -0.1438
 9701SOL    HW130544   5.742   6.950   5.226  0.8620  0.1512 -1.7280
 9701SOL    HW230545   5.604   6.955   5.164 -0.0595 -0.9476  0.1635
 9702SOL     OW30546   1.377   4.554   2.893  0.3741  0.0293 -0.6462
 9702SOL    HW130547   1.361   4.603   2.812 -0.5530  0.4403 -0.2345
 9702SOL    HW230548   1.401   4.622   2.957 -3.2371  0.4318  0.5780
 9703SOL     OW30549   1.458   0.264   9.096 -0.1216  0.4552 -0.1570
 9703SOL    HW130550   1.364   0.278   9.090 -0.3429 -1.1920 -1.4822
 9703SOL    HW230551   1.468   0.199   9.165 -0.0635  0.0407 -0.5448
 9704SOL     OW30552   6.544   2.101  11.163 -0.0429 -0.8682  0.5872
 9704SOL    HW130553   6.586   2.178  11.123 -1.1615 -0.6066 -0.1334
 9704SOL    HW230554   6.508   2.134  11.245 -1.2643 -0.3848 -0.1183
 9705SOL     OW30555   3.292   1.519   8.639  0.3749  0.1400 -0.5855
 9705SOL    HW130556   3.256   1.580   8.703 -0.3261 -0.1845 -0.6582
 9705SOL    HW230557   3.347   1.461   8.691  0.7957  0.6399 -0.4696
 9706SOL     OW30558   6.959   6.204   4.579 -0.2116 -0.8904  0.1739
 9706SOL    HW130559   6.886   6.145   4.592  0.5978 -1.9585  0.0029
 9706SOL    HW230560   6.934   6.284   4.625 -1.3710 -1.3089  0.3091
 9707SOL     OW30561   4.914   7.249   4.345 -0.2641  0.0465  0.0668
 9707SOL    HW130562   4.880   7.213   4.263  1.8551 -1.6229 -0.1693
 9707SOL    HW230563   4.891   7.183   4.411 -0.4820  0.5676  0.5158
 9708SOL     OW30564   2.026   0.313   7.987 -0.0689 -0.1469  0.2018
 9708SOL    HW130565   2.015   0.393   7.936 -2.0700 -0.9771 -0.7657
 9708SOL    HW230566   1.974   0.327   8.066 -0.7751 -0.6294 -0.1663
 9709SOL     OW30567   0.912   6.830   1.052  0.3348  0.0279  0.1290
 9709SOL    HW130568   0.894   6.876   1.134  0.2851  0.8666 -0.3456
 9709SOL    HW230569   0.841   6.767   1.044  0.7888 -0.6311  1.1368
 9710SOL     OW30570   1.543   5.281   0.404  0.4193 -0.5807  0.2867
 9710SOL    HW130571   1.594   5.224   0.345  0.6732  1.1998 -1.3267
 9710SOL    HW230572   1.607   5.343   0.438  0.0140 -0.7708  1.4292
 9711SOL     OW30573   3.721   6.907   8.350 -0.3055 -0.1472 -0.0559
 9711SOL    HW130574   3.807   6.919   8.391 -1.1676 -0.1712  1.9020
 9711SOL    HW230575   3.734   6.837   8.286  1.5670  1.2562 -1.3169
 9712SOL     OW30576   7.889   7.067  11.373  0.6466  0.0910  0.0460
 9712SOL    HW130577   7.938   7.102  11.298  0.8774  3.2305  1.4875
 9712SOL    HW230578   7.955   7.022  11.426  1.5450  2.0191  0.6625
 9713SOL     OW30579   2.530   2.242  10.220  0.8388 -0.3911 -0.0359
 9713SOL    HW130580   2.614   2.287  10.209 -0.1309  1.8008  1.0319
 9713SOL    HW230581   2.506   2.258  10.311 -0.8016 -0.8918 -0.3526
 9714SOL     OW30582   2.731   0.262   8.980  0.0786  0.2001 -0.3601
 9714SOL    HW130583   2.712   0.328   8.913 -0.3705  0.4331 -0.0028
 9714SOL    HW230584   2.689   0.295   9.059 -1.1482 -1.0671 -0.4430
 9715SOL     OW30585   6.088   7.596   6.954 -0.1259  0.2988  0.9594
 9715SOL    HW130586   6.033   7.525   6.986  0.0758  0.3065  1.3432
 9715SOL    HW230587   6.046   7.626   6.874  0.2879 -0.8668  0.2776
 9716SOL     OW30588   4.412   3.000   6.675 -0.0597 -0.0327  0.1188
 9716SOL    HW130589   4.387   3.089   6.650 -0.6344 -0.5913 -1.4028
 9716SOL    HW230590   4.382   2.945   6.603 -0.4241 -1.5791  1.3697
 9717SOL     OW30591   4.635   0.169   9.133 -0.0888 -0.2981  0.1559
 9717SOL    HW130592   4.657   0.262   9.125  0.9600 -0.4841  0.6537
 9717SOL    HW230593   4.585   0.162   9.214 -0.8874 -0.0548 -0.3094
 9718SOL     OW30594   6.771   2.304   8.188 -0.1887 -0.1823 -0.3409
 9718SOL    HW130595   6.694   2.354   8.217 -0.1553  0.1501 -0.8217
 9718SOL    HW230596   6.837   2.322   8.255  0.3368  1.6931 -1.2965
 9719SOL     OW30597   6.078   6.197   8.604 -0.1905 -0.3139  0.1810
 9719SOL    HW130598   6.030   6.243   8.673 -2.3012 -2.3725  0.1857
 9719SOL    HW230599   6.061   6.250   8.525  1.0631  1.2631  0.9134
 9720SOL     OW30600   6.937   0.639   8.034  0.3467  0.3227  0.0644
 9720SOL    HW130601   6.871   0.680   7.979  1.6719  0.5344 -1.4455
 9720SOL    HW230602   6.896   0.559   8.067 -0.6279  0.4183 -0.8783
 9721SOL     OW30603   4.091   1.640  12.158 -0.2635  1.0173  0.1743
 9721SOL    HW130604   4.141   1.595  12.090  0.3373  0.8982  0.6829
 9721SOL    HW230605   4.011   1.668  12.115  0.2334  1.1938 -0.6529
 9722SOL     OW30606   1.222   6.025   6.726 -0.4689 -0.4283  0.4998
 9722SOL    HW130607   1.276   5.959   6.769  0.7882 -1.2996 -2.2306
 9722SOL    HW230608   1.263   6.109   6.749 -1.2464 -0.6119  2.8324
 9723SOL     OW30609   4.088   7.262  12.441 -0.2974 -0.0707  0.3570
 9723SOL    HW130610   4.048   7.290  12.359 -1.4820 -0.9270  0.6104
 9723SOL    HW230611   4.050   7.175  12.457 -2.0393  1.0532  3.0463
 9724SOL     OW30612   6.798   6.939  10.035  0.7704  0.2751 -0.4758
 9724SOL    HW130613   6.836   7.023  10.060  1.4831 -0.1950  0.0441
 9724SOL    HW230614   6.858   6.874  10.070 -0.8373 -0.5227  0.9261
 9725SOL     OW30615   2.384   6.193   1.401 -0.2685 -0.5390 -0.1496
 9725SOL    HW130616   2.397   6.241   1.319  0.7126 -1.3949 -0.5133
 9725SOL    HW230617   2.459   6.134   1.407 -1.0740 -1.5270  0.6401
 9726SOL     OW30618   2.155   0.860   2.735  0.4400 -0.7239 -0.0049
 9726SOL    HW130619   2.133   0.898   2.820  1.3984  1.2988 -0.6098
 9726SOL    HW230620   2.071   0.851   2.690 -0.0804 -1.8657  1.1473
 9727SOL     OW30621   6.726   3.308  10.498 -0.2998  0.3569 -0.6661
 9727SOL    HW130622   6.738   3.257  10.419 -1.1103  0.6283 -0.9795
 9727SOL    HW230623   6.775   3.261  10.566  0.0018 -0.1332 -1.2232
 9728SOL     OW30624   3.396   2.634   3.348 -0.0040 -0.0227  0.4081
 9728SOL    HW130625   3.333   2.572   3.311 -2.3705  1.0741  2.3229
 9728SOL    HW230626   3.399   2.705   3.284 -0.2869 -0.3409  0.0360
 9729SOL     OW30627   2.311   5.714  10.097 -0.3303 -0.4829  0.0181
 9729SOL    HW130628   2.292   5.654  10.026  1.3615 -2.3823  1.0663
 9729SOL    HW230629   2.368   5.780  10.059 -0.5227 -0.7151 -0.6754
 9730SOL     OW30630   4.314   1.428   0.484  0.1242  0.1820  0.3963
 9730SOL    HW130631   4.299   1.369   0.558 -2.5477  1.6559  1.1424
 9730SOL    HW230632   4.290   1.376   0.407  1.2008 -0.7802  0.6779
 9731SOL     OW30633   3.133   6.694   0.504  0.3103 -0.3615  0.2080
 9731SOL    HW130634   3.138   6.600   0.520 -0.9821 -0.4984 -0.0295
 9731SOL    HW230635   3.093   6.701   0.417  0.5373  0.4051  0.1584
 9732SOL     OW30636   4.171   3.530   4.301 -0.7500 -0.0534 -0.7055
 9732SOL    HW130637   4.077   3.527   4.284 -0.6306 -1.4378 -1.2187
 9732SOL    HW230638   4.212   3.504   4.219  0.1540  1.6105 -0.8343
 9733SOL     OW30639   5.428   0.756   3.862 -0.5686 -0.9470  0.0519
 9733SOL    HW130640   5.507   0.737   3.812 -0.4040  0.9213 -0.5082
 9733SOL    HW230641   5.456   0.820   3.928 -1.5659 -0.3359 -0.0907
 9734SOL     OW30642   3.942   2.040   1.134 -0.1718 -0.2057  0.2146
 9734SOL    HW130643   3.986   2.097   1.071 -1.0032  0.5000  0.2455
 9734SOL    HW230644   3.894   1.977   1.079  0.3238 -0.5530  0.1732
 9735SOL     OW30645   3.752   5.289   2.322  0.0797 -0.5577 -0.2843
 9735SOL    HW130646   3.782   5.359   2.381  0.6410 -1.1865  0.1828
 9735SOL    HW230647   3.784   5.316   2.236  1.1563 -0.7335  0.0535
 9736SOL     OW30648   0.270   1.406   9.620 -0.2428  0.3093  0.2411
 9736SOL    HW130649   0.269   1.343   9.691  0.0553 -0.1015 -0.1135
 9736SOL    HW230650   0.249   1.490   9.661 -1.3593 -0.1316  0.5996
 9737SOL     OW30651   2.086   1.871   6.780  0.0210 -0.6292 -0.1113
 9737SOL    HW130652   2.179   1.876   6.803  0.0684 -2.3341  0.1777
 9737SOL    HW230653   2.083   1.891   6.687  0.4126  1.4623  0.2751
 9738SOL     OW30654   3.017   2.965   6.075  0.4279  0.4010  0.4655
 9738SOL    HW130655   2.933   2.937   6.112  0.0636  0.6601 -0.1547
 9738SOL    HW230656   3.017   3.060   6.086  0.4192  0.4535  0.0077
 9739SOL     OW30657   5.482   3.765   3.431  0.5723  0.3993 -0.0684
 9739SOL    HW130658   5.535   3.720   3.365  0.6997 -1.4934  1.2408
 9739SOL    HW230659   5.545   3.814   3.483  0.4952  1.7226 -1.1687
 9740SOL     OW30660   5.064   4.221   3.120  0.0081 -0.0940  0.2509
 9740SOL    HW130661   5.133   4.216   3.186 -0.1042 -2.7024  0.2857
 9740SOL    HW230662   4.996   4.163   3.152 -0.6928 -0.2656 -1.4306
 9741SOL     OW30663   6.386   2.325   4.653  0.0101 -0.1900  0.4044
 9741SOL    HW130664   6.372   2.250   4.596  1.5389 -0.8646  0.8683
 9741SOL    HW230665   6.306   2.330   4.706  0.5968 -2.6752  1.6610
 9742SOL     OW30666   1.280   4.451  10.145  0.3869  0.0101 -0.5761
 9742SOL    HW130667   1.352   4.428  10.204  0.6664 -1.5926 -1.4903
 9742SOL    HW230668   1.323   4.473  10.062 -0.0851  0.9937 -0.5868
 9743SOL     OW30669   5.572   4.674   3.892 -0.1718  0.0150 -0.2935
 9743SOL    HW130670   5.537   4.728   3.962 -1.5542 -2.1618  0.7890
 9743SOL    HW230671   5.615   4.600   3.937 -0.1584 -0.8878 -1.7083
 9744SOL     OW30672   1.214   0.464  11.195  0.0280  0.6505  0.3869
 9744SOL    HW130673   1.176   0.475  11.108 -2.8444  0.9587  1.5623
 9744SOL    HW230674   1.196   0.547  11.240  0.9660  0.3054  1.4766
 9745SOL     OW30675   2.517   3.714   9.185  0.1181  0.5459 -0.0833
 9745SOL    HW130676   2.563   3.686   9.264 -0.3854 -0.1557 -0.0346
 9745SOL    HW230677   2.585   3.755   9.131  0.6796  0.0773  0.2577
 9746SOL     OW30678   2.773   0.906   9.203  0.0121  0.5760 -0.1753
 9746SOL    HW130679   2.785   0.885   9.110 -2.0443  1.8178 -0.7879
 9746SOL    HW230680   2.790   1.000   9.209  0.5122  0.4341  0.8137
 9747SOL     OW30681   5.566   1.169   3.820  0.0285 -0.6617  0.5603
 9747SOL    HW130682   5.477   1.135   3.816 -0.1800 -0.0286 -0.7673
 9747SOL    HW230683   5.601   1.138   3.904 -1.8240  0.0435  1.6418
 9748SOL     OW30684   3.564   0.439   2.787  0.3323 -0.0153 -0.1514
 9748SOL    HW130685   3.657   0.456   2.775  0.6858 -0.7997  1.2292
 9748SOL    HW230686   3.553   0.428   2.882 -0.7434 -2.1935 -0.4629
 9749SOL     OW30687   0.235   1.667   8.773 -0.0114 -0.0922  0.4409
 9749SOL    HW130688   0.307   1.604   8.773  0.9434  0.9674  0.4254
 9749SOL    HW230689   0.167   1.625   8.719  0.8427 -0.8274 -0.1069
 9750SOL     OW30690   2.123   6.969   8.835 -0.4482 -0.6044 -0.5007
 9750SOL    HW130691   2.087   7.051   8.802  0.4649 -1.0078 -2.6669
 9750SOL    HW230692   2.082   6.958   8.922 -2.4774  0.8722 -1.1852
 9751SOL     OW30693   1.365   1.931   7.570  0.5847  0.1174 -0.2417
 9751SOL    HW130694   1.426   2.005   7.561  2.2066 -0.8809  1.6239
 9751SOL    HW230695   1.370   1.908   7.663  2.1387 -3.8901 -1.1136
 9752SOL     OW30696   1.384   7.676   8.572 -0.3431 -0.3634  0.9788
 9752SOL    HW130697   1.395   7.581   8.578  0.5534 -0.2582  1.0644
 9752SOL    HW230698   1.290   7.690   8.587 -0.4611 -1.2199  1.0890
 9753SOL     OW30699   7.755   6.641  10.892  0.1476  0.5611  0.5073
 9753SOL    HW130700   7.791   6.716  10.938 -1.1777  1.9597 -0.6112
 9753SOL    HW230701   7.770   6.661  10.799 -2.8764  0.9701  0.0178
 9754SOL     OW30702   0.215   2.094   9.005 -0.5156  0.4465  0.3024
 9754SOL    HW130703   0.141   2.068   8.950 -0.2793 -1.4988  0.8325
 9754SOL    HW230704   0.180   2.099   9.093 -0.7540  2.9910  0.1585
 9755SOL     OW30705   6.542   0.992   4.432 -0.0185  0.1044  0.4115
 9755SOL    HW130706   6.589   1.075   4.430  0.2096 -0.0331 -0.2330
 9755SOL    HW230707   6.610   0.926   4.442 -0.2279  0.0096  1.2733
 9756SOL     OW30708   2.412   0.402   9.987  0.0728  0.5018  0.5868
 9756SOL    HW130709   2.317   0.401   9.990  0.0534  0.8610  0.1483
 9756SOL    HW230710   2.438   0.320  10.028 -0.4837 -0.8530 -1.5957
 9757SOL     OW30711   7.745   7.305   3.670  0.0964 -0.2629  0.4584
 9757SOL    HW130712   7.791   7.379   3.631 -1.7362 -0.2926 -1.9434
 9757SOL    HW230713   7.660   7.341   3.696 -0.4868 -1.3062  0.0627
 9758SOL     OW30714   4.949   4.866   3.140 -0.8963  0.0489 -0.7068
 9758SOL    HW130715   4.864   4.904   3.119 -1.0162  0.3843  0.3554
 9758SOL    HW230716   4.970   4.900   3.227 -1.3011 -2.8378  0.6171
 9759SOL     OW30717   4.350   4.988  12.319 -0.4048  0.5350 -0.1782
 9759SOL    HW130718   4.292   4.917  12.291  0.4651 -0.4212  0.3630
 9759SOL    HW230719   4.323   5.006  12.409  1.1332 -1.0651  0.6861
 9760SOL     OW30720   4.406   7.379   8.772  0.4131  0.2528  0.1313
 9760SOL    HW130721   4.351   7.302   8.760  2.6926 -1.3281 -0.8629
 9760SOL    HW230722   4.381   7.437   8.700 -0.6861  0.0745  0.3480
 9761SOL     OW30723   1.774   7.790   0.109  0.3326 -0.0445 -0.5757
 9761SOL    HW130724   1.682   7.780   0.087  0.2132 -0.4878  0.1081
 9761SOL    HW230725   1.787   7.885   0.116 -1.1658  0.0276  3.6732
 9762SOL     OW30726   0.264   0.864  11.216 -0.2172 -0.0463  0.1099
 9762SOL    HW130727   0.278   0.954  11.248  0.7326 -0.7751  1.8504
 9762SOL    HW230728   0.231   0.817  11.293  0.0226 -1.3700 -0.5915
 9763SOL     OW30729   3.604   5.884  11.652  0.4431  0.3771  0.5286
 9763SOL    HW130730   3.695   5.899  11.628  1.0494 -1.2744  1.6441
 9763SOL    HW230731   3.557   5.883  11.568  1.3667  1.6508 -0.0211
 9764SOL     OW30732   3.322   2.169   8.867 -0.7121 -0.4842  0.3987
 9764SOL    HW130733   3.235   2.130   8.859  0.8209 -4.2467  0.1533
 9764SOL    HW230734   3.341   2.204   8.780 -1.6124 -0.3854  0.2318
 9765SOL     OW30735   2.926   5.502  10.236 -0.0682  0.2124  0.0001
 9765SOL    HW130736   2.993   5.477  10.172 -1.0234 -0.3344 -0.8260
 9765SOL    HW230737   2.974   5.519  10.317  1.1455  0.6772 -0.8050
 9766SOL     OW30738   1.908   1.745   8.912  0.3603 -1.0012  0.3006
 9766SOL    HW130739   1.914   1.654   8.882  0.4019 -0.7898 -0.3657
 9766SOL    HW230740   1.991   1.762   8.956  0.0326 -1.5251  1.1359
 9767SOL     OW30741   0.822   7.201   1.895  0.1487  0.3021  0.3181
 9767SOL    HW130742   0.822   7.265   1.824 -1.3452  0.3414  0.3333
 9767SOL    HW230743   0.837   7.117   1.853  4.5124  0.7668  0.5057
 9768SOL     OW30744   5.059   7.196   0.810 -0.6653 -0.2664 -0.7368
 9768SOL    HW130745   4.996   7.124   0.808  0.5554 -1.3624 -0.1671
 9768SOL    HW230746   5.072   7.218   0.717 -0.5736 -1.1836 -0.9470
 9769SOL     OW30747   5.064   4.757  10.339 -0.7324 -1.2199 -0.2844
 9769SOL    HW130748   5.083   4.685  10.279  3.3385 -1.4295  0.9664
 9769SOL    HW230749   5.098   4.835  10.294 -1.7686 -0.6482 -0.0965
 9770SOL     OW30750   4.074   3.145   2.354  0.1461  0.2785  0.1196
 9770SOL    HW130751   4.070   3.188   2.268 -1.4153  0.1118  0.0964
 9770SOL    HW230752   4.112   3.212   2.411 -0.7401  1.1342 -0.2641
 9771SOL     OW30753   7.967   2.716  10.567 -0.8476 -0.0132 -0.4679
 9771SOL    HW130754   7.874   2.734  10.583 -1.0669 -0.8665 -0.7276
 9771SOL    HW230755   7.975   2.621  10.578  0.5340  0.3254  2.2488
 9772SOL     OW30756   3.938   1.294  11.689  0.1518 -0.3630  0.4327
 9772SOL    HW130757   4.015   1.242  11.712 -0.4806 -2.4535 -1.6907
 9772SOL    HW230758   3.949   1.312  11.595 -1.0775  0.8786  0.4977
 9773SOL     OW30759   4.066   6.119  11.447 -0.0433  0.2615 -0.4200
 9773SOL    HW130760   4.084   6.026  11.463  1.2770  0.7927  1.5509
 9773SOL    HW230761   4.125   6.142  11.375  1.8004  0.1790  0.9746
 9774SOL     OW30762   3.357   3.902   0.953 -0.3342 -0.0908  0.1227
 9774SOL    HW130763   3.295   3.845   1.000 -1.0248  0.9779  0.5405
 9774SOL    HW230764   3.309   3.983   0.939  0.0997 -0.1340 -1.8685
 9775SOL     OW30765   0.017   7.730   3.850  0.2812 -0.1617  0.8914
 9775SOL    HW130766  -0.001   7.702   3.939  2.2750 -0.5183  1.2151
 9775SOL    HW230767  -0.018   7.660   3.795 -0.5177 -0.1742  1.3983
 9776SOL     OW30768   5.786   2.206   5.774  0.4622  0.2179  0.1198
 9776SOL    HW130769   5.818   2.161   5.852  1.2170 -0.8622 -0.7744
 9776SOL    HW230770   5.756   2.291   5.806 -0.4902 -0.6937  1.7810
 9777SOL     OW30771   7.560   1.886  10.389  0.6576  0.1877  0.2981
 9777SOL    HW130772   7.643   1.878  10.436  0.1050 -2.4560  0.9988
 9777SOL    HW230773   7.583   1.927  10.306  2.4094  0.8030  1.0435
 9778SOL     OW30774   0.642   3.783   8.403  0.0208 -0.4516 -0.1942
 9778SOL    HW130775   0.679   3.768   8.490  0.2650  1.1730  0.0168
 9778SOL    HW230776   0.614   3.696   8.374  0.2319 -1.0837  1.3582
 9779SOL     OW30777   3.558   0.932   1.295 -0.6499 -0.7216  0.0086
 9779SOL    HW130778   3.558   0.837   1.285 -2.5883 -0.8815  0.9777
 9779SOL    HW230779   3.515   0.965   1.216  0.2988 -0.5997 -0.4730
 9780SOL     OW30780   3.971   3.510   1.942 -0.2439  0.2446 -0.0392
 9780SOL    HW130781   4.051   3.517   1.890  1.1589  1.0306  2.0791
 9780SOL    HW230782   3.935   3.599   1.944 -0.6918  0.0725 -0.2533
 9781SOL     OW30783   5.602   2.731  11.702  0.4362 -0.0797 -0.4075
 9781SOL    HW130784   5.627   2.810  11.653 -0.4203  1.1617  1.0892
 9781SOL    HW230785   5.683   2.705  11.746  0.8723 -0.4183 -1.3666
 9782SOL     OW30786   7.492   7.176   9.141  0.0380  0.3415  0.5512
 9782SOL    HW130787   7.522   7.086   9.134  1.3888  0.7908  0.3106
 9782SOL    HW230788   7.543   7.213   9.213  0.2178  1.1837  0.0044
 9783SOL     OW30789   3.238   6.649   2.090 -0.1425 -0.4196 -0.1329
 9783SOL    HW130790   3.191   6.591   2.029 -1.8100  0.7566 -0.0274
 9783SOL    HW230791   3.327   6.651   2.056 -0.1715 -2.5167 -0.5197
 9784SOL     OW30792   3.930   7.269  10.708 -0.2191  0.1458 -0.6666
 9784SOL    HW130793   3.975   7.198  10.662  0.3167  0.9983 -1.5086
 9784SOL    HW230794   3.956   7.259  10.799  0.7306 -0.0900 -0.9492
 9785SOL     OW30795   7.171   2.922   6.620 -0.5989  0.2359 -0.5722
 9785SOL    HW130796   7.159   2.930   6.526 -1.5661  0.8497 -0.4056
 9785SOL    HW230797   7.265   2.906   6.631 -0.5049  0.0252 -1.6373
 9786SOL     OW30798   1.960   0.978  11.105  0.3729 -0.1428  0.7458
 9786SOL    HW130799   2.005   0.921  11.166  1.1188 -0.0065  0.3395
 9786SOL    HW230800   2.022   1.049  11.089  0.2358 -0.2307 -0.2331
 9787SOL     OW30801   1.534   6.326   7.060  0.3002  0.0822 -0.0056
 9787SOL    HW130802   1.496   6.323   7.148  1.2075  1.1417  0.4445
 9787SOL    HW230803   1.595   6.399   7.063  1.7118 -1.0106 -0.9765
 9788SOL     OW30804   4.509   0.767   3.561 -0.1101  1.0667  0.2533
 9788SOL    HW130805   4.438   0.705   3.543 -0.1469  0.9262  0.8456
 9788SOL    HW230806   4.495   0.839   3.499 -0.7338  1.0102  0.3243
 9789SOL     OW30807   0.750   6.847  12.145 -0.4460 -0.3549 -0.2955
 9789SOL    HW130808   0.731   6.937  12.173 -1.2438 -1.2995  2.5158
 9789SOL    HW230809   0.837   6.853  12.106 -0.7001  1.7093 -0.6880
 9790SOL     OW30810   2.317   5.555   0.420 -0.3569 -0.3995  0.4047
 9790SOL    HW130811   2.271   5.619   0.476 -2.0502 -1.0248 -0.2120
 9790SOL    HW230812   2.249   5.519   0.364  0.7571 -2.0452  0.0512
 9791SOL     OW30813   6.965   6.191  10.022 -0.2149 -0.0894  0.0646
 9791SOL    HW130814   6.998   6.121  10.078  0.5867  1.2267  1.3032
 9791SOL    HW230815   7.026   6.193   9.948 -1.0268 -1.5523 -0.6822
 9792SOL     OW30816   6.057   1.357   4.962 -0.2245 -0.0867 -0.2357
 9792SOL    HW130817   6.121   1.313   5.019  0.0647  0.6682  0.0364
 9792SOL    HW230818   5.980   1.301   4.966  0.2362 -0.7340 -0.1425
 9793SOL     OW30819   2.524   6.969  11.521 -0.4526  0.0428 -0.1432
 9793SOL    HW130820   2.592   6.993  11.458 -0.7302  0.0652 -0.4370
 9793SOL    HW230821   2.444   6.962  11.468 -0.2193 -2.5660 -0.3162
 9794SOL     OW30822   2.133   2.563  10.479 -0.5567 -0.5595 -0.1043
 9794SOL    HW130823   2.067   2.629  10.461 -0.6833 -0.9065 -0.9815
 9794SOL    HW230824   2.196   2.605  10.538 -0.5096  0.4097 -0.8359
 9795SOL     OW30825   5.257   4.415  11.421 -0.0586 -0.2322 -0.1967
 9795SOL    HW130826   5.168   4.437  11.446 -0.2055  0.2129 -1.0616
 9795SOL    HW230827   5.259   4.426  11.326  0.8785 -0.3542 -0.2066
 9796SOL     OW30828   2.493   3.833  11.691 -0.7237 -0.5825 -0.3711
 9796SOL    HW130829   2.542   3.751  11.695 -1.9054 -1.2913  0.0488
 9796SOL    HW230830   2.403   3.809  11.713 -1.1583  0.7800 -0.5340
 9797SOL     OW30831   1.018   5.735  10.622 -0.1436 -0.4501  0.8484
 9797SOL    HW130832   1.106   5.753  10.589 -0.5653  0.7300  0.2785
 9797SOL    HW230833   0.960   5.775  10.556 -1.1431 -2.2366  0.6045
 9798SOL     OW30834   1.686   3.976   7.491 -0.1883 -0.2849  0.1132
 9798SOL    HW130835   1.605   3.925   7.477  0.9392 -2.1577  0.0734
 9798SOL    HW230836   1.756   3.915   7.470  1.2596  1.6116 -0.8169
 9799SOL     OW30837   5.194   7.185   2.786 -0.0621  0.2311 -0.0004
 9799SOL    HW130838   5.189   7.131   2.707  0.6532 -0.3637  0.3447
 9799SOL    HW230839   5.226   7.270   2.755  0.2904 -0.0227 -0.3469
 9800SOL     OW30840   5.563   1.002   9.498 -0.2642  0.2404  0.1514
 9800SOL    HW130841   5.470   1.022   9.483 -0.8934 -0.8319  2.2697
 9800SOL    HW230842   5.568   0.977   9.590  2.4505  1.8722  0.5749
 9801SOL     OW30843   7.143   6.867   9.604  0.0402  0.5921 -0.0238
 9801SOL    HW130844   7.155   6.836   9.693 -0.1357  0.4908 -0.0360
 9801SOL    HW230845   7.062   6.826   9.574 -1.0748  2.2838  0.5114
 9802SOL     OW30846   7.803   5.297   8.331 -0.3992 -0.0532  0.4308
 9802SOL    HW130847   7.781   5.204   8.326  1.5244 -0.5286 -0.2500
 9802SOL    HW230848   7.781   5.331   8.244  2.8660 -0.9293 -0.8960
 9803SOL     OW30849   6.819   5.480   3.097 -0.6241  0.5527 -0.3590
 9803SOL    HW130850   6.846   5.516   3.013 -0.3207  0.9116 -0.1112
 9803SOL    HW230851   6.794   5.390   3.078  0.7920  0.1929 -0.5899
 9804SOL     OW30852   0.013   7.593   7.130 -0.0907  0.5348  0.5223
 9804SOL    HW130853   0.086   7.552   7.084  0.2871  0.8174  0.8692
 9804SOL    HW230854  -0.038   7.635   7.060 -0.7574 -0.9082  0.0950
 9805SOL     OW30855   2.283   5.227   0.325  0.2085 -0.6024  0.3698
 9805SOL    HW130856   2.246   5.248   0.240 -0.5104 -1.6886  0.4000
 9805SOL    HW230857   2.211   5.190   0.375  0.3065  1.1078  1.8946
 9806SOL     OW30858   6.192   0.367   4.042  0.1778 -0.1678  0.1323
 9806SOL    HW130859   6.198   0.324   3.957 -1.2456  0.5588 -0.3722
 9806SOL    HW230860   6.239   0.309   4.102  2.5535  0.0580 -1.3762
 9807SOL     OW30861   2.556   1.470   5.962  0.1739  0.3258 -0.1842
 9807SOL    HW130862   2.501   1.521   6.022  0.1837  0.0567  0.0537
 9807SOL    HW230863   2.636   1.453   6.011 -0.4513 -1.2767  0.3332
 9808SOL     OW30864   5.483   5.058   0.727 -0.5078 -0.3196  0.2701
 9808SOL    HW130865   5.395   5.031   0.751 -0.7669  1.6730  1.8481
 9808SOL    HW230866   5.500   5.136   0.780  1.4509  0.5184 -1.4204
 9809SOL     OW30867   1.662   0.041  10.339 -0.4507  0.2910 -0.0101
 9809SOL    HW130868   1.668  -0.001  10.253  1.3593  0.6111 -0.0579
 9809SOL    HW230869   1.568   0.058  10.350 -0.9045 -1.2064 -1.2078
 9810SOL     OW30870   4.126   5.784   5.139  0.5236  0.2658 -0.2157
 9810SOL    HW130871   4.110   5.761   5.047  0.2933 -0.3312 -0.0264
 9810SOL    HW230872   4.085   5.714   5.189  2.1597 -0.3604  0.3129
 9811SOL     OW30873   5.448   0.321   7.168  0.0319 -0.3670 -0.1444
 9811SOL    HW130874   5.448   0.402   7.218  0.3079 -0.8525  0.6560
 9811SOL    HW230875   5.528   0.276   7.195  0.2124 -0.6200 -1.0569
 9812SOL     OW30876   6.622   3.152   8.621 -0.0928  0.1300  0.1778
 9812SOL    HW130877   6.626   3.142   8.526  1.5665 -0.1965  0.2425
 9812SOL    HW230878   6.529   3.160   8.641 -0.4389  0.8037 -1.5282
 9813SOL     OW30879   3.041   2.822   3.913 -0.2755 -0.0515  0.0651
 9813SOL    HW130880   3.030   2.909   3.952  0.5687 -0.0313  0.2877
 9813SOL    HW230881   3.124   2.791   3.948 -0.6190 -0.9972  0.0634
 9814SOL     OW30882   4.452   0.090   8.600 -0.0113 -0.0390 -0.0724
 9814SOL    HW130883   4.456   0.064   8.692 -0.2121 -0.4490 -0.1779
 9814SOL    HW230884   4.390   0.029   8.560 -0.6262  0.7111 -0.2882
 9815SOL     OW30885   1.914   0.823   0.746  0.0471 -0.3031  0.4267
 9815SOL    HW130886   1.928   0.866   0.830  0.1538 -1.3494  0.9547
 9815SOL    HW230887   1.873   0.739   0.768  0.6274 -0.8531 -0.5059
 9816SOL     OW30888   6.167   3.441  12.093 -0.3504 -0.2226  0.1217
 9816SOL    HW130889   6.181   3.352  12.061  0.1371  0.1947 -0.8514
 9816SOL    HW230890   6.247   3.461  12.143  0.0911  0.1047 -0.6958
 9817SOL     OW30891   7.966   0.271   7.204 -0.0372  0.1113  0.6013
 9817SOL    HW130892   8.034   0.272   7.272  0.0158  1.2709  0.5485
 9817SOL    HW230893   7.986   0.347   7.149 -0.6029 -0.3056 -0.1911
 9818SOL     OW30894   3.949   5.983   1.555  0.4337 -0.0502  0.3795
 9818SOL    HW130895   3.973   5.919   1.621  0.6998 -1.3476 -0.9204
 9818SOL    HW230896   3.972   5.942   1.472 -2.2586  0.4151 -0.7016
 9819SOL     OW30897   3.172   7.332   5.889 -0.1840  0.3181 -0.3432
 9819SOL    HW130898   3.239   7.400   5.900 -0.9964  0.7409  3.0358
 9819SOL    HW230899   3.203   7.258   5.941 -1.8261  0.1574  0.4872
 9820SOL     OW30900   1.607   4.202   5.639 -0.3825  0.3463 -0.2675
 9820SOL    HW130901   1.627   4.295   5.637  1.4022  0.0088 -0.0615
 9820SOL    HW230902   1.553   4.190   5.717 -0.0171  1.1019  0.1089
 9821SOL     OW30903   6.774   4.706   3.331 -0.0395 -0.3099  0.0390
 9821SOL    HW130904   6.709   4.639   3.353 -0.7076 -0.2505 -1.6270
 9821SOL    HW230905   6.813   4.729   3.415 -0.3222 -2.2381  0.7634
 9822SOL     OW30906   0.875   0.974   2.904  0.4370 -0.0470 -0.4214
 9822SOL    HW130907   0.828   0.894   2.880 -0.7712  0.4592  0.1725
 9822SOL    HW230908   0.967   0.954   2.887  0.0260 -1.0768 -1.6103
 9823SOL     OW30909   1.703   1.347   1.029 -0.0937  0.0894  0.2641
 9823SOL    HW130910   1.692   1.262   1.072 -1.2097  0.3670  0.5549
 9823SOL    HW230911   1.663   1.410   1.090  1.1258  0.8967  0.2728
 9824SOL     OW30912   1.090   2.454   4.035  0.0032  0.4171  0.2726
 9824SOL    HW130913   1.155   2.408   3.982  0.1378 -0.4076  1.1190
 9824SOL    HW230914   1.038   2.384   4.075 -0.7688  1.0488  0.3906
 9825SOL     OW30915   5.296   5.761   3.701 -0.2594  0.0207 -0.1197
 9825SOL    HW130916   5.237   5.827   3.664 -0.0645 -0.5074 -1.4284
 9825SOL    HW230917   5.313   5.791   3.790 -0.4911  1.5229 -0.5535
 9826SOL     OW30918   5.034   4.605   8.502 -0.2958  0.9717 -0.5884
 9826SOL    HW130919   5.021   4.608   8.597  0.5468 -0.9793 -0.3735
 9826SOL    HW230920   4.953   4.641   8.466 -1.4481 -0.0493  0.8521
 9827SOL     OW30921   5.429   3.429  10.616 -0.4957  0.0799 -0.0109
 9827SOL    HW130922   5.424   3.522  10.592  0.8735  0.5439  1.3344
 9827SOL    HW230923   5.400   3.382  10.538 -0.6457  1.6251 -0.9189
 9828SOL     OW30924   7.960   4.709  11.540 -0.2050  0.4494  0.0447
 9828SOL    HW130925   8.049   4.741  11.557 -0.7634  1.8433  0.5135
 9828SOL    HW230926   7.942   4.737  11.450 -0.4449  0.8842  0.2224
 9829SOL     OW30927   2.587   7.415  10.709  0.3742  0.6200 -0.3832
 9829SOL    HW130928   2.645   7.377  10.774  1.2113 -0.6737 -1.8010
 9829SOL    HW230929   2.500   7.384  10.733  0.8809 -1.2347 -0.7785
 9830SOL     OW30930   6.858   3.835   8.149  0.5300  0.1337  0.3653
 9830SOL    HW130931   6.779   3.862   8.197  0.2249 -0.3437  0.1387
 9830SOL    HW230932   6.915   3.797   8.216  0.4212  0.1598  0.4735
 9831SOL     OW30933   5.518   5.997  12.202  0.1769  0.0952 -0.7105
 9831SOL    HW130934   5.531   6.016  12.295 -0.0236  0.3416 -0.7322
 9831SOL    HW230935   5.432   6.033  12.181  1.2290  2.3010 -1.5827
 9832SOL     OW30936   1.333   2.209   9.550  0.0889 -0.0562 -0.4241
 9832SOL    HW130937   1.336   2.185   9.642  0.3777 -0.6267 -0.5796
 9832SOL    HW230938   1.246   2.183   9.521  0.1499 -0.2725 -0.4162
 9833SOL     OW30939   2.559   2.674  11.348  0.4971 -0.5013  0.1122
 9833SOL    HW130940   2.492   2.720  11.299  0.4224 -1.2135 -0.4590
 9833SOL    HW230941   2.553   2.710  11.437 -0.3375 -0.2454 -0.0444
 9834SOL     OW30942   4.271   3.094   0.123  0.0170  0.3582  0.0879
 9834SOL    HW130943   4.269   3.168   0.063  1.4118 -0.8783 -1.5985
 9834SOL    HW230944   4.193   3.044   0.103  1.2066 -0.8333 -1.8487
 9835SOL     OW30945   1.168   5.679   1.627  0.2707 -0.3673  0.0668
 9835SOL    HW130946   1.142   5.589   1.643  0.2121 -0.2303  0.7940
 9835SOL    HW230947   1.189   5.683   1.534 -0.8852 -0.8379 -0.2256
 9836SOL     OW30948   0.325   4.650  12.457  0.3270  0.0164  0.3276
 9836SOL    HW130949   0.281   4.700  12.388  3.2123  2.2210 -0.0969
 9836SOL    HW230950   0.258   4.639  12.525 -1.4105  1.4062 -1.0514
 9837SOL     OW30951   1.447   3.667   1.675  0.0413 -0.1650 -0.3485
 9837SOL    HW130952   1.453   3.580   1.635  2.0604 -0.5362  0.6576
 9837SOL    HW230953   1.371   3.707   1.633 -0.0550 -1.8551 -1.9129
 9838SOL     OW30954   3.285   2.342   1.154  0.6143  0.5236 -0.4997
 9838SOL    HW130955   3.257   2.416   1.207 -0.1416 -0.4632  0.5373
 9838SOL    HW230956   3.249   2.359   1.067 -0.3600  0.9134 -0.0310
 9839SOL     OW30957   3.334   2.842   4.373 -0.0671  0.3749 -0.7316
 9839SOL    HW130958   3.426   2.820   4.387 -0.6960 -1.6057  0.7831
 9839SOL    HW230959   3.309   2.894   4.449 -0.3450  0.4866 -0.8936
 9840SOL     OW30960   3.385   6.567   4.767  0.3362 -0.7485  0.1968
 9840SOL    HW130961   3.458   6.578   4.828 -0.0900 -1.1504  0.7859
 9840SOL    HW230962   3.357   6.476   4.780  0.5802 -1.0083 -0.9732
 9841SOL     OW30963   5.314   0.084   7.611 -0.5082 -0.1490 -0.6698
 9841SOL    HW130964   5.300   0.172   7.574 -2.6562 -0.6379 -1.1753
 9841SOL    HW230965   5.307   0.025   7.536  1.0184 -0.7820 -0.3513
 9842SOL     OW30966   5.107   1.202   0.315  0.2191 -0.5154 -0.0917
 9842SOL    HW130967   5.162   1.267   0.272  1.2995 -1.9293 -0.9141
 9842SOL    HW230968   5.166   1.152   0.371 -0.8910  0.2592  1.8796
 9843SOL     OW30969   3.515   0.156   5.971  0.6140 -0.0920 -0.3270
 9843SOL    HW130970   3.486   0.066   5.984  0.0016  0.3596  1.7820
 9843SOL    HW230971   3.443   0.198   5.923  0.0849 -0.2719  0.3045
 9844SOL     OW30972   6.101   3.098   1.786 -0.1580 -0.2864 -0.0414
 9844SOL    HW130973   6.058   3.181   1.805  0.6471 -0.0603  0.8411
 9844SOL    HW230974   6.029   3.036   1.775 -0.8782  0.8847 -2.7181
 9845SOL     OW30975   3.796   7.039  11.726  0.2393  0.3042  0.4365
 9845SOL    HW130976   3.887   7.027  11.755  0.9978  0.5718 -1.6932
 9845SOL    HW230977   3.773   6.957  11.684 -0.3823  0.3831  0.6095
 9846SOL     OW30978   3.020   6.529   4.627 -0.3855  0.4377  0.3596
 9846SOL    HW130979   3.059   6.472   4.693  1.3343 -1.0468 -1.7544
 9846SOL    HW230980   3.036   6.617   4.659 -0.4753 -0.2110  2.3390
 9847SOL     OW30981   1.589   5.057   3.356 -0.2950  0.5276  0.1371
 9847SOL    HW130982   1.511   5.091   3.312 -1.3816 -0.9817  0.8155
 9847SOL    HW230983   1.565   4.969   3.384  2.0241 -0.4568 -0.6245
 9848SOL     OW30984   4.189   7.392   1.061 -0.2800 -0.4120 -0.2455
 9848SOL    HW130985   4.182   7.325   1.128 -0.6912  0.2291  0.3607
 9848SOL    HW230986   4.217   7.471   1.107 -0.1171 -0.0739 -0.8977
 9849SOL     OW30987   4.778   5.644   8.671  0.1227 -0.9035 -0.3106
 9849SOL    HW130988   4.733   5.560   8.657  2.4888 -2.6924  1.7631
 9849SOL    HW230989   4.816   5.636   8.758  0.9710  2.1292 -0.3137
 9850SOL     OW30990   1.720   6.190   5.329  0.2287  0.5651  0.6132
 9850SOL    HW130991   1.679   6.215   5.247  0.7256 -0.4717  0.0291
 9850SOL    HW230992   1.810   6.166   5.305  0.6533  1.1009  1.5965
 9851SOL     OW30993   6.953   3.560  12.346 -0.2435  0.7221 -0.6045
 9851SOL    HW130994   6.861   3.581  12.333  0.0673  1.9234 -1.0268
 9851SOL    HW230995   6.972   3.588  12.435 -0.8656 -1.8548  0.4327
 9852SOL     OW30996   0.600   0.037   5.422 -0.2095  0.0674 -0.2835
 9852SOL    HW130997   0.640   0.124   5.424 -0.7850  0.4773 -2.8698
 9852SOL    HW230998   0.627  -0.004   5.504  3.1660  1.3166 -0.6354
 9853SOL     OW30999   4.497   1.005   0.737 -0.4023 -0.1459  0.1450
 9853SOL    HW131000   4.437   1.004   0.663 -0.1874  1.3056 -0.0694
 9853SOL    HW231001   4.461   0.940   0.798 -0.5579 -1.4023 -1.2239
 9854SOL     OW31002   6.700   7.630   9.943 -0.1558 -0.2918 -0.5086
 9854SOL    HW131003   6.764   7.669   9.883  1.4901 -1.0236  0.6740
 9854SOL    HW231004   6.748   7.558   9.985 -1.9344 -1.1927  0.0853
 9855SOL     OW31005   1.018   7.968  11.713  0.1088 -0.0115  0.2024
 9855SOL    HW131006   1.014   8.008  11.626 -1.6293 -1.6956 -0.5773
 9855SOL    HW231007   1.053   7.880  11.697 -1.8473 -0.9661  0.8750
 9856SOL     OW31008   6.964   4.774   4.983 -0.2069 -0.4365 -0.4049
 9856SOL    HW131009   6.875   4.777   4.948  0.4333 -0.7856 -2.2130
 9856SOL    HW231010   6.991   4.865   4.989 -0.2918 -0.3665 -0.9971
 9857SOL     OW31011   3.602   5.075  11.041 -0.2548 -0.3639 -0.3987
 9857SOL    HW131012   3.523   5.057  10.990 -1.5136  2.4444  0.3662
 9857SOL    HW231013   3.654   5.133  10.985 -0.5853  0.8952  0.5484
 9858SOL     OW31014   3.832   5.394   0.822 -0.6275 -0.4641  0.1040
 9858SOL    HW131015   3.819   5.481   0.782 -2.4121 -0.4484  0.6608
 9858SOL    HW231016   3.922   5.397   0.855 -0.1815  0.6636 -1.1006
 9859SOL     OW31017   1.262   1.641   2.808 -0.4976 -0.4197  0.2464
 9859SOL    HW131018   1.194   1.690   2.762  1.8172  0.7912 -2.1740
 9859SOL    HW231019   1.272   1.561   2.756  0.9097  0.1182 -0.3529
 9860SOL     OW31020   7.087   6.876   7.816 -0.4327 -0.0445 -0.6554
 9860SOL    HW131021   7.139   6.800   7.843 -0.7598 -0.3729 -0.9342
 9860SOL    HW231022   7.120   6.948   7.869 -0.1503 -0.3920 -0.3548
 9861SOL     OW31023   5.894   4.865   4.909  0.3500 -0.3547 -0.1299
 9861SOL    HW131024   5.802   4.851   4.933  0.0488 -0.3757 -1.2404
 9861SOL    HW231025   5.937   4.889   4.991 -1.1816  2.4898 -0.0665
 9862SOL     OW31026   6.110   4.637   0.667 -0.5474  0.6485  0.2491
 9862SOL    HW131027   6.196   4.668   0.637 -0.1351 -0.9403 -0.3134
 9862SOL    HW231028   6.060   4.624   0.586  0.2701 -2.8018  0.1547
 9863SOL     OW31029   3.222   5.904   5.380  0.2408 -0.5868  0.3149
 9863SOL    HW131030   3.308   5.861   5.376  0.5958  0.0068  1.2340
 9863SOL    HW231031   3.238   5.986   5.427 -0.5711  0.2099 -0.7629
 9864SOL     OW31032   3.977   7.825   8.429 -0.0606 -0.3825 -0.0471
 9864SOL    HW131033   3.910   7.876   8.384 -2.2505 -1.3120  1.9134
 9864SOL    HW231034   3.953   7.831   8.522  3.8297  0.9351  1.0416
 9865SOL     OW31035   6.500   3.278   9.938  0.3490  0.2043  0.6491
 9865SOL    HW131036   6.575   3.333   9.962 -0.2924  1.3443  0.1304
 9865SOL    HW231037   6.446   3.334   9.882 -1.4008 -0.2495  1.7942
 9866SOL     OW31038   5.893   4.760   5.228 -0.9766  0.2549  0.1458
 9866SOL    HW131039   5.812   4.800   5.194 -1.0586  0.7328  0.8854
 9866SOL    HW231040   5.931   4.828   5.283 -0.1063 -0.0074 -0.1272
 9867SOL     OW31041   7.008   0.819   0.098 -0.0329 -0.2467  0.7634
 9867SOL    HW131042   7.086   0.770   0.071 -0.6639 -0.4289 -0.8558
 9867SOL    HW231043   7.019   0.833   0.192  0.5504 -2.8207  1.1469
 9868SOL     OW31044   1.423   5.081   3.606 -0.1221 -0.8672 -0.0487
 9868SOL    HW131045   1.383   5.056   3.522 -1.0161 -0.6948  0.3095
 9868SOL    HW231046   1.349   5.110   3.660  0.7450  2.3589 -0.3498
 9869SOL     OW31047   7.763   0.701   3.748 -0.3152 -0.2816  0.0894
 9869SOL    HW131048   7.738   0.685   3.657  0.1064  0.8742 -0.2508
 9869SOL    HW231049   7.748   0.617   3.792 -2.9020 -0.2091 -0.4896
 9870SOL     OW31050   3.701   4.315  11.207  0.8466  0.2657 -0.7348
 9870SOL    HW131051   3.733   4.257  11.276  0.9649  0.9916 -0.1644
 9870SOL    HW231052   3.619   4.275  11.178  0.9869 -0.2444 -0.4476
 9871SOL     OW31053   1.560   3.079   8.731  0.3854  0.5929  0.2984
 9871SOL    HW131054   1.544   3.168   8.701 -0.7268  0.1701 -0.4138
 9871SOL    HW231055   1.497   3.025   8.683  1.8515 -0.7593 -0.2266
 9872SOL     OW31056   5.496   0.947   6.582 -0.1151 -0.3631 -0.2873
 9872SOL    HW131057   5.474   1.039   6.597 -0.6263 -0.4567 -0.4287
 9872SOL    HW231058   5.589   0.940   6.603 -0.0173  0.2375 -0.4998
 9873SOL     OW31059   1.171   6.789   7.927  0.0263  0.5667  0.1114
 9873SOL    HW131060   1.212   6.756   7.847 -0.6463 -0.1247  0.0408
 9873SOL    HW231061   1.089   6.827   7.897 -0.1181  0.5139  0.4405
 9874SOL     OW31062   0.028   5.384   7.437  0.2369 -0.0141  0.1283
 9874SOL    HW131063  -0.043   5.330   7.404  1.4301 -1.8522  0.4148
 9874SOL    HW231064  -0.014   5.442   7.502 -1.0110 -0.9269  0.1701
 9875SOL     OW31065   7.442   4.964   3.612 -0.0578  0.4065 -0.2213
 9875SOL    HW131066   7.386   5.041   3.620 -1.3961 -0.3405 -1.7878
 9875SOL    HW231067   7.528   4.999   3.590 -0.0238  1.5401  1.4751
 9876SOL     OW31068   0.395   2.763   8.418  0.5418 -0.6163  0.2685
 9876SOL    HW131069   0.490   2.772   8.414  0.4195  1.9024  1.1887
 9876SOL    HW231070   0.370   2.727   8.333  2.2277 -0.3799 -0.3633
 9877SOL     OW31071   6.276   4.041   5.224  0.2351 -0.7184 -0.4333
 9877SOL    HW131072   6.365   4.019   5.253 -0.0871 -0.6167  0.6782
 9877SOL    HW231073   6.225   4.046   5.305 -1.1319 -2.2176 -1.1453
 9878SOL     OW31074   4.927   3.139   3.849  0.0973  0.0534 -0.0158
 9878SOL    HW131075   4.950   3.052   3.882 -2.5369 -0.3098  1.0714
 9878SOL    HW231076   4.911   3.190   3.928  0.7882  1.3226 -0.6733
 9879SOL     OW31077   7.408   2.418   6.311  0.0625 -0.5764 -0.3450
 9879SOL    HW131078   7.343   2.458   6.253  2.3091  0.2219 -2.4701
 9879SOL    HW231079   7.380   2.445   6.399 -1.8383  0.6731 -1.2485
 9880SOL     OW31080   1.953   5.097   0.071  0.1788  0.3619  0.0564
 9880SOL    HW131081   2.031   5.051   0.044 -1.3121 -1.8520 -0.7305
 9880SOL    HW231082   1.894   5.091  -0.004 -0.9284  1.5933  0.7746
 9881SOL     OW31083   6.401   0.765  11.756 -0.0600 -0.2536 -0.0307
 9881SOL    HW131084   6.343   0.711  11.810 -2.0408  1.8528  0.0869
 9881SOL    HW231085   6.400   0.723  11.670 -2.1237 -0.0512 -0.1391
 9882SOL     OW31086   1.861   7.581   5.841  0.0764  0.1619 -0.1386
 9882SOL    HW131087   1.949   7.553   5.814  0.0057  1.5386 -2.0270
 9882SOL    HW231088   1.828   7.509   5.895  2.3875 -0.3340  0.7295
 9883SOL     OW31089   6.864   6.190   3.472 -0.3378  0.0165  0.1154
 9883SOL    HW131090   6.820   6.106   3.456 -0.6466  0.0196  0.9061
 9883SOL    HW231091   6.895   6.183   3.562 -2.0856  1.4897  0.8917
 9884SOL     OW31092   6.651   4.090   0.186 -0.0645 -0.2104 -0.4230
 9884SOL    HW131093   6.707   4.039   0.128 -0.2908  0.8874 -1.6556
 9884SOL    HW231094   6.709   4.155   0.225 -0.0988 -0.3448 -0.1447
 9885SOL     OW31095   4.189   1.584  11.409 -0.9237  0.1917 -0.2340
 9885SOL    HW131096   4.122   1.650  11.424 -1.9837 -1.1581  1.2430
 9885SOL    HW231097   4.232   1.611  11.328 -3.3583  1.0183 -1.3338
 9886SOL     OW31098   2.096   2.582   9.002 -0.2275 -0.9540  0.2486
 9886SOL    HW131099   2.167   2.646   9.008  0.2033 -1.3707 -0.2492
 9886SOL    HW231100   2.050   2.588   9.085  0.1510 -0.3918  0.4186
 9887SOL     OW31101   7.018   2.934   7.134 -0.3069  0.0907  0.2715
 9887SOL    HW131102   6.961   2.872   7.088 -0.1369 -0.1222  0.3464
 9887SOL    HW231103   7.009   2.912   7.227 -0.6207  0.4957  0.3404
 9888SOL     OW31104   7.649   0.460   6.917 -0.0748 -0.0811 -0.3310
 9888SOL    HW131105   7.670   0.368   6.934  0.2734  0.3462  1.8499
 9888SOL    HW231106   7.717   0.489   6.856  0.1572 -1.0981 -0.5769
 9889SOL     OW31107   0.186   6.318  12.158  0.3170  0.2503  0.0494
 9889SOL    HW131108   0.242   6.329  12.235 -0.8802  0.7813  0.8823
 9889SOL    HW231109   0.234   6.358  12.086  1.0736  0.5274  0.7000
 9890SOL     OW31110   0.962   7.912   0.574 -0.2231 -0.1295 -0.2344
 9890SOL    HW131111   0.955   7.961   0.492  0.3379  1.8556  0.8335
 9890SOL    HW231112   1.040   7.857   0.562 -0.4330 -0.2360 -1.1908
 9891SOL     OW31113   3.690   6.702   8.156  0.2429 -0.3074  0.4710
 9891SOL    HW131114   3.636   6.645   8.100  1.9180 -2.1562  0.6069
 9891SOL    HW231115   3.746   6.749   8.094 -1.3297  1.5320  0.3374
 9892SOL     OW31116   1.814   7.455   6.944  0.6694 -0.3545 -0.1031
 9892SOL    HW131117   1.760   7.526   6.979  0.0341 -0.6348 -0.5047
 9892SOL    HW231118   1.763   7.419   6.872  1.8699  0.1166 -1.2380
 9893SOL     OW31119   2.376   7.790   2.576 -0.4081 -0.4982  0.0614
 9893SOL    HW131120   2.371   7.878   2.537  0.6719 -0.6375 -0.4299
 9893SOL    HW231121   2.466   7.761   2.559 -0.5028 -1.3724  0.9443
 9894SOL     OW31122   4.099   2.005  11.697 -0.5780 -0.2534  0.1376
 9894SOL    HW131123   4.041   2.061  11.644  0.1283 -0.9455 -1.4307
 9894SOL    HW231124   4.172   2.062  11.720 -1.5361  0.4453  1.5912
 9895SOL     OW31125   2.252   1.185   5.412 -0.1144  0.5362 -0.1577
 9895SOL    HW131126   2.173   1.234   5.434 -0.8634 -0.6501 -0.1173
 9895SOL    HW231127   2.258   1.118   5.480  1.3220  1.0208  0.2385
 9896SOL     OW31128   7.668   3.912  10.483 -0.1361 -0.4253  0.1248
 9896SOL    HW131129   7.576   3.940  10.481  0.0412  0.1550 -0.1573
 9896SOL    HW231130   7.665   3.820  10.456 -0.5152 -0.0362 -1.2470
 9897SOL     OW31131   0.073   2.870  12.273 -0.0297  0.1256  0.6854
 9897SOL    HW131132  -0.018   2.894  12.291  0.4651  0.6105  2.9137
 9897SOL    HW231133   0.122   2.910  12.345  2.1622  1.1942 -1.3091
 9898SOL     OW31134   7.586   1.628   3.968 -0.2928  0.0470  0.6442
 9898SOL    HW131135   7.660   1.578   3.933 -0.5097  0.8728 -1.1324
 9898SOL    HW231136   7.512   1.567   3.962  0.1445 -0.6775  2.1382
 9899SOL     OW31137   1.223   6.213  10.324  0.0163 -0.3720 -0.3275
 9899SOL    HW131138   1.268   6.128  10.315 -0.1781 -0.5127  0.0427
 9899SOL    HW231139   1.285   6.276  10.287 -0.3061 -0.8053 -1.6755
 9900SOL     OW31140   3.410   0.325   9.481 -0.1176  1.1565  0.1618
 9900SOL    HW131141   3.371   0.308   9.396 -0.0249  1.1424  0.1224
 9900SOL    HW231142   3.497   0.287   9.476 -0.2931  0.7189  0.4355
 9901SOL     OW31143   5.260   6.328   3.984  0.4182 -0.0532  0.3970
 9901SOL    HW131144   5.243   6.238   4.015  0.9959 -0.6444 -0.9457
 9901SOL    HW231145   5.355   6.332   3.976  0.3070  0.1638 -1.0080
 9902SOL     OW31146   3.264   3.809   5.520  0.3623 -0.1443  0.0820
 9902SOL    HW131147   3.301   3.791   5.606  1.0326  1.4307  0.1539
 9902SOL    HW231148   3.186   3.753   5.515  0.6950 -0.7614  1.4207
 9903SOL     OW31149   3.984   6.833   3.384  0.2327  0.3129 -0.1273
 9903SOL    HW131150   4.054   6.808   3.324 -0.3087 -2.9908  0.4075
 9903SOL    HW231151   4.029   6.872   3.459  1.4545 -0.8025 -0.2483
 9904SOL     OW31152   6.277   6.340   6.390 -0.1177 -0.4354 -0.7090
 9904SOL    HW131153   6.310   6.290   6.316  0.4477 -1.0045 -0.0949
 9904SOL    HW231154   6.188   6.308   6.404 -0.2850 -0.2047 -1.2400
 9905SOL     OW31155   5.512   7.096   0.358 -0.3586  0.5339  0.2611
 9905SOL    HW131156   5.603   7.065   0.360 -0.8053 -0.9119 -0.7489
 9905SOL    HW231157   5.480   7.081   0.447 -0.2994 -1.1421  0.0182
 9906SOL     OW31158   5.724   7.557   9.321  0.3586  0.3449 -0.7458
 9906SOL    HW131159   5.727   7.626   9.387 -0.7893 -0.1333 -0.1657
 9906SOL    HW231160   5.653   7.584   9.262 -0.2425 -0.4350 -0.3897
 9907SOL     OW31161   3.416   6.007  10.058  0.2507  0.1122 -0.4966
 9907SOL    HW131162   3.383   5.923  10.089  0.3261 -0.2167 -1.2962
 9907SOL    HW231163   3.488   6.028  10.118 -0.9483  0.5239  0.8700
 9908SOL     OW31164   1.964   3.337   1.249 -0.1953  0.0134 -0.4585
 9908SOL    HW131165   1.873   3.306   1.252  0.4473 -2.5004 -2.5482
 9908SOL    HW231166   1.967   3.396   1.173 -0.2081  0.5809 -0.0189
 9909SOL     OW31167   3.709   4.816   2.038  0.5284  0.7577  0.0494
 9909SOL    HW131168   3.767   4.879   1.996  2.1696 -1.0761 -0.5758
 9909SOL    HW231169   3.744   4.805   2.126  1.3136 -0.5101 -0.3971
 9910SOL     OW31170   1.834   0.265   5.260 -0.5388 -0.4043  0.1489
 9910SOL    HW131171   1.784   0.201   5.210  1.0831 -1.1602 -0.5755
 9910SOL    HW231172   1.906   0.215   5.298  2.5846  1.3292 -2.8920
 9911SOL     OW31173   0.940   3.320   1.736  0.2774  0.0262  0.0346
 9911SOL    HW131174   0.961   3.411   1.757  2.6677 -0.1375 -1.2670
 9911SOL    HW231175   0.989   3.303   1.656  0.1579 -2.5268  0.4462
 9912SOL     OW31176   1.633   0.138   7.535  0.3463  0.0823  0.1349
 9912SOL    HW131177   1.707   0.188   7.570 -0.2522  2.4438 -1.7022
 9912SOL    HW231178   1.648   0.136   7.440 -2.4767  1.7184 -0.4624
 9913SOL     OW31179   1.417   2.833  10.907 -0.7978  0.4796 -0.0377
 9913SOL    HW131180   1.426   2.875  10.993  0.3861  0.5184 -0.1632
 9913SOL    HW231181   1.393   2.743  10.927 -2.0087  0.8524  0.2782
 9914SOL     OW31182   3.904   4.937   7.789  0.0218  0.5527  0.5785
 9914SOL    HW131183   3.845   4.901   7.723 -0.4501  0.3887  1.0753
 9914SOL    HW231184   3.937   4.861   7.836  1.1360  0.6012 -0.0994
 9915SOL     OW31185   5.895   6.434   3.850  0.2573  0.0149  0.2822
 9915SOL    HW131186   5.834   6.507   3.847  0.1648 -0.0526  0.4872
 9915SOL    HW231187   5.839   6.356   3.851  0.3560 -0.0630 -0.0149
 9916SOL     OW31188   7.281   2.184  10.176 -0.5872  0.1440  0.1721
 9916SOL    HW131189   7.351   2.119  10.183 -0.4169  0.3703  0.6274
 9916SOL    HW231190   7.203   2.138  10.210 -1.6255 -1.4329 -3.7909
 9917SOL     OW31191   0.096   0.310   0.095  0.6697  0.1162  0.3755
 9917SOL    HW131192   0.029   0.357   0.045 -1.6713 -1.3535  1.9209
 9917SOL    HW231193   0.142   0.258   0.029 -0.7114  0.0448 -0.5813
 9918SOL     OW31194   2.289   7.129   5.542 -0.0671  0.2269 -0.5327
 9918SOL    HW131195   2.357   7.063   5.559  1.8418  1.9308 -1.1326
 9918SOL    HW231196   2.326   7.185   5.473 -1.6785  1.8316 -0.1848
 9919SOL     OW31197   7.870   0.753  12.439  0.6403 -0.0742  0.1263
 9919SOL    HW131198   7.919   0.738  12.359 -3.8448 -2.4191 -2.5785
 9919SOL    HW231199   7.847   0.846  12.437  1.0189  0.0041 -1.0404
 9920SOL     OW31200   4.187   5.289   6.808 -0.6360  0.5638 -0.0120
 9920SOL    HW131201   4.267   5.314   6.763 -0.5087  1.2349  0.5602
 9920SOL    HW231202   4.149   5.220   6.754  0.7058 -0.2993  0.1127
 9921SOL     OW31203   4.525   0.427   2.101  0.9011 -0.0961 -0.1953
 9921SOL    HW131204   4.489   0.342   2.077  1.9542 -0.2146 -1.4504
 9921SOL    HW231205   4.614   0.427   2.066  2.0819  0.3053  2.5277
 9922SOL     OW31206   1.186   7.296   0.172 -0.2791  0.2809  0.3144
 9922SOL    HW131207   1.179   7.264   0.081  1.7203  0.4511  0.0497
 9922SOL    HW231208   1.228   7.224   0.219  0.7076  1.0240  0.5964
 9923SOL     OW31209   6.210   3.249  10.285 -0.4811  0.9133  0.3578
 9923SOL    HW131210   6.277   3.281  10.225  0.8912  0.1136  1.4259
 9923SOL    HW231211   6.238   3.279  10.371 -2.0807  1.4881  0.7077
 9924SOL     OW31212   0.057   6.063  12.183 -0.2345 -0.0232 -0.0203
 9924SOL    HW131213  -0.034   6.070  12.155 -0.9240 -0.7389  1.8774
 9924SOL    HW231214   0.097   6.145  12.155 -1.4466  0.2724 -0.9461
 9925SOL     OW31215   7.667   2.248   6.578 -0.3981  0.1563 -0.5427
 9925SOL    HW131216   7.761   2.245   6.595 -0.6237 -1.0073  0.6485
 9925SOL    HW231217   7.654   2.328   6.527  1.3480 -0.1445 -1.5187
 9926SOL     OW31218   1.800   6.592   3.252  0.3369 -0.1271 -0.3409
 9926SOL    HW131219   1.861   6.665   3.258  0.2435 -0.1170  0.6413
 9926SOL    HW231220   1.803   6.551   3.338  0.1852 -1.1201 -0.7943
 9927SOL     OW31221   7.644   0.901   0.140  0.3219  0.3314 -0.1036
 9927SOL    HW131222   7.680   0.953   0.067  0.7953  1.4392  0.8757
 9927SOL    HW231223   7.718   0.891   0.200 -0.4021  0.6014  0.8528
 9928SOL     OW31224   1.473   3.503   7.504  0.1635 -0.2041 -0.5449
 9928SOL    HW131225   1.472   3.474   7.595  1.4802  0.9842 -0.1131
 9928SOL    HW231226   1.425   3.436   7.457 -0.5218 -0.8688  1.0175
 9929SOL     OW31227   7.919   6.144   6.963  0.4787  0.2633 -0.9445
 9929SOL    HW131228   7.962   6.146   7.049  0.4729  1.0499 -0.9568
 9929SOL    HW231229   7.841   6.090   6.976  0.8722 -0.2409 -0.6426
 9930SOL     OW31230   2.046   6.308   2.154  0.0919  0.1998 -0.5644
 9930SOL    HW131231   1.962   6.291   2.197  0.1825  0.2084 -0.3847
 9930SOL    HW231232   2.086   6.377   2.207  0.8206 -0.7572  0.1537
 9931SOL     OW31233   1.885   6.111   9.730 -0.3768  0.0065 -0.2616
 9931SOL    HW131234   1.845   6.160   9.802 -1.2921  2.4560 -2.2708
 9931SOL    HW231235   1.904   6.177   9.664 -2.3368 -2.3330 -3.4976
 9932SOL     OW31236   5.349   4.552   5.345 -0.0413  0.1481 -0.1016
 9932SOL    HW131237   5.289   4.624   5.365 -0.7397 -0.0892 -1.2655
 9932SOL    HW231238   5.426   4.570   5.399 -1.0314  0.6144  1.2242
 9933SOL     OW31239   0.343   1.034   4.291  0.1199  0.2066 -0.0171
 9933SOL    HW131240   0.341   0.946   4.253  0.8773  0.0045  0.3823
 9933SOL    HW231241   0.271   1.034   4.354 -0.1466  0.0103 -0.3187
 9934SOL     OW31242   4.778   3.392   5.013  0.2535 -0.4812  0.1797
 9934SOL    HW131243   4.736   3.473   4.982  0.9703 -0.7573 -1.6789
 9934SOL    HW231244   4.705   3.334   5.035 -0.2791  0.9439  2.4540
 9935SOL     OW31245   0.002   3.273   1.875 -0.1563 -0.1459  0.2565
 9935SOL    HW131246  -0.088   3.270   1.844 -0.5190 -1.0104  1.3195
 9935SOL    HW231247   0.050   3.213   1.817 -0.3737 -0.0793  0.0087
 9936SOL     OW31248   1.738   2.940   5.176  0.0831  0.0281 -0.0710
 9936SOL    HW131249   1.724   2.979   5.262 -0.5692  1.2352 -0.6919
 9936SOL    HW231250   1.711   2.849   5.186 -0.1087  0.1899  0.9645
 9937SOL     OW31251   4.978   3.273   4.882 -0.5236  0.2520 -0.3394
 9937SOL    HW131252   4.975   3.182   4.913  1.8235  0.4562  0.7434
 9937SOL    HW231253   4.903   3.315   4.923 -0.1463 -0.6112  1.3268
 9938SOL     OW31254   1.664   7.079   9.358  0.9940  0.0176  0.1667
 9938SOL    HW131255   1.709   7.070   9.442  0.9917 -0.0392  0.1619
 9938SOL    HW231256   1.623   7.165   9.362  1.3384  0.1864  0.0538
 9939SOL     OW31257   1.443   4.036   5.219 -0.9909 -0.0214 -0.2906
 9939SOL    HW131258   1.515   4.045   5.281  0.1489  0.5797 -1.6478
 9939SOL    HW231259   1.372   4.088   5.257  0.2153  1.6439 -0.2277
 9940SOL     OW31260   0.450   1.150  10.434 -0.1577  0.3941  0.2462
 9940SOL    HW131261   0.486   1.213  10.372 -0.2351 -0.4814 -0.7188
 9940SOL    HW231262   0.356   1.167  10.433 -0.0350  1.2372  1.1285
 9941SOL     OW31263   4.238   2.440   4.872  0.4060  0.1335 -0.3778
 9941SOL    HW131264   4.236   2.518   4.927 -0.6846  0.1276 -0.3957
 9941SOL    HW231265   4.232   2.474   4.783  0.0979  0.0368 -0.3938
 9942SOL     OW31266   4.391   4.991   1.797 -0.7609  0.0334  0.0673
 9942SOL    HW131267   4.427   4.907   1.824 -2.3093 -0.2201  1.5134
 9942SOL    HW231268   4.431   5.009   1.712  1.5150 -0.9287  0.8790
 9943SOL     OW31269   0.769   5.525   8.396  0.6395 -0.0617  0.3974
 9943SOL    HW131270   0.766   5.434   8.367  1.4590  0.1695 -0.4711
 9943SOL    HW231271   0.760   5.520   8.491 -1.5999 -0.8723  0.2010
 9944SOL     OW31272   6.371   2.663   3.998  0.0101 -0.2759  0.4137
 9944SOL    HW131273   6.323   2.590   3.957  1.8444 -1.0591 -0.4686
 9944SOL    HW231274   6.401   2.716   3.924 -0.6798  0.9912  1.0210
 9945SOL     OW31275   0.696   0.269   5.527 -0.1134 -0.2569  0.3700
 9945SOL    HW131276   0.655   0.243   5.610  1.5412 -1.2277  0.9349
 9945SOL    HW231277   0.657   0.353   5.506 -0.5701  0.0096  2.1504
 9946SOL     OW31278   7.940   0.166   6.408  0.5734 -1.1843  0.0670
 9946SOL    HW131279   8.022   0.212   6.429 -0.3701 -0.1871  1.8781
 9946SOL    HW231280   7.959   0.074   6.427  1.5601 -1.1152 -0.5119
 9947SOL     OW31281   3.129   3.112   5.686  0.1463  0.0177 -0.5752
 9947SOL    HW131282   3.158   3.055   5.757 -0.9226 -1.5882 -1.3648
 9947SOL    HW231283   3.174   3.079   5.609  1.4803  1.8962 -0.6544
 9948SOL     OW31284   6.291   0.027   5.596 -0.6587  0.0210  0.2933
 9948SOL    HW131285   6.241  -0.027   5.536  1.9251 -0.8686 -1.2519
 9948SOL    HW231286   6.272   0.117   5.570 -1.2622 -0.2973 -0.3851
 9949SOL     OW31287   6.614   6.946   9.786 -0.0843 -0.0857  0.4932
 9949SOL    HW131288   6.675   6.933   9.859  0.8212 -0.3399 -0.2870
 9949SOL    HW231289   6.528   6.946   9.827  0.4552  0.7415  1.6886
 9950SOL     OW31290   1.008   1.761  10.073 -0.2240  0.1600 -0.6834
 9950SOL    HW131291   0.922   1.727  10.049 -0.2453  1.2285 -2.2918
 9950SOL    HW231292   0.992   1.812  10.153 -0.4937 -2.0116  0.7390
 9951SOL     OW31293   4.123   1.112   1.221 -0.4941  0.1981 -0.2806
 9951SOL    HW131294   4.068   1.188   1.239  0.1702  0.4056  0.9989
 9951SOL    HW231295   4.146   1.078   1.308 -1.1291 -1.7326 -0.7996
 9952SOL     OW31296   7.924   5.446   6.051  0.4526  0.1598 -0.0762
 9952SOL    HW131297   7.955   5.469   5.963 -0.7891 -0.0876 -0.5997
 9952SOL    HW231298   7.909   5.530   6.094 -0.5515  0.3153 -0.7014
 9953SOL     OW31299   4.699   0.772   0.950  0.0870  0.3874  0.0784
 9953SOL    HW131300   4.787   0.786   0.916  0.3936 -0.0932  0.6494
 9953SOL    HW231301   4.671   0.857   0.982  0.4150  0.5046  0.0558
 9954SOL     OW31302   6.762   2.660   7.903  0.1387  0.2489 -0.1850
 9954SOL    HW131303   6.679   2.616   7.921  0.1225  1.2288  2.7263
 9954SOL    HW231304   6.779   2.711   7.982  4.9815 -2.1852  0.6815
 9955SOL     OW31305   4.328   1.555   9.061  0.0824 -0.6634  0.3008
 9955SOL    HW131306   4.243   1.598   9.063 -0.2792 -0.9728 -2.9332
 9955SOL    HW231307   4.323   1.496   8.986  3.0828 -0.8660  0.1495
 9956SOL     OW31308   1.306   1.858   5.439  0.1382  0.3438 -0.1617
 9956SOL    HW131309   1.247   1.796   5.395 -1.2549  0.5626  1.2860
 9956SOL    HW231310   1.291   1.941   5.393  1.4504 -0.1896 -1.6172
 9957SOL     OW31311   1.684   7.373   0.558  0.2773  0.0601 -0.2086
 9957SOL    HW131312   1.636   7.456   0.562  0.1247 -0.0528  0.4535
 9957SOL    HW231313   1.634   7.319   0.496 -0.1989  0.1037  0.1322
 9958SOL     OW31314   7.743   3.002  11.416  0.2316  0.1843 -0.6016
 9958SOL    HW131315   7.701   3.076  11.372 -1.7218  0.1807  1.1337
 9958SOL    HW231316   7.835   3.028  11.421 -0.3462  2.4259 -0.2315
 9959SOL     OW31317   5.102   1.142   6.338  0.2234 -0.2395  0.5083
 9959SOL    HW131318   5.133   1.099   6.418  0.2151  1.9654  1.7764
 9959SOL    HW231319   5.061   1.223   6.368 -1.5945 -0.2669 -1.5971
 9960SOL     OW31320   6.525   0.033   6.660 -0.3737 -0.7500  0.1001
 9960SOL    HW131321   6.558   0.063   6.575  1.1076 -0.3153  0.7842
 9960SOL    HW231322   6.508   0.114   6.708 -3.2235 -0.9355 -0.4535
 9961SOL     OW31323   0.890   7.770   2.184 -0.4699  0.6414  0.1521
 9961SOL    HW131324   0.913   7.830   2.255 -1.9770  0.9902  0.3746
 9961SOL    HW231325   0.839   7.702   2.226  1.2671 -0.8995 -0.0912
 9962SOL     OW31326   2.339   0.043   4.755 -0.0313 -0.3457  0.3320
 9962SOL    HW131327   2.334   0.128   4.712  0.0251  0.6764  2.2052
 9962SOL    HW231328   2.379  -0.015   4.691 -0.7019  0.8658 -1.2366
 9963SOL     OW31329   5.230   4.283  10.152  0.1535  0.0133  0.3608
 9963SOL    HW131330   5.143   4.320  10.168  0.2669 -0.8956  3.7895
 9963SOL    HW231331   5.282   4.358  10.123 -2.0471  0.2448 -3.8235
 9964SOL     OW31332   5.632   4.444   1.189  0.3121 -0.0611 -0.1333
 9964SOL    HW131333   5.565   4.509   1.211  0.0697 -0.9932  2.0974
 9964SOL    HW231334   5.668   4.475   1.106 -0.9725  1.9690 -0.0131
 9965SOL     OW31335   2.420   2.712   8.324 -0.5596 -0.3828  0.3776
 9965SOL    HW131336   2.402   2.798   8.287 -0.4233 -0.5084  0.0132
 9965SOL    HW231337   2.345   2.658   8.296  0.5683 -1.0457 -1.5924
 9966SOL     OW31338   5.241   2.302   8.733 -0.2538 -0.2995  0.2937
 9966SOL    HW131339   5.254   2.215   8.771  0.0741 -0.2784  0.2353
 9966SOL    HW231340   5.320   2.317   8.680 -0.3526 -0.0082  0.2274
 9967SOL     OW31341   3.103   6.661   9.731  0.2450 -0.4214 -0.4235
 9967SOL    HW131342   3.181   6.607   9.720  0.5551 -0.4424  1.5600
 9967SOL    HW231343   3.124   6.744   9.688  1.0184 -0.7294 -0.6475
 9968SOL     OW31344   5.984   2.375   4.997 -0.1707 -1.0495  0.3630
 9968SOL    HW131345   5.983   2.401   5.089 -0.6388 -1.0197  0.3526
 9968SOL    HW231346   5.897   2.339   4.982  0.4637 -2.7019  0.3942
 9969SOL     OW31347   6.281   0.230   0.005 -0.6537 -0.4299  0.1446
 9969SOL    HW131348   6.237   0.181  -0.065 -0.2561 -1.8126  0.8284
 9969SOL    HW231349   6.282   0.170   0.079  1.0089  0.1394  0.6232
 9970SOL     OW31350   1.795   2.867   7.677 -0.7031  0.3619 -0.3209
 9970SOL    HW131351   1.812   2.961   7.672 -0.6311  0.4822  1.5218
 9970SOL    HW231352   1.724   2.858   7.740  0.0289 -0.8657  0.3903
 9971SOL     OW31353   1.313   0.889   0.172 -0.2435  0.5170 -0.5039
 9971SOL    HW131354   1.321   0.861   0.263 -0.9566 -0.1968 -0.6426
 9971SOL    HW231355   1.386   0.846   0.127 -0.1621  0.4994 -0.3560
 9972SOL     OW31356   3.459   3.306   1.287 -0.0723 -0.5010 -0.0038
 9972SOL    HW131357   3.397   3.306   1.214  1.4561 -1.4194 -1.3558
 9972SOL    HW231358   3.541   3.337   1.250  1.1220 -2.2981  0.9469
 9973SOL     OW31359   2.811   2.547   6.983  0.2844 -0.1458 -0.0509
 9973SOL    HW131360   2.764   2.464   6.994  1.1989 -0.7320 -0.4610
 9973SOL    HW231361   2.754   2.599   6.925  0.1034 -0.8183 -0.4907
 9974SOL     OW31362   1.710   2.552   7.739  0.3261 -0.2117 -0.1177
 9974SOL    HW131363   1.800   2.581   7.723 -0.2510  1.5386 -0.4193
 9974SOL    HW231364   1.719   2.463   7.772  2.0726 -0.7622 -1.8808
 9975SOL     OW31365   5.022   6.969   9.884  0.1813  0.0985  0.0791
 9975SOL    HW131366   5.057   7.052   9.916  0.1590  0.0056  0.3414
 9975SOL    HW231367   4.930   6.986   9.867  0.3101  0.2949 -0.4435
 9976SOL     OW31368   5.997   0.008   1.420 -0.3722  0.4019 -0.1519
 9976SOL    HW131369   5.995  -0.032   1.333  0.0433  2.6168 -1.2466
 9976SOL    HW231370   6.061  -0.044   1.469  0.1495 -0.2591 -1.5076
 9977SOL     OW31371   1.615   1.751   6.533  0.2354 -0.9311 -0.6362
 9977SOL    HW131372   1.651   1.662   6.528 -0.3493 -1.3595  1.6746
 9977SOL    HW231373   1.583   1.759   6.623  0.4445  1.7073 -0.7214
 9978SOL     OW31374   1.170   5.871   9.826  0.5683  0.1778  0.1960
 9978SOL    HW131375   1.264   5.860   9.831  0.8191  2.5204  2.6535
 9978SOL    HW231376   1.145   5.911   9.909 -2.8440 -1.7100  0.2664
 9979SOL     OW31377   2.195   6.810   3.344  0.4452 -0.4623 -0.4136
 9979SOL    HW131378   2.207   6.793   3.251  0.3831  2.5870 -1.0781
 9979SOL    HW231379   2.279   6.847   3.372  0.1287 -0.4104  0.4943
 9980SOL     OW31380   0.048   5.416   3.093 -0.0298  0.5633  0.0299
 9980SOL    HW131381   0.078   5.487   3.150 -1.2585  0.0544  1.3653
 9980SOL    HW231382  -0.039   5.443   3.065 -0.0907  0.0428 -0.2838
 9981SOL     OW31383   1.966   1.376  10.799 -0.2387 -0.6436  0.8958
 9981SOL    HW131384   1.988   1.333  10.717 -2.9914  0.9043 -0.8048
 9981SOL    HW231385   1.915   1.311  10.847 -0.8654 -0.6852  0.1884
 9982SOL     OW31386   0.101   4.938   3.787 -0.1706 -0.3498  0.6957
 9982SOL    HW131387   0.191   4.908   3.774 -0.2932 -1.4531  2.1490
 9982SOL    HW231388   0.047   4.864   3.761 -0.9439  1.4515 -3.6817
 9983SOL     OW31389   3.878   0.830  10.280 -0.6970 -0.6632  0.3033
 9983SOL    HW131390   3.847   0.918  10.258 -1.1035 -0.8292  0.2018
 9983SOL    HW231391   3.957   0.819  10.226  0.4248  0.3291  1.6652
 9984SOL     OW31392   0.740   7.705   8.178  0.0276  0.2373 -0.2049
 9984SOL    HW131393   0.732   7.790   8.222 -0.6424 -0.9690  2.2148
 9984SOL    HW231394   0.828   7.705   8.142  1.0134  1.0208  2.0062
 9985SOL     OW31395   3.408   7.122   3.287  0.0181 -0.0976  0.2122
 9985SOL    HW131396   3.502   7.111   3.302 -0.0728  0.1932  1.0143
 9985SOL    HW231397   3.369   7.120   3.374 -0.3059  3.6942  0.3435
 9986SOL     OW31398   1.844   5.445   8.443 -0.3728 -0.1960  0.2623
 9986SOL    HW131399   1.882   5.457   8.530 -2.0376  1.2643  0.8463
 9986SOL    HW231400   1.914   5.472   8.383  0.5871 -0.6165  1.1547
 9987SOL     OW31401   3.479   6.119  12.461  0.0040 -0.4645  0.5162
 9987SOL    HW131402   3.426   6.161  12.529  0.7017 -0.0685  0.8254
 9987SOL    HW231403   3.569   6.148  12.479  0.3913 -1.4769  0.2657
 9988SOL     OW31404   7.161   6.382   6.531  0.0414  0.1221 -0.0912
 9988SOL    HW131405   7.211   6.416   6.456 -2.7708  3.9230 -0.5701
 9988SOL    HW231406   7.076   6.425   6.524 -1.7182 -2.3576  3.2246
 9989SOL     OW31407   7.509   4.673   8.811  0.5406  0.4308 -0.1017
 9989SOL    HW131408   7.499   4.748   8.870  0.8494 -0.8391  1.6556
 9989SOL    HW231409   7.539   4.711   8.729 -2.0786  2.5335 -0.2198
 9990SOL     OW31410   5.183   6.383   6.094 -0.1894  0.5400 -0.0670
 9990SOL    HW131411   5.096   6.363   6.128 -0.7217  0.0096 -1.6257
 9990SOL    HW231412   5.215   6.299   6.061 -0.4176  1.2750 -2.3352
 9991SOL     OW31413   2.139   3.378   0.689 -0.1178  0.6249 -0.5281
 9991SOL    HW131414   2.129   3.470   0.714 -0.2629 -0.5339  5.0576
 9991SOL    HW231415   2.049   3.348   0.671 -0.1527  1.3277 -1.6057
 9992SOL     OW31416   7.423   0.953   8.529 -0.3104  0.3314 -0.4027
 9992SOL    HW131417   7.454   0.882   8.473  1.4705  0.3055  0.5340
 9992SOL    HW231418   7.471   1.030   8.498 -0.3413  0.6010  0.2171
 9993SOL     OW31419   3.503   2.281   7.992 -0.8471 -0.1785 -0.2290
 9993SOL    HW131420   3.448   2.346   7.946 -1.2381 -1.6467 -1.9836
 9993SOL    HW231421   3.548   2.331   8.059 -0.6393  2.0582 -1.9021
 9994SOL     OW31422   1.273   4.195   4.993  0.2515 -0.0419 -0.3771
 9994SOL    HW131423   1.284   4.117   4.938 -1.2345 -1.4968  1.2946
 9994SOL    HW231424   1.316   4.172   5.076 -1.5688  0.2494  0.6883
 9995SOL     OW31425   3.662   4.633   0.589 -0.1023  0.2752 -0.0218
 9995SOL    HW131426   3.646   4.598   0.501  1.6376  1.9204 -1.0623
 9995SOL    HW231427   3.736   4.582   0.622 -1.0166 -0.6241  0.7071
 9996SOL     OW31428   0.902   1.088   2.169  0.3356  0.3116  0.7871
 9996SOL    HW131429   0.808   1.076   2.153  0.7581 -0.3358 -1.7221
 9996SOL    HW231430   0.936   0.999   2.179  1.0096  0.3440 -0.8801
 9997SOL     OW31431   4.846   2.177   6.999 -0.2947 -0.3343  0.1641
 9997SOL    HW131432   4.876   2.263   6.973 -3.1214  0.7405  0.0736
 9997SOL    HW231433   4.913   2.145   7.059  0.4242  2.2989  0.8849
 9998SOL     OW31434   1.909   2.679   0.456 -0.4403 -0.0710  0.1988
 9998SOL    HW131435   1.895   2.592   0.420 -1.8091 -0.2226  1.0105
 9998SOL    HW231436   1.906   2.738   0.380  3.0263 -0.8578 -0.7289
 9999SOL     OW31437   3.364   3.515   5.661  0.2065 -0.0341 -0.3253
 9999SOL    HW131438   3.289   3.456   5.671 -0.9252  1.2290 -1.0923
 9999SOL    HW231439   3.345   3.588   5.719  2.7190 -1.3662  2.4609
10000SOL     OW31440   3.502   7.658   8.347 -0.0655  0.2491  0.3705
10000SOL    HW131441   3.554   7.586   8.384 -0.3282  0.0959  0.4426
10000SOL    HW231442   3.483   7.629   8.258 -0.9738 -0.1990  0.7012
10001SOL     OW31443   2.749   7.591   4.585  0.4477 -0.5500  0.5542
10001SOL    HW131444   2.752   7.502   4.550  0.8929 -0.2016 -0.3355
10001SOL    HW231445   2.705   7.642   4.516  0.6432  0.0107  0.8360
10002SOL     OW31446   5.063   7.400   0.561 -0.4250  0.6267 -0.1182
10002SOL    HW131447   5.102   7.406   0.649  3.0243 -1.1390 -1.3250
10002SOL    HW231448   5.052   7.491   0.533  1.8642  1.2695  0.8405
10003SOL     OW31449   4.282   0.165   9.099  0.3938 -0.0674  0.0747
10003SOL    HW131450   4.364   0.214   9.089 -0.7744  2.3988  1.8014
10003SOL    HW231451   4.306   0.075   9.076  2.2250  1.3792 -5.2497
10004SOL     OW31452   4.847   4.117   2.777  0.4342 -0.3553 -0.3301
10004SOL    HW131453   4.811   4.044   2.726  0.2629 -0.6211  0.1720
10004SOL    HW231454   4.825   4.195   2.725 -1.3373 -0.4543  0.2013
10005SOL     OW31455   2.960   4.860  12.219 -0.1214 -0.3733  0.2567
10005SOL    HW131456   2.932   4.876  12.309 -1.2208  3.2002 -0.5475
10005SOL    HW231457   2.880   4.868  12.167  1.0368  2.1561 -1.3636
10006SOL     OW31458   0.160   0.676   6.480 -0.3865 -0.1167 -0.3606
10006SOL    HW131459   0.192   0.700   6.393 -0.4685  1.1937 -0.0571
10006SOL    HW231460   0.065   0.672   6.469 -0.5017  1.3060 -0.0716
10007SOL     OW31461   7.974   2.567   6.819  0.3866 -0.1417  0.3051
10007SOL    HW131462   8.012   2.617   6.891  0.5477 -1.5048  1.2159
10007SOL    HW231463   8.049   2.543   6.764  0.3507  0.3446  0.0452
10008SOL     OW31464   2.653   1.620   7.292 -0.1992 -0.5204 -0.0576
10008SOL    HW131465   2.627   1.642   7.381  0.7920 -0.9081  0.3335
10008SOL    HW231466   2.674   1.705   7.252 -0.7694 -0.3350  0.0227
10009SOL     OW31467   5.634   4.526   0.513  0.1071 -0.2846  0.2240
10009SOL    HW131468   5.604   4.467   0.444 -0.9136  1.1423 -0.6090
10009SOL    HW231469   5.694   4.586   0.469  0.1847  0.0594  0.7902
10010SOL     OW31470   1.345   6.260   3.977 -0.7646  0.0976 -0.6831
10010SOL    HW131471   1.286   6.203   3.927 -1.4130 -0.1439  0.3327
10010SOL    HW231472   1.417   6.278   3.917 -2.0688  0.7675 -2.1172
10011SOL     OW31473   7.039   7.242  12.297 -0.1444 -0.2295 -0.4371
10011SOL    HW131474   7.046   7.150  12.324  0.1556  0.2626  1.2696
10011SOL    HW231475   7.111   7.255  12.236  0.1660 -0.9785 -0.2379
10012SOL     OW31476   4.588   2.934   8.521  0.1277  0.6299  0.0734
10012SOL    HW131477   4.678   2.936   8.555  0.1852 -0.0013 -0.0243
10012SOL    HW231478   4.544   3.007   8.565  0.6312  0.8186  0.2747
10013SOL     OW31479   1.662   4.658   3.206 -0.1005  0.3572 -0.0947
10013SOL    HW131480   1.570   4.677   3.224 -0.2094 -0.0175 -0.2461
10013SOL    HW231481   1.691   4.603   3.279  0.3328  1.4365  0.5664
10014SOL     OW31482   1.464   0.586   4.227 -0.0451 -0.1995 -0.2312
10014SOL    HW131483   1.397   0.557   4.165 -0.8528  2.2392 -0.6131
10014SOL    HW231484   1.426   0.568   4.313 -1.8465  2.2488 -0.4066
10015SOL     OW31485   6.186   6.805   9.985 -0.1588 -0.2652 -0.0937
10015SOL    HW131486   6.169   6.712  10.003 -0.2726  0.1104  1.8682
10015SOL    HW231487   6.221   6.840  10.066 -1.1206  1.6623 -0.4475
10016SOL     OW31488   6.313   5.646   2.938  0.5834 -0.0793 -0.2540
10016SOL    HW131489   6.405   5.622   2.925  1.0425  1.8544 -0.8681
10016SOL    HW231490   6.310   5.679   3.028  0.3308 -0.8136  0.0083
10017SOL     OW31491   6.856   3.077   2.167  0.2978 -0.1124 -0.0717
10017SOL    HW131492   6.780   3.089   2.111  0.3009  0.2502 -0.0036
10017SOL    HW231493   6.931   3.090   2.109  0.2996  1.4810  0.2527
10018SOL     OW31494   6.246   3.259   0.984  0.7642 -0.3911 -0.1545
10018SOL    HW131495   6.298   3.336   0.964 -0.3131  0.6387  0.8957
10018SOL    HW231496   6.302   3.206   1.042  1.2070 -0.0382 -0.2538
10019SOL     OW31497   0.821   2.815   1.383 -0.3425 -0.2816  0.2696
10019SOL    HW131498   0.916   2.812   1.370 -0.3687  1.6990 -0.6416
10019SOL    HW231499   0.789   2.735   1.341  0.7158  0.1711 -1.5063
10020SOL     OW31500   4.702   6.039   0.670  0.0362 -0.2979 -0.0912
10020SOL    HW131501   4.680   5.951   0.640  0.8865 -0.7333  0.5076
10020SOL    HW231502   4.638   6.058   0.738  0.3731 -0.8144  0.3810
10021SOL     OW31503   3.941   6.237   4.495  0.0133 -0.1510  0.4541
10021SOL    HW131504   3.873   6.194   4.445 -0.2847  0.7098  0.0901
10021SOL    HW231505   4.023   6.212   4.452 -0.1440 -0.4705  0.3442
10022SOL     OW31506   2.725   3.216   0.485  0.0878 -0.1458  0.6332
10022SOL    HW131507   2.652   3.163   0.514 -0.9233  0.9999  0.2649
10022SOL    HW231508   2.697   3.307   0.499  1.4626  0.3219  0.5555
10023SOL     OW31509   5.759   2.014   0.484  0.3013  0.1218  0.2898
10023SOL    HW131510   5.771   2.058   0.399 -0.0722 -1.0105 -0.3754
10023SOL    HW231511   5.673   1.971   0.476 -0.0564  0.5774  1.5127
10024SOL     OW31512   7.296   4.981  10.456  0.4534  0.3059  0.1866
10024SOL    HW131513   7.210   5.021  10.464 -0.7910 -1.7874 -1.5030
10024SOL    HW231514   7.353   5.051  10.425 -0.9464  1.4253  0.0446
10025SOL     OW31515   4.114   4.374   1.400  0.1134 -0.0311 -0.4127
10025SOL    HW131516   4.039   4.368   1.341  1.1155 -0.4775 -1.6776
10025SOL    HW231517   4.093   4.447   1.458 -1.7082 -0.7380 -0.1320
10026SOL     OW31518   0.666   5.627  10.776  0.3657  0.1867  0.6956
10026SOL    HW131519   0.755   5.663  10.777  0.5473 -0.2436  1.8010
10026SOL    HW231520   0.665   5.564  10.848 -1.0406  0.7058  1.1748
10027SOL     OW31521   1.603   7.182   0.378  0.1785 -0.3196  0.6029
10027SOL    HW131522   1.696   7.158   0.385  0.8287  1.7355 -0.3562
10027SOL    HW231523   1.588   7.191   0.283 -0.8533 -0.0421  0.7828
10028SOL     OW31524   4.391   1.610   2.951  0.4612 -0.0932  0.0444
10028SOL    HW131525   4.477   1.651   2.964  0.6726 -0.5972  0.2522
10028SOL    HW231526   4.390   1.587   2.858  0.7772 -0.5806  0.1570
10029SOL     OW31527   1.194   0.252   2.053 -0.2636 -0.3893  0.5055
10029SOL    HW131528   1.254   0.212   1.989 -1.8397 -3.3416  0.7150
10029SOL    HW231529   1.144   0.315   2.001  0.9143 -0.1055 -0.3456
10030SOL     OW31530   7.572   6.939   1.694 -0.0346  0.0223  0.6487
10030SOL    HW131531   7.565   7.020   1.643  1.1830  1.1434  2.1619
10030SOL    HW231532   7.612   6.876   1.634  0.8980  1.1448  0.0560
10031SOL     OW31533   3.488   3.047   1.526  0.2014 -0.3321  0.1013
10031SOL    HW131534   3.578   3.070   1.503  0.0406 -0.6172 -0.8614
10031SOL    HW231535   3.496   2.988   1.601  0.7397  0.7571  0.9292
10032SOL     OW31536   4.876   1.603   4.911 -0.5242 -0.5252 -0.0946
10032SOL    HW131537   4.814   1.676   4.907  0.6763  0.5436  0.2557
10032SOL    HW231538   4.876   1.577   5.003  0.7400  0.5613  0.2330
10033SOL     OW31539   7.875   3.956   3.319 -0.1318  0.3201 -0.1193
10033SOL    HW131540   7.943   4.023   3.328  0.6257 -0.3951 -0.4219
10033SOL    HW231541   7.830   3.956   3.404  0.6126  0.4068  0.2814
10034SOL     OW31542   6.642   4.416   8.355 -1.1324 -0.4744  0.1004
10034SOL    HW131543   6.678   4.327   8.362  1.6339  0.5522  0.3155
10034SOL    HW231544   6.669   4.460   8.436 -3.4787  0.2861  0.5396
10035SOL     OW31545   6.185   5.707  12.122  0.3420  0.7586 -0.4325
10035SOL    HW131546   6.183   5.612  12.109  1.1399  0.6579  0.0672
10035SOL    HW231547   6.114   5.741  12.068 -1.3104 -0.3067  0.9783
10036SOL     OW31548   0.395   2.521   9.559  0.2480 -0.4869 -0.3483
10036SOL    HW131549   0.471   2.562   9.598  0.9783  0.0190 -2.1970
10036SOL    HW231550   0.429   2.474   9.483 -0.9633 -2.2081  0.1015
10037SOL     OW31551   4.298   1.643   4.306  0.7455 -0.8607 -0.1103
10037SOL    HW131552   4.254   1.621   4.224 -0.5719 -2.1772  0.9092
10037SOL    HW231553   4.301   1.739   4.307 -0.6781 -0.7949 -0.9512
10038SOL     OW31554   0.251   1.363   4.465 -0.0165  0.0081 -0.4577
10038SOL    HW131555   0.177   1.373   4.406 -0.1061  1.3619 -0.1460
10038SOL    HW231556   0.317   1.423   4.431 -0.0809  0.8314  0.8172
10039SOL     OW31557   4.580   5.056   1.305  0.4349  0.0134 -0.2411
10039SOL    HW131558   4.667   5.085   1.276  0.8302  0.3571  1.2024
10039SOL    HW231559   4.527   5.055   1.225  2.2493 -2.1293 -1.5567
10040SOL     OW31560   2.772   3.324   1.201  0.2682  0.3518  0.1505
10040SOL    HW131561   2.806   3.281   1.122  0.6069  0.8904 -0.0008
10040SOL    HW231562   2.849   3.364   1.242  0.2082 -0.4956  1.1242
10041SOL     OW31563   0.316   3.148   4.739 -0.0115  0.2306 -0.6449
10041SOL    HW131564   0.288   3.094   4.665  0.6954  0.4884 -1.1114
10041SOL    HW231565   0.363   3.221   4.699  1.2395 -0.1360  0.0978
10042SOL     OW31566   7.292   7.224  12.467  0.6802  0.0542  0.1785
10042SOL    HW131567   7.331   7.138  12.452 -2.8149 -1.4893 -1.1516
10042SOL    HW231568   7.276   7.259  12.379 -2.7400 -0.4499  0.4712
10043SOL     OW31569   4.855   7.084   3.817 -0.0942 -0.1408  0.2600
10043SOL    HW131570   4.913   7.158   3.836  0.3224 -0.0777 -1.1756
10043SOL    HW231571   4.822   7.101   3.729 -1.0470 -1.0006  0.4363
10044SOL     OW31572   7.535   0.140   8.229 -0.1744  0.8255 -0.1933
10044SOL    HW131573   7.503   0.131   8.319  0.4837  0.6167  0.0280
10044SOL    HW231574   7.464   0.182   8.182 -0.3406  1.3844  0.5404
10045SOL     OW31575   3.663   7.899   1.641  0.0123  0.5965 -0.0818
10045SOL    HW131576   3.592   7.962   1.654  0.8448  1.3535  0.9485
10045SOL    HW231577   3.733   7.949   1.600  0.3054  0.0865 -0.2147
10046SOL     OW31578   1.835   1.829   2.988 -0.2363 -0.0882 -0.4069
10046SOL    HW131579   1.920   1.829   3.031 -0.8599  1.6528  0.9289
10046SOL    HW231580   1.783   1.766   3.038 -0.6670  1.2317  0.9002
10047SOL     OW31581   5.034   7.055   6.354  0.1806  0.0869 -0.0333
10047SOL    HW131582   5.094   7.042   6.280  0.1977  0.1117 -0.0239
10047SOL    HW231583   5.006   6.966   6.377 -0.0005  0.0975 -0.2132
10048SOL     OW31584   6.169   7.928   6.535  0.4726 -0.5265 -0.2152
10048SOL    HW131585   6.187   7.941   6.628  0.1704  0.6999 -0.3153
10048SOL    HW231586   6.226   7.855   6.510  2.3683  0.6708  0.3844
10049SOL     OW31587   3.305   7.391  12.408  0.1982 -0.3342  0.1284
10049SOL    HW131588   3.319   7.344  12.490 -2.2928 -0.4138  0.5780
10049SOL    HW231589   3.243   7.337  12.359  1.5242 -0.2265 -1.8086
10050SOL     OW31590   0.628   4.668  10.999  0.1253  0.4732  0.5872
10050SOL    HW131591   0.672   4.613  10.935  2.0768  2.3474  0.2064
10050SOL    HW231592   0.592   4.607  11.063  0.9783 -1.2783 -0.5438
10051SOL     OW31593   6.440   5.508  10.185  0.3184 -0.5904 -0.2045
10051SOL    HW131594   6.362   5.551  10.150  2.4042  1.4350 -2.8848
10051SOL    HW231595   6.443   5.536  10.277 -2.6980 -1.8284  0.3973
10052SOL     OW31596   2.225   1.461   9.180  0.1312 -0.4051  0.2603
10052SOL    HW131597   2.151   1.413   9.219  0.8929 -2.1130 -0.3259
10052SOL    HW231598   2.303   1.419   9.216  0.8674  1.3210  0.8005
10053SOL     OW31599   6.694   3.027   5.180  0.1678 -0.7019 -0.0969
10053SOL    HW131600   6.751   2.950   5.188 -0.3935 -1.0435  0.7274
10053SOL    HW231601   6.606   2.990   5.175 -0.1255 -0.1053  0.5706
10054SOL     OW31602   0.860   0.366   8.695 -0.7768 -0.1312 -0.6878
10054SOL    HW131603   0.821   0.324   8.619  0.4045 -0.7362 -0.9795
10054SOL    HW231604   0.920   0.431   8.659 -1.7741  1.0837 -0.2430
10055SOL     OW31605   6.015   7.765   9.788  0.1090  0.5406 -0.4521
10055SOL    HW131606   6.059   7.754   9.872 -0.6715  1.7016  0.1313
10055SOL    HW231607   6.041   7.851   9.757  0.5074  0.0689 -1.4964
10056SOL     OW31608   4.238   5.452   5.034  0.5330  0.5865  0.2991
10056SOL    HW131609   4.211   5.425   5.121 -0.1824  1.5552  0.3956
10056SOL    HW231610   4.240   5.371   4.982  0.2163  0.1166  1.0144
10057SOL     OW31611   5.724   4.859  12.447  0.2892  0.0780  0.0325
10057SOL    HW131612   5.674   4.786  12.410  0.0535  1.0922 -1.7438
10057SOL    HW231613   5.784   4.885  12.378  0.8821  1.1048  0.9034
10058SOL     OW31614   6.570   0.166   4.974 -0.0746 -0.2941  0.0093
10058SOL    HW131615   6.639   0.100   4.967 -0.4426 -0.7164  0.3616
10058SOL    HW231616   6.536   0.174   4.885 -0.4777 -1.0731  0.0797
10059SOL     OW31617   4.682   5.071   9.673  0.2226 -0.0569 -0.5338
10059SOL    HW131618   4.654   4.988   9.712  2.4725 -0.4635  0.4266
10059SOL    HW231619   4.708   5.125   9.748  0.7865  0.6966 -1.2543
10060SOL     OW31620   5.048   0.903   7.491  0.4127 -0.4729  0.0067
10060SOL    HW131621   4.983   0.895   7.561  1.1044 -0.6813  0.6446
10060SOL    HW231622   5.087   0.990   7.505 -0.9683  0.4300 -1.4886
10061SOL     OW31623   3.518   6.748   6.986 -0.4641  0.3790 -0.0809
10061SOL    HW131624   3.515   6.728   7.080 -0.5771  2.7693  0.5039
10061SOL    HW231625   3.599   6.799   6.976 -0.5824  0.3576 -1.2381
10062SOL     OW31626   2.215   5.514   4.714 -0.1083  0.5086  0.0706
10062SOL    HW131627   2.278   5.482   4.778 -1.4939 -0.4880  0.9864
10062SOL    HW231628   2.153   5.567   4.765  0.5366  2.3832 -0.9686
10063SOL     OW31629   6.066   2.651  11.798 -0.2164 -0.2731  0.4088
10063SOL    HW131630   5.971   2.649  11.815 -0.4614 -0.9448 -0.8882
10063SOL    HW231631   6.105   2.664  11.884 -1.5528  2.6173  0.7071
10064SOL     OW31632   1.807   1.679   9.222  0.2768  0.4108 -0.2994
10064SOL    HW131633   1.783   1.621   9.149  1.8657  1.5627 -1.7987
10064SOL    HW231634   1.902   1.683   9.219  0.2775  1.7888  0.8301
10065SOL     OW31635   6.239   1.279   2.060  0.4134 -0.1435 -0.4422
10065SOL    HW131636   6.240   1.327   1.977 -2.4187 -0.7939 -0.9718
10065SOL    HW231637   6.191   1.198   2.041  0.2201 -0.6033  1.6905
10066SOL     OW31638   2.362   4.751   4.344 -0.3240 -1.2797  0.3383
10066SOL    HW131639   2.420   4.827   4.343 -0.4400 -1.1853  0.5957
10066SOL    HW231640   2.414   4.680   4.306 -0.5002 -0.8700 -0.6982
10067SOL     OW31641   2.855   1.699   4.159  0.3759  0.2981  0.6203
10067SOL    HW131642   2.782   1.746   4.118 -0.5515 -0.4890  1.3151
10067SOL    HW231643   2.883   1.636   4.093  1.3115  1.4757 -0.1381
10068SOL     OW31644   4.502   2.500   7.093 -0.2811  0.4156 -0.6455
10068SOL    HW131645   4.509   2.465   7.182  0.8851  1.9221 -0.1054
10068SOL    HW231646   4.420   2.548   7.093  0.5588  1.9186  0.2177
10069SOL     OW31647   4.394   0.796   5.480 -0.0702 -0.1107 -0.2392
10069SOL    HW131648   4.361   0.758   5.561 -0.1677 -1.8740 -1.0665
10069SOL    HW231649   4.402   0.890   5.499 -0.6365 -0.4002  1.6036
10070SOL     OW31650   7.367   3.968   5.049 -0.4986 -0.5839 -0.0687
10070SOL    HW131651   7.296   4.008   4.999 -0.3170 -0.0183  0.1202
10070SOL    HW231652   7.346   3.988   5.140  0.1055 -0.0846 -0.0393
10071SOL     OW31653   2.034   6.245   5.830 -0.2696 -0.5110  0.1810
10071SOL    HW131654   1.982   6.168   5.854 -0.7026 -0.5594 -0.8513
10071SOL    HW231655   1.990   6.318   5.873 -0.7027 -0.6598  0.0008
10072SOL     OW31656   0.765   0.830   2.477  0.1192  0.0162  0.2739
10072SOL    HW131657   0.711   0.751   2.477 -0.4672  0.4108  0.3592
10072SOL    HW231658   0.754   0.866   2.389  0.4308 -0.0219  0.2173
10073SOL     OW31659   6.580   4.115   6.152  0.5953  0.7418 -0.0897
10073SOL    HW131660   6.488   4.091   6.150  1.0346 -0.9740 -1.2036
10073SOL    HW231661   6.580   4.211   6.142 -1.0351  0.7245 -0.4764
10074SOL     OW31662   0.820   1.483   5.730 -0.2534 -0.8032  0.0906
10074SOL    HW131663   0.908   1.503   5.764 -0.3042  1.8002 -1.0675
10074SOL    HW231664   0.834   1.463   5.638 -1.0052  1.7690 -0.6496
10075SOL     OW31665   2.764   5.078   2.721 -0.6754 -0.0822 -0.4437
10075SOL    HW131666   2.761   5.162   2.674 -0.7086 -0.8333 -1.8669
10075SOL    HW231667   2.672   5.050   2.723 -0.8144  0.4310  1.0454
10076SOL     OW31668   4.348   0.777   9.993  0.3797  0.0118 -0.0946
10076SOL    HW131669   4.415   0.764  10.061  1.6023  0.4903 -1.1519
10076SOL    HW231670   4.274   0.724  10.022  1.5933 -1.4011  0.6109
10077SOL     OW31671   6.808   5.190   9.982 -0.4544  0.0635  0.3088
10077SOL    HW131672   6.828   5.197  10.076 -1.2485 -1.8643  0.6865
10077SOL    HW231673   6.743   5.258   9.966  0.4020  1.0492  0.9265
10078SOL     OW31674   5.343   5.322  11.820  0.1458  0.3112 -0.3323
10078SOL    HW131675   5.286   5.394  11.846  0.8590 -0.3412  3.6405
10078SOL    HW231676   5.297   5.281  11.746 -2.1565  2.5489 -0.2765
10079SOL     OW31677   5.969   5.240   3.965  0.1622  0.1710  0.2794
10079SOL    HW131678   6.054   5.280   3.947 -0.3146  1.2129  0.2767
10079SOL    HW231679   5.905   5.308   3.943 -0.7272 -0.9468 -0.7337
10080SOL     OW31680   2.788   1.807   6.292 -0.5040 -0.2236 -0.0478
10080SOL    HW131681   2.799   1.713   6.280  1.2290 -0.0776  0.1874
10080SOL    HW231682   2.763   1.816   6.384 -0.6632 -0.4516 -0.0675
10081SOL     OW31683   3.893   6.768   9.765  0.0596 -0.2284  0.5033
10081SOL    HW131684   3.829   6.839   9.768 -0.0037 -0.0499 -2.3342
10081SOL    HW231685   3.840   6.689   9.757  0.1460 -0.6186  3.1112
10082SOL     OW31686   2.419   2.998   1.752  0.5528 -0.1052  0.0752
10082SOL    HW131687   2.374   2.955   1.825 -2.6449  0.2529 -1.5555
10082SOL    HW231688   2.446   2.926   1.695 -0.8946 -0.1955 -0.5162
10083SOL     OW31689   3.121   3.557   9.725  0.2300  0.5454 -0.6948
10083SOL    HW131690   3.214   3.538   9.718  0.1389  0.3465 -1.4485
10083SOL    HW231691   3.106   3.570   9.819  1.1642  1.3830 -0.6533
10084SOL     OW31692   4.814   6.960   7.374  0.4611 -0.1413  0.1448
10084SOL    HW131693   4.776   7.009   7.447 -0.1099 -0.1609 -0.1356
10084SOL    HW231694   4.842   7.027   7.312  1.1629 -0.1154  0.4820
10085SOL     OW31695   0.848   5.512  11.376  0.9130 -0.5254  0.2912
10085SOL    HW131696   0.873   5.554  11.458  1.2421 -0.5970  0.2313
10085SOL    HW231697   0.772   5.459  11.398  0.1874  0.4777  0.2654
10086SOL     OW31698   4.818   6.240   3.610 -0.1930 -0.3440  0.5746
10086SOL    HW131699   4.754   6.302   3.576 -1.4167 -2.2072 -0.7633
10086SOL    HW231700   4.893   6.249   3.551  0.1382  0.6865  1.1357
10087SOL     OW31701   0.382   7.547   2.164  0.2484 -0.3199 -0.5440
10087SOL    HW131702   0.391   7.630   2.211 -1.6313 -1.3913  1.9771
10087SOL    HW231703   0.471   7.522   2.142  0.8081  2.8701 -2.4702
10088SOL     OW31704   6.401   1.398  11.058  0.0983 -0.2426  0.1131
10088SOL    HW131705   6.358   1.401  10.972 -0.4637  0.6208  0.4141
10088SOL    HW231706   6.365   1.319  11.099  0.2416 -0.5683 -0.3722
10089SOL     OW31707   1.203   5.993  11.146  0.3333  0.0688 -0.2212
10089SOL    HW131708   1.251   5.973  11.065 -0.4962  0.4086 -0.8103
10089SOL    HW231709   1.149   5.916  11.161  0.6178 -0.0656  0.1082
10090SOL     OW31710   1.281   0.818   2.295 -0.0870 -0.3587  0.3811
10090SOL    HW131711   1.314   0.907   2.305  0.8257 -0.8994  2.7619
10090SOL    HW231712   1.355   0.769   2.261 -0.5721 -0.2510 -0.8738
10091SOL     OW31713   2.709   4.285   5.904  0.1758 -0.2148 -0.0022
10091SOL    HW131714   2.719   4.224   5.830 -0.8608  0.4215 -0.6812
10091SOL    HW231715   2.620   4.270   5.935  0.3160  0.1425  0.5709
10092SOL     OW31716   3.286   0.855   4.335 -0.8053  0.0719 -0.0378
10092SOL    HW131717   3.357   0.805   4.297  0.4261 -0.0204  2.1765
10092SOL    HW231718   3.214   0.849   4.272  0.1907 -2.2276 -1.0331
10093SOL     OW31719   5.557   1.963   1.817 -0.6430  0.4801 -0.2508
10093SOL    HW131720   5.574   2.008   1.900 -0.7422  0.1348 -0.0431
10093SOL    HW231721   5.601   2.017   1.751 -0.5963  0.7772  0.0199
10094SOL     OW31722   7.168   6.059  11.301 -0.0251 -0.2480 -0.4364
10094SOL    HW131723   7.253   6.094  11.277 -0.2785  0.0209 -0.9745
10094SOL    HW231724   7.186   5.996  11.370  0.6309 -0.3330 -0.6785
10095SOL     OW31725   0.525   0.819   9.786 -0.3081  0.4672 -0.1695
10095SOL    HW131726   0.465   0.858   9.724  0.4873 -0.0431 -1.2989
10095SOL    HW231727   0.567   0.893   9.830 -3.0785  0.8729  2.0614
10096SOL     OW31728   2.000   3.022  12.114 -0.3355 -0.2242 -0.2084
10096SOL    HW131729   1.960   2.956  12.171 -0.8074  0.4603  0.2769
10096SOL    HW231730   1.928   3.053  12.059 -0.1078 -0.1475 -0.4649
10097SOL     OW31731   6.184   4.900   6.174  0.0450 -0.1687  0.3091
10097SOL    HW131732   6.151   4.962   6.109  0.4733 -0.4741 -0.2045
10097SOL    HW231733   6.129   4.822   6.162  0.9927 -0.7191 -0.6225
10098SOL     OW31734   4.351   1.387   2.444 -0.2356 -0.6338  0.0288
10098SOL    HW131735   4.348   1.481   2.424  0.9094 -0.3261  1.1929
10098SOL    HW231736   4.444   1.368   2.454 -0.5428 -1.5108  1.4981
10099SOL     OW31737   7.289   6.376   8.495  0.0640 -0.5805  0.0557
10099SOL    HW131738   7.369   6.429   8.484 -0.7568  1.3007  2.2579
10099SOL    HW231739   7.219   6.433   8.463 -0.4952 -2.2880 -2.0468
10100SOL     OW31740   3.595   5.801   8.474  0.1931  0.7717 -0.3251
10100SOL    HW131741   3.638   5.885   8.457  2.8194 -0.1161  1.2591
10100SOL    HW231742   3.667   5.738   8.477 -1.5201 -1.2721  0.1967
10101SOL     OW31743   3.939   2.598  12.348 -0.2425 -0.4073 -0.3723
10101SOL    HW131744   4.006   2.666  12.346 -0.5366 -0.0788  0.3883
10101SOL    HW231745   3.955   2.546  12.269  0.9944 -0.4329 -0.1240
10102SOL     OW31746   3.717   3.109   5.403 -0.2049 -0.1254 -0.3749
10102SOL    HW131747   3.636   3.155   5.386 -0.1037 -0.4200 -1.8212
10102SOL    HW231748   3.730   3.053   5.326  1.0890 -0.4876  0.0640
10103SOL     OW31749   3.796   3.100  11.854  0.3147 -0.7364  0.0707
10103SOL    HW131750   3.767   3.094  11.945  1.3740  1.3272  0.6214
10103SOL    HW231751   3.891   3.109  11.860  0.2568  1.2267 -1.0692
10104SOL     OW31752   1.408   7.477   3.361  0.1968 -0.0750  0.6909
10104SOL    HW131753   1.430   7.568   3.337 -0.6666  0.0411  0.3139
10104SOL    HW231754   1.314   7.471   3.346  0.3830 -1.2769 -0.0753
10105SOL     OW31755   3.978   7.289   6.664  0.5563 -0.2689  0.2177
10105SOL    HW131756   3.922   7.328   6.731  0.3169 -0.3866  0.0886
10105SOL    HW231757   4.066   7.289   6.702  0.5110  0.1454  0.3235
10106SOL     OW31758   7.790   5.708   6.989 -0.2887  0.1129 -0.6032
10106SOL    HW131759   7.734   5.631   6.997 -0.6582  0.5351  1.9936
10106SOL    HW231760   7.730   5.782   6.991  0.2161  0.5241  0.2687
10107SOL     OW31761   7.367   0.676  10.045  0.4193 -0.2035  0.4076
10107SOL    HW131762   7.346   0.682  10.138  0.7440  0.6236  0.4290
10107SOL    HW231763   7.436   0.609  10.041  0.6110 -0.0365  0.7967
10108SOL     OW31764   2.424   3.363   2.032 -0.1171 -0.4025  0.0226
10108SOL    HW131765   2.439   3.344   1.939  0.6015  1.1385 -0.1969
10108SOL    HW231766   2.329   3.363   2.041 -0.1930 -0.4486 -0.7267
10109SOL     OW31767   0.631   3.125   5.916  0.2282  0.0370 -0.7067
10109SOL    HW131768   0.554   3.154   5.965 -0.0514  0.8429 -1.6034
10109SOL    HW231769   0.614   3.032   5.898  0.4594 -0.3463  0.9166
10110SOL     OW31770   5.192   0.346  11.565 -0.1305 -0.3804 -0.9578
10110SOL    HW131771   5.173   0.264  11.610  0.5983 -0.3017 -0.4982
10110SOL    HW231772   5.132   0.409  11.604 -1.2874 -0.8544 -1.8959
10111SOL     OW31773   6.176   0.872   6.687 -0.0646  0.1791  0.1338
10111SOL    HW131774   6.120   0.944   6.660  0.4854  0.5605 -0.0174
10111SOL    HW231775   6.151   0.799   6.630  0.7510  0.8359 -1.1273
10112SOL     OW31776   5.044   0.821   6.331 -0.6837 -0.5693  0.5371
10112SOL    HW131777   5.100   0.748   6.357  1.5179  0.9266  0.1983
10112SOL    HW231778   5.077   0.896   6.380  0.2339  1.2240 -2.5328
10113SOL     OW31779   6.009   6.031   2.178 -0.5593 -0.0950  0.3008
10113SOL    HW131780   5.971   6.118   2.190  0.0300  0.0542  1.2117
10113SOL    HW231781   5.938   5.979   2.140 -1.4646  0.3557  1.2999
10114SOL     OW31782   0.404   1.038   6.283 -0.3745 -0.5186  0.2274
10114SOL    HW131783   0.411   0.954   6.327  1.0599  0.4653  2.0119
10114SOL    HW231784   0.490   1.054   6.246 -0.3702  0.5059  0.6283
10115SOL     OW31785   0.058   4.862   4.502 -0.0562  0.4379 -0.4443
10115SOL    HW131786   0.076   4.816   4.420 -0.6840 -0.4056 -0.1315
10115SOL    HW231787   0.094   4.804   4.569 -0.3045  0.7073 -0.0745
10116SOL     OW31788   6.833   7.188   4.360  0.0396 -0.2391 -0.5723
10116SOL    HW131789   6.759   7.248   4.372  0.7333  0.3481  1.0298
10116SOL    HW231790   6.822   7.155   4.271 -1.5883  0.5894 -0.7268
10117SOL     OW31791   6.161   4.513   3.979  0.1236 -0.1325  0.1705
10117SOL    HW131792   6.244   4.493   4.024  0.5864  0.4362 -0.4136
10117SOL    HW231793   6.099   4.532   4.050  0.8526  0.7982  0.5854
10118SOL     OW31794   3.855   1.290   5.878  0.0015  0.4668 -0.5251
10118SOL    HW131795   3.895   1.322   5.798 -1.1493 -3.0661 -2.7352
10118SOL    HW231796   3.913   1.221   5.908 -1.0297 -0.1665  0.0664
10119SOL     OW31797   7.931   4.149  10.894  0.3151  0.4290  0.6516
10119SOL    HW131798   7.849   4.197  10.889  0.7393  1.0187 -1.3987
10119SOL    HW231799   7.999   4.216  10.895  0.9152  0.0007 -2.1866
10120SOL     OW31800   7.861   4.990   6.079 -0.1979 -0.2570  0.1690
10120SOL    HW131801   7.915   5.067   6.095  1.2201 -1.3344  0.7676
10120SOL    HW231802   7.823   5.005   5.993  0.9571  0.6008 -0.2166
10121SOL     OW31803   1.423   6.735   6.171 -0.0161  0.6435  0.2684
10121SOL    HW131804   1.382   6.672   6.111 -1.4772  1.4034  0.4195
10121SOL    HW231805   1.436   6.686   6.252  0.1662  0.1536 -0.0516
10122SOL     OW31806   1.183   3.425   5.167 -0.3581 -0.7715  0.0127
10122SOL    HW131807   1.206   3.332   5.176  1.1263 -0.3511  0.8997
10122SOL    HW231808   1.215   3.449   5.080 -0.4967 -1.0176 -0.1079
10123SOL     OW31809   1.055   6.567   3.051  0.3184 -0.1949  0.4564
10123SOL    HW131810   0.981   6.526   3.006 -2.4374  2.7134  1.8930
10123SOL    HW231811   1.022   6.584   3.140  2.6682  1.4319  1.1047
10124SOL     OW31812   1.722   1.141   4.300 -0.2686 -0.3611  0.0877
10124SOL    HW131813   1.798   1.083   4.306 -1.0975 -1.4861  0.0385
10124SOL    HW231814   1.669   1.120   4.377 -0.7706  0.0542 -0.1387
10125SOL     OW31815   6.058   0.074   4.463 -0.4299 -0.4495  0.1765
10125SOL    HW131816   5.981   0.103   4.415  0.0237  0.7776  0.1471
10125SOL    HW231817   6.028   0.065   4.554 -0.5398  0.3285  0.2214
10126SOL     OW31818   6.206   5.348   7.037 -0.3355 -0.7850 -0.7037
10126SOL    HW131819   6.208   5.269   6.984 -1.0241 -0.8236 -0.6756
10126SOL    HW231820   6.117   5.351   7.073  0.1377 -0.7958  0.5032
10127SOL     OW31821   2.076   1.391   1.246  0.4388 -0.3098  0.3168
10127SOL    HW131822   2.145   1.358   1.303  0.4845 -0.1046  0.3804
10127SOL    HW231823   2.011   1.321   1.243 -0.0439  0.0707  1.4277
10128SOL     OW31824   2.640   7.682   1.194  0.2562  0.2996 -0.6073
10128SOL    HW131825   2.552   7.674   1.158  0.6272  0.2722 -1.5223
10128SOL    HW231826   2.695   7.700   1.119  0.9981  0.6033  0.0003
10129SOL     OW31827   3.916   5.869   8.461  0.7141 -0.0674  0.1924
10129SOL    HW131828   3.897   5.836   8.549  0.3736  3.4982  1.6480
10129SOL    HW231829   4.011   5.883   8.460  0.7202 -0.1142 -0.0418
10130SOL     OW31830   5.194   4.964   8.372 -0.0794  0.9306 -0.0371
10130SOL    HW131831   5.223   4.873   8.369  1.6032  1.4282 -0.2926
10130SOL    HW231832   5.120   4.964   8.433 -0.7435 -0.7469 -0.7936
10131SOL     OW31833   2.095   1.986   8.638  0.0704 -0.0718  0.0149
10131SOL    HW131834   2.140   1.901   8.645 -0.1021 -0.1190  0.6072
10131SOL    HW231835   2.072   1.993   8.545 -1.6326 -1.5788  0.2711
10132SOL     OW31836   0.258   5.252   7.463 -0.2020 -0.2629  0.8059
10132SOL    HW131837   0.318   5.318   7.497 -1.2754  1.7298 -0.8897
10132SOL    HW231838   0.172   5.293   7.469 -1.0887 -2.0176  0.7871
10133SOL     OW31839   1.793   7.256   3.851 -0.6850  0.3857 -0.1619
10133SOL    HW131840   1.728   7.236   3.783 -1.3164 -0.3156  0.6194
10133SOL    HW231841   1.750   7.230   3.933 -0.3631  2.2138  0.6231
10134SOL     OW31842   0.176   7.361  10.908  1.1132 -0.1613 -0.0179
10134SOL    HW131843   0.180   7.439  10.964  0.3528  0.3486 -0.6607
10134SOL    HW231844   0.260   7.318  10.922  1.0370  0.0800  1.3413
10135SOL     OW31845   5.659   6.349  11.146 -0.3480  0.6460  0.2423
10135SOL    HW131846   5.615   6.403  11.080 -1.1798 -0.5364 -0.2146
10135SOL    HW231847   5.589   6.323  11.206 -0.1347 -0.5796 -0.0164
10136SOL     OW31848   6.730   5.620  10.362  0.2400 -0.4031  0.4360
10136SOL    HW131849   6.802   5.683  10.373 -1.3278  1.6723 -0.4391
10136SOL    HW231850   6.723   5.609  10.267  0.6897 -2.2268  0.5851
10137SOL     OW31851   6.914   3.270   9.444 -0.2236 -0.4491  0.7154
10137SOL    HW131852   6.858   3.195   9.463  0.9866 -2.6244 -3.0322
10137SOL    HW231853   6.863   3.324   9.383  0.3125 -0.3622  0.3280
10138SOL     OW31854   6.903   3.269   5.309  0.3912  0.1451  0.0108
10138SOL    HW131855   6.932   3.251   5.220  1.0196  1.2636 -0.0318
10138SOL    HW231856   6.981   3.253   5.363 -0.5243 -2.6325  0.6767
10139SOL     OW31857   7.500   5.341   9.867 -0.0795  0.2154 -0.1585
10139SOL    HW131858   7.538   5.420   9.903  2.6876 -0.2099 -1.8494
10139SOL    HW231859   7.482   5.362   9.776  0.9887 -1.1277 -0.7193
10140SOL     OW31860   7.521   5.912   0.398  0.2507  0.0634 -0.1683
10140SOL    HW131861   7.546   5.880   0.311  0.4672  0.8686 -0.4110
10140SOL    HW231862   7.437   5.956   0.384 -1.2753 -2.3927  0.5927
10141SOL     OW31863   5.562   1.542   6.404  0.0033  0.3032 -0.7003
10141SOL    HW131864   5.564   1.521   6.311  0.2187 -2.1880 -0.2011
10141SOL    HW231865   5.478   1.507   6.435 -0.1618  1.2800  0.0303
10142SOL     OW31866   0.579   7.326   2.372 -0.2606 -0.3229  0.3539
10142SOL    HW131867   0.586   7.295   2.282  0.1635  0.0077  0.2719
10142SOL    HW231868   0.669   7.341   2.400 -0.4732  1.9275  0.0081
10143SOL     OW31869   3.279   0.741   6.202  0.2367 -0.0180  0.2787
10143SOL    HW131870   3.259   0.654   6.237  0.3161  0.5478  1.7716
10143SOL    HW231871   3.373   0.740   6.189  0.2059 -0.2289  0.0494
10144SOL     OW31872   5.059   5.681   7.672  0.5486 -0.8555 -0.3249
10144SOL    HW131873   4.980   5.629   7.666 -0.7056  0.8934  0.2638
10144SOL    HW231874   5.037   5.764   7.630  1.3671  0.4268  1.6264
10145SOL     OW31875   6.887   0.468   6.106  0.3562  0.4374 -0.5496
10145SOL    HW131876   6.869   0.378   6.077  1.6871 -0.3556  0.9049
10145SOL    HW231877   6.878   0.521   6.027 -1.5472 -0.7940 -1.2258
10146SOL     OW31878   7.357   1.644   5.729  0.3681 -0.7407  0.3273
10146SOL    HW131879   7.262   1.636   5.745  0.3039 -3.3708 -0.8748
10146SOL    HW231880   7.390   1.689   5.807 -1.8793  0.5413  0.6412
10147SOL     OW31881   4.987   2.046   5.531 -0.0267  0.5227 -0.4532
10147SOL    HW131882   5.019   2.132   5.504  1.4165 -0.6745 -2.9144
10147SOL    HW231883   4.956   2.006   5.450  0.4159 -1.7128  0.4264
10148SOL     OW31884   5.941   0.710  11.340 -0.1642  0.2562 -0.2097
10148SOL    HW131885   5.928   0.636  11.281  1.6850  0.3022 -0.7524
10148SOL    HW231886   5.986   0.673  11.416 -1.3421  0.4347  0.5931
10149SOL     OW31887   7.039   4.715   0.750  0.0161 -0.5812  0.6233
10149SOL    HW131888   6.943   4.718   0.750  0.0345  0.4567 -0.0166
10149SOL    HW231889   7.063   4.714   0.658  0.6290 -0.4021  0.7766
10150SOL     OW31890   5.623   6.186   6.098 -0.8239  0.6839 -0.0752
10150SOL    HW131891   5.558   6.117   6.098 -1.0603  0.7733  2.9565
10150SOL    HW231892   5.651   6.193   6.189  0.4622  3.4188 -0.5710
10151SOL     OW31893   6.946   5.377   5.992  0.4915  0.2222  0.2017
10151SOL    HW131894   6.998   5.313   6.040  0.0439 -2.0438 -2.1562
10151SOL    HW231895   7.001   5.403   5.919 -0.2288  0.7442 -0.1666
10152SOL     OW31896   3.747   1.003   7.598  0.2769 -0.5943  0.1848
10152SOL    HW131897   3.746   0.977   7.506  1.6501 -1.2075  0.3372
10152SOL    HW231898   3.666   0.966   7.634 -0.8946  0.6525 -1.0127
10153SOL     OW31899   6.413   3.025   2.115  0.6453 -0.2857 -0.1977
10153SOL    HW131900   6.332   3.066   2.084 -1.1085 -2.4156  1.1892
10153SOL    HW231901   6.428   3.064   2.201 -0.0114 -1.1786  0.3451
10154SOL     OW31902   0.075   7.366   0.419 -0.0933  0.1114 -0.2647
10154SOL    HW131903  -0.004   7.314   0.401 -0.0722  0.4582 -1.4630
10154SOL    HW231904   0.048   7.457   0.401  0.0801  0.4496  1.0841
10155SOL     OW31905   7.977   0.108  10.118 -0.1059  0.1157 -0.3891
10155SOL    HW131906   8.007   0.052  10.190 -1.6184  0.1665  0.3002
10155SOL    HW231907   8.057   0.127  10.069  1.1734  0.8645  1.8035
10156SOL     OW31908   1.371   5.269   6.993  0.0829 -0.4583  0.0052
10156SOL    HW131909   1.389   5.360   7.018 -0.4147 -0.7102  1.3386
10156SOL    HW231910   1.300   5.242   7.050  0.8980 -2.0133  0.3259
10157SOL     OW31911   0.370   2.647  12.256  0.1645 -0.2010  0.0746
10157SOL    HW131912   0.437   2.639  12.188 -0.3249 -1.5823 -0.2848
10157SOL    HW231913   0.340   2.737  12.250  1.5080  0.2447 -0.2126
10158SOL     OW31914   6.771   4.433  11.927 -0.3179  0.0627 -0.5747
10158SOL    HW131915   6.699   4.496  11.924 -2.0069 -1.8035 -1.2111
10158SOL    HW231916   6.836   4.470  11.866 -1.1357  1.3051 -0.7441
10159SOL     OW31917   5.361   3.747   2.740 -0.1587 -0.6237 -0.2627
10159SOL    HW131918   5.276   3.706   2.722  0.1924 -0.3955 -2.8270
10159SOL    HW231919   5.347   3.840   2.724  0.1010 -0.2571  1.4130
10160SOL     OW31920   5.419   4.244   5.447  1.3430  0.1514  0.1249
10160SOL    HW131921   5.425   4.168   5.390 -0.4608  0.9542 -1.2455
10160SOL    HW231922   5.340   4.289   5.418  2.3085  2.5151  0.9405
10161SOL     OW31923   1.473   6.463   7.496  0.3889  0.0454 -0.2952
10161SOL    HW131924   1.395   6.499   7.454 -0.3868 -0.8114  0.3735
10161SOL    HW231925   1.536   6.535   7.495 -0.4149  0.7611 -0.8244
10162SOL     OW31926   0.409   2.552  10.402 -0.4509 -0.1770 -0.1771
10162SOL    HW131927   0.431   2.619  10.467 -0.9652 -1.9837  1.9638
10162SOL    HW231928   0.493   2.530  10.361  0.0610  0.2257  0.6331
10163SOL     OW31929   0.922   0.439   1.583 -0.6241 -0.4017 -0.8637
10163SOL    HW131930   0.928   0.366   1.521 -0.5035 -0.2710 -1.0071
10163SOL    HW231931   0.949   0.516   1.532 -0.7355 -0.2592 -0.7092
10164SOL     OW31932   7.103   6.447  10.697  0.4301 -0.1836 -0.1851
10164SOL    HW131933   7.175   6.507  10.716  1.1764 -1.2867  0.6482
10164SOL    HW231934   7.080   6.464  10.606  0.9698  0.9794 -0.1162
10165SOL     OW31935   3.359   5.265  11.600  1.2195  0.4976  0.0983
10165SOL    HW131936   3.310   5.184  11.586  2.3030 -0.0671 -0.5458
10165SOL    HW231937   3.407   5.278  11.518  1.8030  1.2623  0.5555
10166SOL     OW31938   0.748   0.585   5.849  0.1138 -0.6565  0.2044
10166SOL    HW131939   0.668   0.538   5.872 -0.7732  0.6140 -0.1790
10166SOL    HW231940   0.718   0.659   5.795  1.1569  1.5401  2.3976
10167SOL     OW31941   0.556   7.396   1.816 -0.1760  0.1864 -0.3217
10167SOL    HW131942   0.506   7.317   1.838 -0.6029 -0.2351 -2.5527
10167SOL    HW231943   0.569   7.440   1.900 -1.2249 -1.4884  0.7901
10168SOL     OW31944   3.037   2.097   9.261 -0.1397 -0.5910  0.2677
10168SOL    HW131945   3.102   2.094   9.331  1.0513  0.5642 -0.7312
10168SOL    HW231946   3.067   2.168   9.204 -1.7774 -0.6526 -0.7331
10169SOL     OW31947   4.726   0.179   3.291  0.6094  0.1487  0.3949
10169SOL    HW131948   4.790   0.224   3.235 -0.1312 -0.5696 -1.1080
10169SOL    HW231949   4.774   0.103   3.325  0.2814 -1.1602 -1.8230
10170SOL     OW31950   4.120   1.797   4.968  0.0230  0.4720  0.1156
10170SOL    HW131951   4.063   1.838   5.032  1.1091  0.7973  0.9066
10170SOL    HW231952   4.158   1.722   5.013  0.1024  0.1633 -0.4480
10171SOL     OW31953   4.097   6.544   3.551 -0.1651 -0.4665  0.3959
10171SOL    HW131954   4.138   6.573   3.469  1.2504 -0.6663  1.0073
10171SOL    HW231955   4.092   6.449   3.542 -0.7760 -0.4247  0.2158
10172SOL     OW31956   3.830   1.264   5.022 -0.3478 -0.2254 -0.0005
10172SOL    HW131957   3.842   1.192   4.960 -0.4611  1.2345 -1.8232
10172SOL    HW231958   3.902   1.324   5.003  0.5423 -0.4176  2.4083
10173SOL     OW31959   7.327   0.610   4.516 -0.5829  0.3338  0.4832
10173SOL    HW131960   7.371   0.526   4.531 -1.3635 -0.4045 -1.1560
10173SOL    HW231961   7.269   0.620   4.591 -0.8846 -0.8742  0.4310
10174SOL     OW31962   7.038   6.895   8.365 -0.3966  0.2403  0.0127
10174SOL    HW131963   7.040   6.988   8.388  2.2001  0.4671 -0.8582
10174SOL    HW231964   6.982   6.856   8.433  0.2291  2.1003  1.7212
10175SOL     OW31965   1.463   3.344   4.999 -0.6383  0.4074  0.9172
10175SOL    HW131966   1.517   3.303   4.932 -0.7217 -0.2978  1.2799
10175SOL    HW231967   1.418   3.415   4.953 -1.3602 -0.5995  0.0220
10176SOL     OW31968   4.779   1.484  10.535  0.3471 -0.2709  0.0461
10176SOL    HW131969   4.874   1.495  10.525  0.1602  0.9749 -0.4944
10176SOL    HW231970   4.761   1.515  10.624  0.5526 -1.4072  0.5093
10177SOL     OW31971   2.135   7.607   9.909 -0.3362 -0.0976 -0.2944
10177SOL    HW131972   2.190   7.546   9.958 -1.8485  0.2581  1.9867
10177SOL    HW231973   2.046   7.572   9.917 -1.2037  2.1470  0.8167
10178SOL     OW31974   7.023   5.779   0.661 -0.4857 -0.2912 -0.0648
10178SOL    HW131975   6.973   5.698   0.651 -0.3850 -0.4162  0.4361
10178SOL    HW231976   7.097   5.769   0.602  0.0071 -0.9508  0.6509
10179SOL     OW31977   0.535   5.643   2.645  0.0494  0.4424  0.4058
10179SOL    HW131978   0.498   5.726   2.676  0.9183  0.6231  0.9848
10179SOL    HW231979   0.521   5.645   2.550 -1.1796  0.6176  0.5716
10180SOL     OW31980   2.251   3.624   7.504  0.0524 -0.0174  0.4411
10180SOL    HW131981   2.307   3.588   7.435  0.5101  1.0088  0.2525
10180SOL    HW231982   2.191   3.553   7.526  2.2860 -1.6760  1.6374
10181SOL     OW31983   1.192   1.297   4.107  0.3320  0.2204  0.0090
10181SOL    HW131984   1.230   1.236   4.044  1.0829  2.4441 -1.8215
10181SOL    HW231985   1.100   1.305   4.080  0.5981  1.0009 -0.6928
10182SOL     OW31986   5.130   7.835   8.401 -0.1133  0.0399  0.3051
10182SOL    HW131987   5.148   7.871   8.314  2.3176 -1.5062  0.0774
10182SOL    HW231988   5.105   7.911   8.454  1.9488  1.6249 -0.8531
10183SOL     OW31989   2.544   3.671  10.451  0.3678 -0.2239  0.8680
10183SOL    HW131990   2.506   3.588  10.421  0.1262  0.6452 -1.3965
10183SOL    HW231991   2.595   3.703  10.376  0.8019  1.4711  1.8334
10184SOL     OW31992   5.676   4.786  10.519 -0.0991  0.6541  0.2040
10184SOL    HW131993   5.591   4.794  10.475 -0.9314 -1.6588  1.2064
10184SOL    HW231994   5.734   4.751  10.451 -1.3069 -2.6330  0.6564
10185SOL     OW31995   4.673   2.367   9.099  0.0063  0.1556  0.0240
10185SOL    HW131996   4.609   2.434   9.121  0.2913 -0.0738  1.6949
10185SOL    HW231997   4.667   2.303   9.170  1.0641 -0.6186 -0.5446
10186SOL     OW31998   1.707   7.667   5.275 -0.2140  0.0887  0.5648
10186SOL    HW131999   1.679   7.727   5.206 -0.7050 -0.4731  0.2646
10186SOL    HW232000   1.756   7.599   5.229  2.0522  1.2306  1.1170
10187SOL     OW32001   5.313   5.463  10.025 -0.0334  0.3119 -0.3099
10187SOL    HW132002   5.314   5.517   9.947  3.1819 -0.0066 -0.5919
10187SOL    HW232003   5.287   5.376   9.994  0.8877  0.2660 -0.9764
10188SOL     OW32004   1.013   7.518  10.946  0.0635 -0.2903 -0.2613
10188SOL    HW132005   1.039   7.571  10.870  1.0917  0.5802  0.6629
10188SOL    HW232006   1.065   7.552  11.018 -2.5879  0.5629  1.4172
10189SOL     OW32007   4.917   7.483  11.743  0.1438 -0.0078 -0.2251
10189SOL    HW132008   4.985   7.486  11.676  0.1321  0.0318 -0.2353
10189SOL    HW232009   4.837   7.463  11.696 -0.3313  2.4538 -0.5944
10190SOL     OW32010   5.215   1.275   2.625  0.0730 -0.2547  0.0914
10190SOL    HW132011   5.236   1.366   2.647  0.6425 -0.1707 -0.7427
10190SOL    HW232012   5.120   1.272   2.625  0.0318 -0.1083  1.8906
10191SOL     OW32013   7.680   7.399   2.436  0.5677  0.2507 -0.0077
10191SOL    HW132014   7.770   7.369   2.440  0.1833 -0.9078  0.5368
10191SOL    HW232015   7.654   7.407   2.528 -0.8714 -2.6727 -0.0457
10192SOL     OW32016   1.288   0.602   3.479  0.3063  0.4347 -0.8721
10192SOL    HW132017   1.271   0.682   3.429  0.4754  1.2884  0.3963
10192SOL    HW232018   1.245   0.617   3.563 -0.4044 -1.1869 -0.9225
10193SOL     OW32019   2.796   7.324   9.919  0.2452  0.1923 -0.1168
10193SOL    HW132020   2.856   7.379   9.969  2.1080 -0.2843 -1.7264
10193SOL    HW232021   2.852   7.260   9.876 -1.6774 -1.8930  0.2810
10194SOL     OW32022   5.395   0.899   5.217 -0.1425  0.1422 -0.1463
10194SOL    HW132023   5.428   0.986   5.195 -0.3001  0.4849  0.9267
10194SOL    HW232024   5.306   0.898   5.182  0.8972 -0.7990 -3.0905
10195SOL     OW32025   2.940   4.659  11.276 -0.2563 -0.4069 -0.0641
10195SOL    HW132026   2.869   4.710  11.317  0.5935  0.3586  0.4915
10195SOL    HW232027   2.910   4.646  11.185 -1.5904 -1.0413  0.4322
10196SOL     OW32028   6.550   3.605   1.619 -0.0888 -0.1069  0.5889
10196SOL    HW132029   6.645   3.597   1.610  0.0698  0.3058  1.7079
10196SOL    HW232030   6.529   3.692   1.585 -0.0320 -0.1140  0.5366
10197SOL     OW32031   0.517   4.082   9.500  0.1412  0.1995 -0.2198
10197SOL    HW132032   0.528   3.987   9.494 -1.2526  0.1157 -2.7207
10197SOL    HW232033   0.435   4.100   9.453  0.4772  2.6726  0.0018
10198SOL     OW32034   0.186   4.835   3.508 -0.2201  0.4184  0.0053
10198SOL    HW132035   0.146   4.773   3.570 -0.7187 -0.6775 -1.3407
10198SOL    HW232036   0.132   4.914   3.514 -0.9189 -0.0620  0.2089
10199SOL     OW32037   6.565   0.331   1.520 -0.5527  0.1944 -0.1158
10199SOL    HW132038   6.522   0.249   1.541 -0.6078  0.0567 -0.7570
10199SOL    HW232039   6.504   0.399   1.549  0.0632  0.0465  1.6576
10200SOL     OW32040   1.308   4.095   2.550  0.4213  0.2024  0.0378
10200SOL    HW132041   1.367   4.107   2.625 -0.2398  0.0652  0.5923
10200SOL    HW232042   1.272   4.007   2.562  2.3644 -0.9836 -1.9401
10201SOL     OW32043   5.837   6.442   3.298 -0.2430  0.9552  0.0950
10201SOL    HW132044   5.744   6.438   3.321 -0.1123 -0.7464  0.4744
10201SOL    HW232045   5.845   6.520   3.243 -2.6166 -0.7636 -3.0137
10202SOL     OW32046   3.256   0.940   4.655 -0.5805 -0.7619 -0.0209
10202SOL    HW132047   3.172   0.956   4.610 -1.4073  1.5083  2.1368
10202SOL    HW232048   3.322   0.953   4.587 -1.8319  1.4835 -0.9226
10203SOL     OW32049   2.185   6.986  10.749  0.0911  0.2370  0.5402
10203SOL    HW132050   2.200   7.065  10.801  3.5008 -0.4606  0.8296
10203SOL    HW232051   2.142   6.925  10.809  1.3911  0.4245  1.7128
10204SOL     OW32052   7.663   2.212   0.982  0.5309  0.4609  0.1320
10204SOL    HW132053   7.574   2.180   0.998  0.1604  0.5019 -1.5749
10204SOL    HW232054   7.708   2.203   1.065 -1.1120  0.5596  1.0662
10205SOL     OW32055   7.156   2.805   8.219 -0.0772 -0.0571 -0.0812
10205SOL    HW132056   7.116   2.719   8.218  0.5960 -0.3898 -1.4156
10205SOL    HW232057   7.096   2.860   8.168  0.6774 -0.3526 -1.3418
10206SOL     OW32058   0.113   6.257  10.480  0.3162  0.0400 -0.0956
10206SOL    HW132059   0.052   6.247  10.554 -0.4509  0.6191 -0.6323
10206SOL    HW232060   0.167   6.178  10.483 -0.4024 -0.4502  0.4623
10207SOL     OW32061   0.331   3.352  12.267  0.0719  0.0656 -0.3912
10207SOL    HW132062   0.414   3.398  12.251  1.0119 -0.4672  2.3590
10207SOL    HW232063   0.317   3.360  12.362 -1.6968 -2.0728 -0.3906
10208SOL     OW32064   5.959   5.361  12.272  0.3995  1.0813 -0.0324
10208SOL    HW132065   5.947   5.268  12.251 -1.2691  1.3834 -0.5725
10208SOL    HW232066   5.903   5.376  12.349 -0.6841  1.9726 -0.9503
10209SOL     OW32067   2.323   6.097   6.583  0.2503  0.5806 -0.1367
10209SOL    HW132068   2.277   6.162   6.636 -0.3227  0.3150 -0.3042
10209SOL    HW232069   2.342   6.142   6.500 -0.9536  0.2632 -0.6028
10210SOL     OW32070   6.187   4.059   1.618 -0.2640  0.5482  0.2777
10210SOL    HW132071   6.243   4.092   1.548  1.9902 -1.8554  0.7830
10210SOL    HW232072   6.243   4.057   1.695 -0.9252 -2.0753  0.7998
10211SOL     OW32073   5.570   1.946   6.541  0.0687  0.1179  0.7628
10211SOL    HW132074   5.599   2.015   6.600  0.4732 -0.0491  0.7643
10211SOL    HW232075   5.499   1.985   6.490  1.3403  1.0509 -0.3499
10212SOL     OW32076   5.683   0.584   2.540  0.1635  0.2155 -1.1849
10212SOL    HW132077   5.675   0.601   2.634 -0.4641  0.9085 -1.3561
10212SOL    HW232078   5.775   0.599   2.521  1.1743 -3.4590 -0.0303
10213SOL     OW32079   0.791   5.952  11.235 -0.6327 -0.3355  0.3085
10213SOL    HW132080   0.705   5.924  11.203 -0.5041 -0.2325 -0.1297
10213SOL    HW232081   0.782   5.949  11.330 -0.5371 -2.1674  0.3093
10214SOL     OW32082   1.553   4.977   1.732 -0.1562  0.2243 -0.0915
10214SOL    HW132083   1.605   5.039   1.783 -0.4924  0.9194 -0.5689
10214SOL    HW232084   1.494   4.937   1.796  0.1027  0.3572  0.2349
10215SOL     OW32085   5.418   2.127   8.519  0.2495 -0.1195 -0.3824
10215SOL    HW132086   5.476   2.055   8.495 -0.4833 -1.0445  0.4559
10215SOL    HW232087   5.440   2.146   8.610 -0.0640  0.2112 -0.3721
10216SOL     OW32088   1.378   6.689   0.253  0.4925 -0.2298  0.3553
10216SOL    HW132089   1.389   6.608   0.203 -0.7660 -1.0287  1.2960
10216SOL    HW232090   1.353   6.755   0.188 -1.8063 -1.4010 -0.0464
10217SOL     OW32091   7.213   7.898  11.959  0.5600  0.3903 -0.6844
10217SOL    HW132092   7.128   7.903  11.916 -0.3622 -1.9744  0.7448
10217SOL    HW232093   7.273   7.868  11.890  0.4302  2.4914 -1.8106
10218SOL     OW32094   2.809   2.269   7.718  0.0740 -0.0847  0.0459
10218SOL    HW132095   2.889   2.297   7.673  0.1900  1.1019  0.9339
10218SOL    HW232096   2.832   2.272   7.811 -1.2098  1.0374  0.3638
10219SOL     OW32097   7.106   7.049  10.588 -0.1584 -0.1629  0.0736
10219SOL    HW132098   7.172   7.000  10.539 -0.8108 -0.9919  0.0048
10219SOL    HW232099   7.121   7.140  10.564  1.7468 -0.1754  0.9956
10220SOL     OW32100   0.705   0.684   5.255 -0.2367  0.0097 -0.6032
10220SOL    HW132101   0.727   0.640   5.338 -0.0858 -0.3651 -0.8408
10220SOL    HW232102   0.779   0.665   5.197 -0.5467 -0.1048 -0.9665
10221SOL     OW32103   0.455   4.228   5.915  0.2052  0.5037 -0.3643
10221SOL    HW132104   0.502   4.180   5.847 -1.4153  0.7950 -1.7580
10221SOL    HW232105   0.378   4.174   5.933  0.3830  0.6597  0.9338
10222SOL     OW32106   5.218   7.601  10.368  0.5559 -0.1972 -0.4448
10222SOL    HW132107   5.217   7.555  10.452  0.8086  0.0624 -0.2979
10222SOL    HW232108   5.221   7.693  10.392  0.7225 -0.1261 -0.7406
10223SOL     OW32109   2.484   4.349   9.355  0.4593 -0.4685  1.0206
10223SOL    HW132110   2.442   4.432   9.332  1.5563 -0.5126 -1.4711
10223SOL    HW232111   2.568   4.375   9.395  1.5306 -0.2569 -1.1860
10224SOL     OW32112   5.793   2.928   3.899  0.0687 -0.4543 -0.3596
10224SOL    HW132113   5.856   2.906   3.968 -1.9247 -0.7746  1.4525
10224SOL    HW232114   5.815   2.867   3.828 -0.4485 -3.1722  1.6341
10225SOL     OW32115   1.560   7.543   9.486 -0.1404  0.3169  0.6543
10225SOL    HW132116   1.627   7.569   9.423 -0.6665  1.1598  0.4149
10225SOL    HW232117   1.587   7.457   9.516  0.3807  0.1030 -0.3744
10226SOL     OW32118   4.496   0.010  10.932  0.0188 -0.6715 -0.3552
10226SOL    HW132119   4.474   0.048  10.847 -1.3898 -1.8800 -0.5677
10226SOL    HW232120   4.534   0.083  10.981 -1.7560  0.8286 -1.0572
10227SOL     OW32121   5.411   2.716  12.417 -0.6496 -0.6183  0.0338
10227SOL    HW132122   5.417   2.770  12.338 -0.3974  0.2393  0.6126
10227SOL    HW232123   5.318   2.693  12.423 -0.9107  0.4159  0.1813
10228SOL     OW32124   1.187   2.270   8.601 -0.1646 -0.2293  0.0012
10228SOL    HW132125   1.146   2.186   8.619 -1.8109  0.9484  2.4231
10228SOL    HW232126   1.262   2.273   8.660 -0.0629 -0.0518 -0.1372
10229SOL     OW32127   4.204   1.094   9.450  0.2197  0.4510 -0.6297
10229SOL    HW132128   4.284   1.140   9.476 -0.2919  0.9266  0.1368
10229SOL    HW232129   4.155   1.082   9.531 -1.5495  2.1863 -1.3627
10230SOL     OW32130   3.808   7.358   6.854 -0.0413  0.4585 -0.0294
10230SOL    HW132131   3.806   7.320   6.942  0.1567 -0.9371 -0.5935
10230SOL    HW232132   3.843   7.446   6.866  0.7750 -0.0089  1.2091
10231SOL     OW32133   1.804   6.604   6.646 -0.2072  0.0040  0.1392
10231SOL    HW132134   1.742   6.535   6.669 -0.3008  0.1629  0.3702
10231SOL    HW232135   1.753   6.666   6.593 -0.0191 -0.3071 -0.4111
10232SOL     OW32136   3.685   2.051   9.524  0.6443 -0.1203  0.6770
10232SOL    HW132137   3.704   1.981   9.460 -1.4437 -1.1767  1.1103
10232SOL    HW232138   3.613   2.099   9.484 -1.4752 -1.4904  2.6309
10233SOL     OW32139   5.625   7.877   3.525  0.4020 -0.1784 -0.4848
10233SOL    HW132140   5.602   7.927   3.446  1.0062  1.4156  0.3045
10233SOL    HW232141   5.541   7.845   3.557 -0.0576  0.6305 -0.8365
10234SOL     OW32142   3.533   4.467   4.053  0.2886 -0.2606  0.2870
10234SOL    HW132143   3.452   4.453   4.101  0.7890  2.4061  2.1009
10234SOL    HW232144   3.579   4.383   4.060 -0.7744 -0.7460  2.2851
10235SOL     OW32145   1.578   1.556   2.052 -0.6252  0.2795  0.1605
10235SOL    HW132146   1.673   1.564   2.062 -0.2237 -3.6965  1.1080
10235SOL    HW232147   1.566   1.508   1.969 -1.8364  0.7137  0.0557
10236SOL     OW32148   0.107   2.027   6.123 -0.5326 -0.2328  0.2936
10236SOL    HW132149   0.170   2.024   6.195  0.5638 -1.1045 -0.6515
10236SOL    HW232150   0.091   2.120   6.109  1.2485  0.0769  0.0082
10237SOL     OW32151   6.891   3.616   2.636 -0.7118 -0.0765  0.4173
10237SOL    HW132152   6.881   3.638   2.728 -0.3228  1.5872  0.0890
10237SOL    HW232153   6.964   3.670   2.605 -0.1077 -1.4051 -0.6188
10238SOL     OW32154   2.502   6.075   8.973  0.1149  0.3607 -0.0086
10238SOL    HW132155   2.451   6.150   8.943 -0.6447 -0.4257 -0.7498
10238SOL    HW232156   2.509   6.019   8.896  0.3912 -0.4827  0.6147
10239SOL     OW32157   3.050   0.773   7.200  0.1944  0.3813 -0.0374
10239SOL    HW132158   3.011   0.789   7.114  0.9898  2.5572 -0.0682
10239SOL    HW232159   3.000   0.829   7.260  1.1741  0.7416  0.4703
10240SOL     OW32160   4.436   7.686   5.354  0.0760 -0.0927  0.2118
10240SOL    HW132161   4.524   7.655   5.375 -0.5804 -1.5503  0.9556
10240SOL    HW232162   4.408   7.735   5.432 -0.4904 -1.3122  0.8053
10241SOL     OW32163   2.912   7.973  10.842  0.6151 -0.2458  0.2865
10241SOL    HW132164   2.990   7.992  10.893  0.9251  1.5626 -0.7769
10241SOL    HW232165   2.839   8.006  10.895  0.5434 -1.7701  1.1967
10242SOL     OW32166   5.806   6.857   5.703 -0.8349  0.0961  0.4529
10242SOL    HW132167   5.776   6.766   5.693  0.1824 -0.2628  0.5324
10242SOL    HW232168   5.901   6.850   5.707 -0.8106  0.9755  2.5179
10243SOL     OW32169   5.332   1.270   8.757  0.4642 -0.2352 -0.6767
10243SOL    HW132170   5.418   1.243   8.788  0.1166 -0.9269 -0.2991
10243SOL    HW232171   5.342   1.279   8.663  1.2234  0.7343 -0.5203
10244SOL     OW32172   6.440   2.265   6.991 -0.4899  0.5982  0.1058
10244SOL    HW132173   6.440   2.359   7.006  1.2668  0.3913  1.7369
10244SOL    HW232174   6.445   2.256   6.896 -2.5373  2.0996 -0.2069
10245SOL     OW32175   2.515   3.175   0.172 -0.0147 -0.4014  0.1488
10245SOL    HW132176   2.503   3.268   0.157  0.2696 -0.3527  0.2129
10245SOL    HW232177   2.465   3.156   0.252  2.1225  0.2589  1.7418
10246SOL     OW32178   3.444   1.275   5.570  0.0769 -0.2431 -0.7613
10246SOL    HW132179   3.470   1.182   5.566 -0.2306 -0.3456 -0.3783
10246SOL    HW232180   3.349   1.273   5.575  0.1132  0.0616  0.2167
10247SOL     OW32181   2.596   2.619   0.198 -0.1022  0.2014  0.5010
10247SOL    HW132182   2.579   2.525   0.206 -0.6103  0.3512  1.2978
10247SOL    HW232183   2.516   2.661   0.229  0.2260  0.9046  0.4259
10248SOL     OW32184   1.317   7.760   3.464 -0.1891  0.2310 -0.4239
10248SOL    HW132185   1.309   7.759   3.559 -0.2402  0.2864 -0.4269
10248SOL    HW232186   1.279   7.844   3.438 -2.4936 -0.7985 -0.6767
10249SOL     OW32187   7.880   6.838   3.501  0.2890  0.7429  0.0274
10249SOL    HW132188   7.903   6.845   3.408  0.7000 -0.7415 -0.0018
10249SOL    HW232189   7.884   6.928   3.533  0.5575  1.2242 -1.2976
10250SOL     OW32190   3.207   1.344   3.148 -0.2672  0.6922  0.3465
10250SOL    HW132191   3.149   1.331   3.223 -0.6816  0.8448  0.0591
10250SOL    HW232192   3.287   1.297   3.171 -0.2007  1.1549  1.0988
10251SOL     OW32193   0.388   4.238  10.822  0.0425  0.0379 -0.1789
10251SOL    HW132194   0.344   4.249  10.906  0.6958  0.3007  0.1349
10251SOL    HW232195   0.481   4.240  10.844  0.2149 -1.0174 -0.7640
10252SOL     OW32196   2.331   6.236  12.100  1.0196  0.0025 -0.3657
10252SOL    HW132197   2.404   6.295  12.118 -0.5150  1.1534  2.9376
10252SOL    HW232198   2.253   6.287  12.120 -0.4319 -2.7752  1.8742
10253SOL     OW32199   4.995   1.343  11.831 -0.2415 -0.2096  0.0478
10253SOL    HW132200   5.023   1.268  11.778 -0.5950  0.1151 -0.6099
10253SOL    HW232201   5.065   1.355  11.895 -0.2188 -1.1512  0.2150
10254SOL     OW32202   6.812   2.464   4.675 -0.7933  0.0735  0.0975
10254SOL    HW132203   6.818   2.547   4.628  0.1876  0.3810  0.7462
10254SOL    HW232204   6.730   2.470   4.723 -0.8675  0.5503 -0.0830
10255SOL     OW32205   0.857   6.423   6.950  0.4154 -0.0180 -1.0102
10255SOL    HW132206   0.836   6.490   6.885 -1.2535  0.6591  0.1189
10255SOL    HW232207   0.789   6.357   6.939 -1.6336  1.4065  1.6691
10256SOL     OW32208   7.161   0.497   6.157  0.4665 -0.1994  0.2432
10256SOL    HW132209   7.154   0.551   6.078 -0.2667  0.5233  0.7780
10256SOL    HW232210   7.070   0.479   6.181  0.6719 -2.7364 -0.6089
10257SOL     OW32211   0.238   4.280   0.755  0.3656  0.4174  0.4882
10257SOL    HW132212   0.167   4.337   0.725 -0.1935 -0.6947 -0.4012
10257SOL    HW232213   0.306   4.340   0.786 -0.8895  1.5209  1.2401
10258SOL     OW32214   3.315   0.099  11.504  0.4720  0.3839  0.1154
10258SOL    HW132215   3.309   0.177  11.449 -0.5777  0.7602  0.7389
10258SOL    HW232216   3.351   0.130  11.587 -1.4300  0.5527  0.9353
10259SOL     OW32217   6.347   5.652   3.222  0.5361 -0.3525 -0.2509
10259SOL    HW132218   6.435   5.639   3.257  0.6126  0.6255 -0.0534
10259SOL    HW232219   6.297   5.690   3.294  0.1468 -0.2352 -0.5748
10260SOL     OW32220   0.921   4.616   1.609  0.4277  0.1648 -0.2699
10260SOL    HW132221   0.852   4.553   1.627  1.3813 -0.5074  1.2402
10260SOL    HW232222   0.967   4.580   1.533  1.6365 -1.5909  1.2298
10261SOL     OW32223   6.030   5.567   9.375  0.8741 -0.1699  0.7471
10261SOL    HW132224   6.073   5.555   9.291  0.7092 -0.7404  0.7399
10261SOL    HW232225   5.937   5.575   9.354  0.8331 -0.3063  0.8774
10262SOL     OW32226   3.271   0.201   0.751 -0.0201 -0.2966 -0.4415
10262SOL    HW132227   3.279   0.183   0.845  0.0877 -0.1393 -0.4195
10262SOL    HW232228   3.327   0.278   0.737 -2.7984  2.0038  0.0565
10263SOL     OW32229   1.003   1.631   4.047 -0.4314  0.7213 -0.1594
10263SOL    HW132230   1.048   1.554   4.012 -1.2048 -0.6322  1.6562
10263SOL    HW232231   0.940   1.655   3.978  1.4793  1.3175 -1.7958
10264SOL     OW32232   1.447   0.308   8.750  0.8338 -0.8590  0.1428
10264SOL    HW132233   1.382   0.368   8.786 -1.7474 -1.2859 -3.2963
10264SOL    HW232234   1.527   0.360   8.744 -0.3398  1.1096  0.5206
10265SOL     OW32235   0.595   3.448  12.314  0.7937 -0.9011 -0.3755
10265SOL    HW132236   0.632   3.494  12.239  0.9474 -0.1016  0.1829
10265SOL    HW232237   0.632   3.492  12.391  0.2635 -1.3932  0.1743
10266SOL     OW32238   7.795   4.303   4.442 -0.2243  0.0862  0.3147
10266SOL    HW132239   7.801   4.208   4.440  0.0779  0.0965  0.6414
10266SOL    HW232240   7.747   4.326   4.363 -0.0167 -0.3184  0.0679
10267SOL     OW32241   0.989   1.508  10.807  0.0862  0.4859  0.2507
10267SOL    HW132242   1.062   1.567  10.787 -0.6986  1.4580  0.1807
10267SOL    HW232243   0.949   1.488  10.722  0.1360  0.1203  0.3082
10268SOL     OW32244   4.614   1.508   9.016  0.1885  0.1908  0.2619
10268SOL    HW132245   4.602   1.424   8.973  0.9011 -1.0056  2.2473
10268SOL    HW232246   4.525   1.542   9.027 -0.0928 -0.1690 -0.7610
10269SOL     OW32247   3.283   6.556  12.187 -0.1631  0.3311  0.1627
10269SOL    HW132248   3.245   6.548  12.099  0.1509 -0.6612  0.0989
10269SOL    HW232249   3.342   6.480  12.194 -0.7433 -0.0154  1.5037
10270SOL     OW32250   3.443   6.932   6.616 -0.4127  0.5446 -0.0113
10270SOL    HW132251   3.409   6.864   6.673  1.6394 -1.5608 -1.1276
10270SOL    HW232252   3.525   6.959   6.656  0.6708 -0.4070 -1.4861
10271SOL     OW32253   3.279   0.522   2.448  0.3701  0.3205  0.0403
10271SOL    HW132254   3.195   0.538   2.490  0.7320 -1.4370  1.5598
10271SOL    HW232255   3.300   0.604   2.403 -0.8732  1.7182  1.8806
10272SOL     OW32256   7.396   4.824   7.932  0.0005 -0.0605 -0.1924
10272SOL    HW132257   7.488   4.816   7.909 -0.2484 -0.1415 -1.1951
10272SOL    HW232258   7.370   4.909   7.899 -0.9536 -1.1291 -2.4125
10273SOL     OW32259   7.037   4.577   7.565 -1.1581 -0.5324  0.1331
10273SOL    HW132260   7.036   4.581   7.660  0.0629 -1.0880  0.1845
10273SOL    HW232261   6.976   4.645   7.537  0.5474  1.5535  1.2595
10274SOL     OW32262   7.120   5.482   9.662  0.0622 -0.1920 -0.3975
10274SOL    HW132263   7.118   5.423   9.587 -2.2220  0.8145 -1.2276
10274SOL    HW232264   7.069   5.438   9.730 -1.1984  0.5575 -0.8352
10275SOL     OW32265   2.732   0.862   3.031 -0.2433 -0.1262  0.2261
10275SOL    HW132266   2.692   0.909   2.959 -0.0349 -0.4485 -0.1079
10275SOL    HW232267   2.817   0.833   2.997 -0.5386 -1.1006  0.2690
10276SOL     OW32268   7.403   7.248   5.029  0.0464 -0.4363 -0.0366
10276SOL    HW132269   7.441   7.200   5.103 -2.3161  1.9399  3.0232
10276SOL    HW232270   7.439   7.336   5.037 -2.5417  0.6755  0.2782
10277SOL     OW32271   1.775   5.699   8.420  0.7088  0.1385 -0.0017
10277SOL    HW132272   1.783   5.604   8.429 -1.9519 -0.0595  1.1323
10277SOL    HW232273   1.690   5.713   8.378  0.0931  2.0326  1.6785
10278SOL     OW32274   7.896   1.584   9.868 -0.0861 -0.8650  0.5764
10278SOL    HW132275   7.880   1.521   9.938  1.5726 -0.7043  1.1408
10278SOL    HW232276   7.909   1.667   9.913 -1.7332 -0.1788 -0.1262
10279SOL     OW32277   2.027   6.613   0.599 -0.5956 -0.2949  0.2164
10279SOL    HW132278   2.045   6.542   0.538 -0.8043 -0.0663 -0.1164
10279SOL    HW232279   2.048   6.577   0.686  1.9666  0.0895 -0.1517
10280SOL     OW32280   2.156   5.602   7.141 -0.6401  0.2970 -0.1607
10280SOL    HW132281   2.166   5.510   7.166  2.5218  0.6697  0.3774
10280SOL    HW232282   2.068   5.608   7.105 -0.8602 -2.9850 -0.4439
10281SOL     OW32283   2.738   6.834   9.346 -0.0324 -0.0633 -0.0294
10281SOL    HW132284   2.832   6.851   9.343  0.1065 -0.8028 -0.2617
10281SOL    HW232285   2.731   6.751   9.395 -0.6079  0.2777  0.4804
10282SOL     OW32286   5.748   7.960  10.031 -0.0528 -0.6031  0.2252
10282SOL    HW132287   5.748   8.056  10.027  0.4432 -0.6553 -1.5466
10282SOL    HW232288   5.814   7.939  10.097  0.9253  0.2672 -0.4416
10283SOL     OW32289   1.731   0.826  12.154 -0.0100 -0.4732  0.0014
10283SOL    HW132290   1.693   0.739  12.147 -1.4872  0.1486 -0.0425
10283SOL    HW232291   1.668   0.876  12.207  0.2763  0.8447 -0.8462
10284SOL     OW32292   2.105   6.432   8.921  0.4883  0.5891  0.4113
10284SOL    HW132293   2.072   6.414   8.833  0.4621  1.6601  0.1865
10284SOL    HW232294   2.097   6.348   8.967  0.8229 -0.0741 -0.6919
10285SOL     OW32295   0.524   2.478   0.750  0.0750 -0.1051  0.1802
10285SOL    HW132296   0.569   2.467   0.666  1.1999 -0.3191  0.7958
10285SOL    HW232297   0.591   2.513   0.809 -0.7344  0.1586  0.9697
10286SOL     OW32298   7.484   2.846   0.107 -0.1308  0.0333  0.4010
10286SOL    HW132299   7.534   2.811   0.181 -0.3976  1.2274  1.1763
10286SOL    HW232300   7.478   2.773   0.046 -0.4527 -1.1931  1.8338
10287SOL     OW32301   4.874   6.942   5.060  0.3308  0.0319 -0.4025
10287SOL    HW132302   4.846   6.976   5.145 -0.2058 -1.2169 -0.0582
10287SOL    HW232303   4.969   6.954   5.059  0.2075  1.1432 -0.1364
10288SOL     OW32304   6.783   3.098  10.068 -0.2282  0.1616 -0.1295
10288SOL    HW132305   6.851   3.134  10.010 -0.7194  0.0217 -0.7977
10288SOL    HW232306   6.708   3.083  10.010  0.0303 -2.1451  0.0774
10289SOL     OW32307   5.918   2.885   9.887 -0.4661  0.0489  0.0846
10289SOL    HW132308   5.965   2.926   9.814  1.8179  0.8296  1.8775
10289SOL    HW232309   5.850   2.832   9.845  2.1810 -1.4183 -2.7562
10290SOL     OW32310   4.983   5.951   2.781 -0.5923  0.3954  0.2679
10290SOL    HW132311   4.902   5.922   2.822 -0.3407 -0.6231  0.0722
10290SOL    HW232312   4.965   5.949   2.688 -0.3907  0.3346  0.2300
10291SOL     OW32313   4.574   6.638   6.441 -0.1138 -0.6360 -0.4337
10291SOL    HW132314   4.483   6.655   6.417 -0.1644 -0.3976 -0.0779
10291SOL    HW232315   4.618   6.723   6.434  0.0622 -0.7329 -0.5199
10292SOL     OW32316   3.274   6.350   2.906 -0.2650 -0.1210 -0.7550
10292SOL    HW132317   3.254   6.264   2.869  0.7863 -1.7030  2.0876
10292SOL    HW232318   3.213   6.359   2.979 -0.4693  1.6759 -1.0992
10293SOL     OW32319   2.599   5.919  11.887 -0.2735 -0.0389  0.4265
10293SOL    HW132320   2.588   5.864  11.809  1.7579 -1.0383  0.7663
10293SOL    HW232321   2.511   5.947  11.909 -1.0693 -0.8924 -1.4014
10294SOL     OW32322   0.428   4.714   6.424  0.3050  0.1282  0.6445
10294SOL    HW132323   0.412   4.659   6.347  1.2720  0.1902  0.3929
10294SOL    HW232324   0.408   4.803   6.395  1.1129  0.2115  0.3156
10295SOL     OW32325   4.544   6.184  10.370 -0.1203 -0.7407  0.0309
10295SOL    HW132326   4.581   6.268  10.398  0.1241 -0.4812 -1.0303
10295SOL    HW232327   4.613   6.120  10.386  0.4704 -0.4073 -1.0454
10296SOL     OW32328   3.381   2.484  12.471 -0.3747  0.6284  0.3003
10296SOL    HW132329   3.352   2.540  12.400 -1.8667 -0.0308  0.3443
10296SOL    HW232330   3.471   2.462  12.449 -0.1877  1.9629 -0.3837
10297SOL     OW32331   0.601   6.672  10.723  0.2111  0.3619  0.4233
10297SOL    HW132332   0.645   6.738  10.777  0.2656  0.7116 -0.0339
10297SOL    HW232333   0.568   6.607  10.785  3.0748 -0.9952  0.7060
10298SOL     OW32334   0.608   1.219   6.804 -0.0591 -0.5541 -0.2958
10298SOL    HW132335   0.679   1.251   6.859 -0.5489  0.5948 -0.2970
10298SOL    HW232336   0.607   1.278   6.729 -0.9824 -0.5789 -0.3192
10299SOL     OW32337   7.370   5.905   7.230  0.3569  0.6813  0.5130
10299SOL    HW132338   7.360   5.919   7.136 -0.2608 -1.5342  0.1943
10299SOL    HW232339   7.313   5.971   7.270 -1.3953  0.0388 -0.7805
10300SOL     OW32340   6.976   0.926  12.065  0.6692 -0.5096  0.3174
10300SOL    HW132341   7.019   0.903  11.982  0.6832 -2.1808  0.7558
10300SOL    HW232342   7.043   0.911  12.132 -0.4479 -3.0849  1.0025
10301SOL     OW32343   1.920   6.176   4.765  0.5259 -0.1697 -0.1368
10301SOL    HW132344   1.935   6.267   4.789 -2.1021  0.9868 -2.4680
10301SOL    HW232345   1.832   6.157   4.797  0.9363 -1.8686  0.0970
10302SOL     OW32346   6.281   5.513   4.671  0.1565  0.5178 -0.1631
10302SOL    HW132347   6.277   5.580   4.739 -1.2383 -0.1223  0.4315
10302SOL    HW232348   6.229   5.441   4.706  2.4220 -1.3103 -0.3563
10303SOL     OW32349   1.793   3.581  12.121 -0.0803  0.1583 -0.1353
10303SOL    HW132350   1.826   3.631  12.046  0.0558  0.2542 -0.0093
10303SOL    HW232351   1.870   3.539  12.158 -0.4271 -1.7678 -1.4385
10304SOL     OW32352   7.501   1.001   9.773 -0.2032 -0.2026 -0.0317
10304SOL    HW132353   7.544   0.917   9.759  1.6253  0.6291  0.2909
10304SOL    HW232354   7.556   1.045   9.838 -0.9869  1.3177 -0.3636
10305SOL     OW32355   7.143   2.130   7.876 -0.4336  0.5522  0.7480
10305SOL    HW132356   7.146   2.225   7.886 -0.8214  0.7095 -0.4515
10305SOL    HW232357   7.064   2.102   7.921 -0.7762  0.9059  0.3664
10306SOL     OW32358   0.355   1.124   3.915  0.1660 -0.4200  0.5640
10306SOL    HW132359   0.434   1.075   3.937 -0.3341 -1.8216 -0.6656
10306SOL    HW232360   0.298   1.061   3.871 -0.7909  1.0881 -0.4473
10307SOL     OW32361   1.119   7.064   4.360 -0.2143 -0.1376 -0.1101
10307SOL    HW132362   1.096   6.974   4.383 -1.2895 -0.1551 -1.1539
10307SOL    HW232363   1.077   7.118   4.428 -0.9598 -0.3409 -0.4022
10308SOL     OW32364   3.500   4.256   3.690  0.1773  0.4167 -0.1722
10308SOL    HW132365   3.587   4.285   3.719 -0.9473  3.3149  0.6797
10308SOL    HW232366   3.490   4.293   3.603  0.7975 -2.3661 -1.5546
10309SOL     OW32367   0.499   2.404   9.327  0.6896 -0.7618  0.7415
10309SOL    HW132368   0.563   2.397   9.257 -1.0503  1.1921 -1.1956
10309SOL    HW232369   0.426   2.348   9.300 -0.2224  0.4132  0.6442
10310SOL     OW32370   5.904   7.965   0.039 -0.2139 -0.1446 -0.0603
10310SOL    HW132371   5.938   7.928   0.120  1.1156 -0.1941 -0.6229
10310SOL    HW232372   5.856   7.892  -0.002  0.1168 -0.4623  0.1140
10311SOL     OW32373   6.073   7.733   0.742  0.6473  0.0849  0.1402
10311SOL    HW132374   5.999   7.733   0.802 -0.5594 -0.7021 -1.2834
10311SOL    HW232375   6.150   7.731   0.798 -0.3721  1.3660  1.6747
10312SOL     OW32376   3.518   6.684  11.081  0.0855  0.5182 -0.1759
10312SOL    HW132377   3.562   6.760  11.043 -0.7709  0.4465 -1.3885
10312SOL    HW232378   3.550   6.610  11.030 -2.0282  0.5680 -1.6954
10313SOL     OW32379   7.570   3.637   3.283 -0.0819  0.1000  0.2536
10313SOL    HW132380   7.532   3.556   3.250  1.9054 -0.5408 -0.6064
10313SOL    HW232381   7.519   3.657   3.362 -1.6667 -1.0606 -0.4216
10314SOL     OW32382   0.414   6.066   7.056 -0.2310 -0.8262 -0.4772
10314SOL    HW132383   0.430   6.103   6.969  1.1344  0.6451  0.3315
10314SOL    HW232384   0.359   6.131   7.100  0.4979 -0.7210  0.3065
10315SOL     OW32385   3.652   1.030   8.270 -0.3464  0.2523  0.4821
10315SOL    HW132386   3.664   1.109   8.217  0.5476 -0.2627 -0.1188
10315SOL    HW232387   3.566   1.041   8.311 -0.3009  1.4554  0.2826
10316SOL     OW32388   5.792   1.146   9.105 -1.1221 -0.6038 -0.3254
10316SOL    HW132389   5.749   1.210   9.161 -2.0828 -0.6434 -0.9827
10316SOL    HW232390   5.847   1.199   9.046  0.6403 -0.6186  1.2087
10317SOL     OW32391   2.023   3.009   5.194  0.2177 -0.1671 -0.3715
10317SOL    HW132392   1.957   2.992   5.126 -0.3233 -1.3853  0.4273
10317SOL    HW232393   1.994   3.090   5.235 -0.1341 -0.0763 -0.7863
10318SOL     OW32394   4.932   7.311   0.326  0.5203 -0.0645  0.2416
10318SOL    HW132395   4.960   7.310   0.417  0.7218 -1.9179  0.2027
10318SOL    HW232396   4.837   7.300   0.330  0.4705  0.3550  0.2346
10319SOL     OW32397   6.946   4.365   7.418  0.0855 -0.4942 -0.5438
10319SOL    HW132398   6.987   4.442   7.458  1.5042 -0.7004 -1.4996
10319SOL    HW232399   6.971   4.371   7.326 -0.0581 -1.9121 -0.6947
10320SOL     OW32400   3.291   5.779   5.028  0.0466 -0.1575 -0.2999
10320SOL    HW132401   3.213   5.732   5.058  0.3961 -0.3893  0.2625
10320SOL    HW232402   3.321   5.730   4.952 -2.5448  2.0794 -3.0177
10321SOL     OW32403   6.728   7.376   0.668 -0.1072  0.1587 -0.4409
10321SOL    HW132404   6.797   7.442   0.660  0.3988 -0.4035 -0.8136
10321SOL    HW232405   6.658   7.408   0.611 -0.9113  1.6287  1.2573
10322SOL     OW32406   7.437   0.120   7.572 -0.6210 -0.0340 -0.2448
10322SOL    HW132407   7.507   0.128   7.638  1.2839 -0.4117 -2.0980
10322SOL    HW232408   7.398   0.207   7.568  1.4459  0.9300 -0.8729
10323SOL     OW32409   3.456   1.408   4.637  0.1209 -0.6213  0.2695
10323SOL    HW132410   3.500   1.488   4.664  0.3542 -0.7703  0.3429
10323SOL    HW232411   3.509   1.338   4.675 -1.0507 -0.7881  1.6532
10324SOL     OW32412   3.867   5.208   8.189  0.0611 -0.1251  0.0166
10324SOL    HW132413   3.822   5.257   8.120  1.2995  0.2040 -0.5755
10324SOL    HW232414   3.857   5.262   8.267 -1.0747 -0.3486  0.0542
10325SOL     OW32415   5.763   1.661   3.213 -0.3037 -0.5988  0.8934
10325SOL    HW132416   5.839   1.718   3.225  1.3901 -2.7444  0.9737
10325SOL    HW232417   5.719   1.696   3.135  1.2238  0.2358  0.3682
10326SOL     OW32418   2.492   3.695  10.977 -0.0214  0.1351  0.0120
10326SOL    HW132419   2.474   3.672  11.069 -0.4993 -0.7784 -0.3010
10326SOL    HW232420   2.558   3.631  10.950 -1.4178 -0.9556 -0.9015
10327SOL     OW32421   1.557   3.527   2.242 -0.6161  0.7501  0.1384
10327SOL    HW132422   1.637   3.578   2.229 -0.9890  0.9898 -1.3845
10327SOL    HW232423   1.486   3.591   2.236 -0.9769  0.4178  0.7135
10328SOL     OW32424   2.126   7.926   1.453 -0.1696 -0.1949 -0.3277
10328SOL    HW132425   2.068   7.957   1.383 -0.1171  0.6255 -0.0181
10328SOL    HW232426   2.123   7.996   1.519  2.5353  0.7348 -1.0634
10329SOL     OW32427   1.521   4.709   1.548 -0.0335 -0.0834 -0.1255
10329SOL    HW132428   1.550   4.736   1.635  0.8760 -0.9526 -0.1379
10329SOL    HW232429   1.601   4.706   1.496 -0.2859 -1.4415 -0.4664
10330SOL     OW32430   6.053   2.757   1.728 -0.0202  0.4352  0.6175
10330SOL    HW132431   6.055   2.839   1.777 -2.1950 -0.1205  1.7452
10330SOL    HW232432   6.129   2.707   1.760 -0.1912  0.9502  1.8410
10331SOL     OW32433   2.824   4.014   3.831 -0.3256  0.0163 -0.2550
10331SOL    HW132434   2.760   4.040   3.765 -0.7301  2.1933  0.9033
10331SOL    HW232435   2.788   4.046   3.913  1.0436 -1.0021  0.7891
10332SOL     OW32436   5.181   5.566   2.834 -0.1410  0.7703  0.1224
10332SOL    HW132437   5.244   5.580   2.905  0.0320  4.3520 -0.5469
10332SOL    HW232438   5.149   5.477   2.848  0.8877  0.7999  3.8766
10333SOL     OW32439   0.567   3.217   9.603  0.1136 -0.1705 -0.0077
10333SOL    HW132440   0.583   3.302   9.561 -0.0152 -0.4373 -0.6041
10333SOL    HW232441   0.597   3.229   9.693  1.1739  0.1570 -0.3921
10334SOL     OW32442   6.853   3.717   7.910 -0.0350  0.6669 -0.0873
10334SOL    HW132443   6.807   3.633   7.921  1.1299 -0.0890 -0.6746
10334SOL    HW232444   6.852   3.757   7.997 -1.8306  0.7221 -0.0991
10335SOL     OW32445   0.899   6.905   7.889 -0.3120 -0.3664  0.1347
10335SOL    HW132446   0.896   6.911   7.984 -0.6928  1.6415  0.0438
10335SOL    HW232447   0.920   6.994   7.860  2.4153 -1.4266 -1.5974
10336SOL     OW32448   5.340   5.809  11.929 -0.2047 -0.2167  0.0656
10336SOL    HW132449   5.417   5.753  11.938 -0.1119  0.1260  1.7180
10336SOL    HW232450   5.267   5.748  11.918  0.0268 -0.6412  0.8016
10337SOL     OW32451   3.838   6.520   1.680 -0.2143 -0.5157 -0.3405
10337SOL    HW132452   3.838   6.431   1.645  1.4103 -0.7832  0.2337
10337SOL    HW232453   3.878   6.511   1.767  2.9662  1.1539 -1.4654
10338SOL     OW32454   6.268   2.382   5.491 -0.4132  0.0138 -0.3252
10338SOL    HW132455   6.334   2.319   5.520 -1.7619 -0.7947  1.1535
10338SOL    HW232456   6.203   2.329   5.444  0.3518  0.9247 -2.5856
10339SOL     OW32457   2.167   7.142   3.153  0.0907 -0.7340  1.0170
10339SOL    HW132458   2.233   7.159   3.086  0.5882 -0.5275  1.5527
10339SOL    HW232459   2.125   7.061   3.125  1.0784 -1.2755  1.0544
10340SOL     OW32460   0.821   7.134  11.519  0.4133  0.1897  0.0357
10340SOL    HW132461   0.837   7.227  11.536  1.4274 -0.1021  0.7470
10340SOL    HW232462   0.879   7.114  11.445  1.4389 -0.2478  0.9327
10341SOL     OW32463   4.189   2.623   5.894  0.2733  0.1037  0.0493
10341SOL    HW132464   4.095   2.606   5.884  0.5161 -0.7580 -0.8708
10341SOL    HW232465   4.199   2.648   5.986 -0.4663 -2.3805  0.8674
10342SOL     OW32466   0.938   2.235   6.446  0.1402 -0.0668 -0.5103
10342SOL    HW132467   1.015   2.181   6.464  0.7516  1.4981  2.0068
10342SOL    HW232468   0.874   2.174   6.408  2.5173 -1.4262 -2.6544
10343SOL     OW32469   0.340   4.951   6.627  0.0295 -0.5112 -0.2910
10343SOL    HW132470   0.424   4.930   6.668 -0.2750 -2.3767 -0.5339
10343SOL    HW232471   0.351   5.040   6.594  2.3175 -1.1092 -1.3147
10344SOL     OW32472   5.628   6.500   1.995  0.3737 -0.9127  0.5537
10344SOL    HW132473   5.652   6.425   2.051 -1.0388 -1.5703  0.3230
10344SOL    HW232474   5.705   6.515   1.941  0.3789 -2.8635 -0.0815
10345SOL     OW32475   6.931   3.492  10.075  0.1897 -0.1976 -0.0351
10345SOL    HW132476   6.984   3.477  10.153 -2.3105 -0.0405  1.8491
10345SOL    HW232477   6.931   3.408  10.030  0.9638 -0.5648  0.6247
10346SOL     OW32478   3.354   6.521   9.760 -0.3254  0.1999  0.1434
10346SOL    HW132479   3.393   6.450   9.811  1.8619  0.9333 -0.4331
10346SOL    HW232480   3.399   6.600   9.789  0.3303  0.7581 -2.2111
10347SOL     OW32481   6.705   4.757   6.320 -0.0617 -0.8817 -0.0205
10347SOL    HW132482   6.773   4.698   6.288 -0.7573 -1.3813 -0.6241
10347SOL    HW232483   6.747   4.843   6.324  0.5664 -1.1587 -0.5268
10348SOL     OW32484   4.118   7.662   2.363  0.2701  0.2512 -0.2787
10348SOL    HW132485   4.044   7.693   2.416  0.0212  0.4112 -0.7148
10348SOL    HW232486   4.144   7.579   2.404 -0.1170  0.2188 -0.0930
10349SOL     OW32487   1.194   4.306   2.023 -0.0326 -0.5637 -0.7994
10349SOL    HW132488   1.243   4.246   2.078  0.2371 -0.3131 -0.7659
10349SOL    HW232489   1.218   4.394   2.054  1.3486 -0.3574 -2.3328
10350SOL     OW32490   7.470   1.883   2.477  0.1907 -0.0295 -0.1983
10350SOL    HW132491   7.432   1.795   2.481  1.0962 -0.4372 -0.3378
10350SOL    HW232492   7.550   1.877   2.530  0.8587  0.3965 -1.1378
10351SOL     OW32493   7.015   0.171   1.580  0.1428  0.1141 -0.4186
10351SOL    HW132494   7.026   0.103   1.514 -1.0425  0.3851 -0.9298
10351SOL    HW232495   6.943   0.225   1.546 -1.0810 -0.2288  1.4847
10352SOL     OW32496   2.937   6.660   3.538  0.5385  0.1803 -0.2085
10352SOL    HW132497   2.899   6.578   3.508 -0.3249  0.4080  0.2191
10352SOL    HW232498   2.867   6.725   3.527  2.2387  1.6723 -3.8513
10353SOL     OW32499   1.984   0.791   5.342  0.3005 -0.1287 -0.3358
10353SOL    HW132500   1.967   0.703   5.308  2.9781 -0.5160 -0.9479
10353SOL    HW232501   1.901   0.819   5.379 -0.6646 -2.8948 -0.1547
10354SOL     OW32502   7.482   1.547   0.922 -0.2823 -0.0548  0.6080
10354SOL    HW132503   7.526   1.500   0.851  1.9120  1.6222  0.7566
10354SOL    HW232504   7.540   1.537   0.997 -1.2155  0.5067  1.4332
10355SOL     OW32505   1.074   0.074   1.749 -0.2923 -0.2888  0.2917
10355SOL    HW132506   1.120   0.022   1.815 -0.3909 -0.6016  0.1173
10355SOL    HW232507   1.141   0.101   1.687 -0.1084  0.4487  0.7959
10356SOL     OW32508   0.067   0.606   9.242 -0.3241  0.6028  0.4740
10356SOL    HW132509  -0.015   0.557   9.233  1.5424 -2.5830 -0.9162
10356SOL    HW232510   0.082   0.643   9.155 -0.5572  1.7011  0.8918
10357SOL     OW32511   7.828   1.071   3.437  0.3496 -0.1174 -0.2430
10357SOL    HW132512   7.810   1.152   3.389  1.5652  0.5613  0.4028
10357SOL    HW232513   7.838   1.004   3.369  2.0913  0.8324 -0.9670
10358SOL     OW32514   7.839   0.817   3.232 -0.1355  0.0732 -0.4728
10358SOL    HW132515   7.865   0.778   3.149 -0.7950  0.2276 -0.7605
10358SOL    HW232516   7.745   0.833   3.223 -0.3987 -0.7372  0.6441
10359SOL     OW32517   7.925   6.843  10.941 -0.2967  0.0099 -0.2364
10359SOL    HW132518   7.881   6.928  10.942 -0.0688  0.1897 -1.9249
10359SOL    HW232519   7.979   6.845  10.862  0.8599 -1.1500  0.4694
10360SOL     OW32520   4.346   0.955  10.262 -0.3168  0.0042 -0.4431
10360SOL    HW132521   4.309   0.918  10.342  0.0595 -2.4673 -1.3169
10360SOL    HW232522   4.432   0.912  10.253  0.1575  1.1045 -1.5644
10361SOL     OW32523   2.089   6.842  10.955 -0.1102 -0.0196 -0.4800
10361SOL    HW132524   2.001   6.876  10.971 -1.6815 -2.7734 -2.3752
10361SOL    HW232525   2.096   6.766  11.013  1.6809  0.9716  0.7011
10362SOL     OW32526   6.529   5.001   0.664 -0.5496  0.1086  0.5247
10362SOL    HW132527   6.563   5.058   0.595 -1.4897  0.8780  0.6756
10362SOL    HW232528   6.594   5.007   0.734  0.2606 -0.4446 -0.1457
10363SOL     OW32529   7.177   3.747   0.913  0.6573  0.2375 -0.4311
10363SOL    HW132530   7.217   3.815   0.967  0.0986  1.1384 -1.1172
10363SOL    HW232531   7.163   3.790   0.828 -0.4228 -0.4884 -0.6400
10364SOL     OW32532   1.709   4.251  10.394  0.1347 -0.0445 -0.3385
10364SOL    HW132533   1.795   4.291  10.403 -0.2245  0.7829 -0.4494
10364SOL    HW232534   1.724   4.173  10.340  0.9204 -0.3184  0.2627
10365SOL     OW32535   5.882   0.731   6.845  0.0408 -0.6774  0.4798
10365SOL    HW132536   5.800   0.725   6.894 -1.0464  1.3036 -0.9231
10365SOL    HW232537   5.946   0.765   6.908  0.5194 -4.3470  2.2289
10366SOL     OW32538   5.334   1.147  10.453  0.3648 -0.0686  0.2315
10366SOL    HW132539   5.322   1.155  10.548  0.2209 -0.1607  0.2222
10366SOL    HW232540   5.246   1.158  10.417 -0.1299 -2.8291  0.3087
10367SOL     OW32541   6.180   2.136   7.868 -0.1385  0.4429 -0.0197
10367SOL    HW132542   6.218   2.191   7.800  0.0567 -1.0815 -1.1928
10367SOL    HW232543   6.174   2.049   7.829 -0.2545 -0.4412  1.8345
10368SOL     OW32544   1.432   2.201   8.774  0.2008 -0.5722 -0.1863
10368SOL    HW132545   1.512   2.252   8.759  0.3608 -1.0496 -0.9924
10368SOL    HW232546   1.395   2.240   8.853  1.2955 -0.4239  0.2838
10369SOL     OW32547   7.951   0.842   1.883 -0.1419  0.2124 -0.0678
10369SOL    HW132548   8.002   0.827   1.963  0.6454  2.1160 -0.1558
10369SOL    HW232549   7.860   0.830   1.911  0.1978 -0.6822  0.7211
10370SOL     OW32550   1.213   6.369   6.239  0.2319 -0.4732 -0.4260
10370SOL    HW132551   1.221   6.429   6.314 -2.6975 -1.2298  0.6156
10370SOL    HW232552   1.297   6.377   6.194  1.1434  2.0051  1.4379
10371SOL     OW32553   1.686   2.549   8.562 -0.3424  0.8670 -0.7175
10371SOL    HW132554   1.593   2.555   8.539 -0.6357 -3.1321 -1.2832
10371SOL    HW232555   1.731   2.547   8.477  0.0499  0.7413 -0.5080
10372SOL     OW32556   0.309   1.937  10.447 -0.0568  0.3673 -0.1682
10372SOL    HW132557   0.317   1.979  10.362  1.7702 -2.5445 -1.6174
10372SOL    HW232558   0.396   1.945  10.486 -0.8013  1.4304  1.3665
10373SOL     OW32559   3.493   7.782   9.244  0.2427  0.6912  0.3346
10373SOL    HW132560   3.573   7.758   9.197  0.1384  2.1381 -0.6591
10373SOL    HW232561   3.512   7.762   9.336  0.6896 -1.5962 -0.1906
10374SOL     OW32562   2.942   7.780   8.348  0.0976 -0.5870  0.4752
10374SOL    HW132563   2.893   7.810   8.424  1.5941  1.9867  0.5391
10374SOL    HW232564   3.013   7.727   8.384  0.1943 -0.2372  0.8107
10375SOL     OW32565   5.126   6.170   9.358 -0.6396 -1.0318 -0.2555
10375SOL    HW132566   5.036   6.195   9.378 -0.4743 -0.6716  0.0582
10375SOL    HW232567   5.126   6.155   9.263 -0.8899 -0.4088 -0.3625
10376SOL     OW32568   7.701   7.591  11.409  0.1457 -0.7433 -0.3879
10376SOL    HW132569   7.745   7.512  11.440  0.4594 -0.7365 -0.8058
10376SOL    HW232570   7.688   7.576  11.315  0.7028 -0.0735 -0.5798
10377SOL     OW32571   3.712   7.613   0.197  0.1178 -0.0719  0.4562
10377SOL    HW132572   3.617   7.628   0.193  0.3903  1.7613  0.3067
10377SOL    HW232573   3.738   7.651   0.281  0.6122 -1.3609  0.9037
10378SOL     OW32574   1.775   7.776   2.190 -0.2516 -0.6338 -0.3586
10378SOL    HW132575   1.700   7.758   2.246  0.0242  0.1174  0.2604
10378SOL    HW232576   1.799   7.867   2.209  1.2169 -1.0551 -0.0661
10379SOL     OW32577   4.773   5.407   4.645 -0.1916 -0.0477  0.1645
10379SOL    HW132578   4.714   5.398   4.571  0.2867  0.3017 -0.2659
10379SOL    HW232579   4.797   5.317   4.668  1.3086 -0.1173 -1.4666
10380SOL     OW32580   5.754   7.199   1.394 -0.3064 -0.3376 -0.2884
10380SOL    HW132581   5.790   7.214   1.481 -0.6005  0.8243 -0.3513
10380SOL    HW232582   5.830   7.183   1.339 -0.1162 -1.0203  0.1701
10381SOL     OW32583   6.270   4.933   4.637 -0.3245  0.1998 -0.3601
10381SOL    HW132584   6.192   4.960   4.587 -0.6813 -0.2466 -0.0484
10381SOL    HW232585   6.261   4.978   4.721  0.3065  0.9968 -0.6990
10382SOL     OW32586   1.633   2.835  12.406  0.5227  0.7887 -0.1753
10382SOL    HW132587   1.670   2.900  12.466  0.3551  0.5094  0.2408
10382SOL    HW232588   1.689   2.839  12.328  2.7770 -1.0593  1.2094
10383SOL     OW32589   7.976   0.285   2.033  0.0527  0.2520  0.2017
10383SOL    HW132590   8.001   0.221   2.100 -0.3691 -1.7604 -1.4617
10383SOL    HW232591   8.058   0.328   2.008  0.5863 -0.6416  0.3872
10384SOL     OW32592   1.375   2.986  12.051  0.2339 -0.3957 -0.3410
10384SOL    HW132593   1.377   2.892  12.070  0.7908 -0.4571 -0.7002
10384SOL    HW232594   1.291   3.016  12.088 -0.4705 -1.2367 -1.2040
10385SOL     OW32595   5.011   5.833   4.709 -0.2293 -0.2985  0.3006
10385SOL    HW132596   5.019   5.892   4.784 -1.3447 -0.2748  0.4230
10385SOL    HW232597   5.043   5.749   4.742  0.9572  0.1126  0.2564
10386SOL     OW32598   2.236   4.339   8.636  0.4927  0.3673 -0.5336
10386SOL    HW132599   2.144   4.314   8.640  0.0786  1.9387  0.9325
10386SOL    HW232600   2.266   4.334   8.727  1.5050  1.1254 -0.8075
10387SOL     OW32601   3.159   2.256   5.951 -0.8817 -0.0486 -0.1776
10387SOL    HW132602   3.250   2.278   5.933 -0.5498  0.4689  1.8315
10387SOL    HW232603   3.136   2.192   5.884  0.6100  0.6055 -1.3788
10388SOL     OW32604   0.073   3.704   2.078  0.3571 -0.2636 -0.6101
10388SOL    HW132605   0.115   3.686   2.162  0.7634  0.5018 -0.6397
10388SOL    HW232606   0.085   3.624   2.027  0.2820 -0.6569 -0.0101
10389SOL     OW32607   3.191   6.120   6.900  0.0850 -0.3999 -0.1597
10389SOL    HW132608   3.239   6.094   6.821  0.5648 -0.5738  0.1817
10389SOL    HW232609   3.252   6.102   6.972 -0.2350  0.0352  0.2265
10390SOL     OW32610   5.943   6.477   6.162  0.6791 -0.1438 -0.0210
10390SOL    HW132611   5.939   6.513   6.074 -1.9393  1.0132  0.4799
10390SOL    HW232612   6.018   6.521   6.203  0.0027  1.7407 -0.7043
10391SOL     OW32613   0.604   6.318   0.899  0.1441  0.4584 -0.5477
10391SOL    HW132614   0.696   6.339   0.884  0.2894  0.0876 -0.1901
10391SOL    HW232615   0.605   6.251   0.967 -0.5105  2.3678  1.4536
10392SOL     OW32616   5.315   3.967   3.340 -0.0222  0.0001  0.3070
10392SOL    HW132617   5.365   3.888   3.360 -0.9090 -0.6427  0.0469
10392SOL    HW232618   5.229   3.935   3.315 -0.3797  1.0546  0.1414
10393SOL     OW32619   4.484   0.581  12.314 -0.1036 -0.0963 -0.2638
10393SOL    HW132620   4.413   0.557  12.255 -0.8190 -0.5921  0.7728
10393SOL    HW232621   4.456   0.663  12.354  0.3413  0.1983 -0.5474
10394SOL     OW32622   2.594   0.057   0.376  0.7165  0.0249 -0.0350
10394SOL    HW132623   2.617   0.124   0.311 -0.3153 -1.1872 -1.7431
10394SOL    HW232624   2.634  -0.024   0.343  1.1218 -0.4290  1.4693
10395SOL     OW32625   2.134   4.668  11.159 -0.6769 -0.1403 -0.6489
10395SOL    HW132626   2.082   4.718  11.221 -2.2327 -3.0057  0.5536
10395SOL    HW232627   2.210   4.723  11.141 -0.9884  1.5522  2.4945
10396SOL     OW32628   3.654   2.134   3.632 -0.3740 -0.4144  0.0374
10396SOL    HW132629   3.674   2.119   3.724 -0.7674 -0.1619  0.1626
10396SOL    HW232630   3.607   2.055   3.605 -0.4975 -0.3702  0.1230
10397SOL     OW32631   6.603   2.682   5.087  0.0119 -0.3958 -0.7208
10397SOL    HW132632   6.599   2.601   5.035 -0.4496 -0.4232 -0.6481
10397SOL    HW232633   6.528   2.733   5.057 -1.6297 -1.3510  1.4576
10398SOL     OW32634   5.828   6.757   2.443  0.3812 -0.5228 -0.1150
10398SOL    HW132635   5.921   6.777   2.439  0.1083  0.6869 -0.9202
10398SOL    HW232636   5.804   6.738   2.353 -1.0038  3.5405 -0.8103
10399SOL     OW32637   6.963   6.661   6.037  0.2029 -0.4062  0.6399
10399SOL    HW132638   6.994   6.622   5.955 -0.1682  0.5027  0.0573
10399SOL    HW232639   6.868   6.647   6.035 -0.0705  1.4053 -0.0622
10400SOL     OW32640   6.814   5.337   0.748  0.8325 -1.2674 -0.4281
10400SOL    HW132641   6.848   5.395   0.680  1.2123 -1.3783 -0.3376
10400SOL    HW232642   6.812   5.391   0.827  0.1440 -1.0618 -0.5755
10401SOL     OW32643   7.488   2.132  11.787  0.1382 -0.1743  0.2984
10401SOL    HW132644   7.503   2.046  11.749 -0.7651 -0.9551  1.6035
10401SOL    HW232645   7.517   2.194  11.720  0.2425 -1.4814 -0.9072
10402SOL     OW32646   6.195   0.394   6.234  0.3325  0.2351 -0.2897
10402SOL    HW132647   6.186   0.366   6.142 -1.6219  0.7366 -0.2982
10402SOL    HW232648   6.193   0.313   6.284 -1.3998  0.0895 -0.5493
10403SOL     OW32649   4.097   7.279  10.144  0.1498 -0.1341  0.1536
10403SOL    HW132650   4.141   7.364  10.145 -0.1262  0.0235 -0.3467
10403SOL    HW232651   4.014   7.296  10.098 -0.1404 -0.5622  0.5142
10404SOL     OW32652   6.274   0.444   7.495 -0.0309  0.6797 -0.1895
10404SOL    HW132653   6.257   0.354   7.468  0.4634  0.6525 -0.4374
10404SOL    HW232654   6.297   0.438   7.588 -0.1354  0.5687 -0.1710
10405SOL     OW32655   1.174   5.012  10.581  0.0840 -0.4055 -0.1626
10405SOL    HW132656   1.135   5.072  10.644 -0.1072 -0.9030  0.1982
10405SOL    HW232657   1.103   4.951  10.558  0.5246 -1.0467  0.1638
10406SOL     OW32658   1.604   4.760   5.036 -0.1681  0.2754  0.2914
10406SOL    HW132659   1.664   4.798   4.972 -1.1156 -0.4605 -1.0863
10406SOL    HW232660   1.659   4.705   5.092  0.4272 -0.5365 -1.0535
10407SOL     OW32661   2.935   0.557   3.304  0.0629  0.6048  0.0464
10407SOL    HW132662   2.885   0.586   3.381  1.6617  0.4287  1.1981
10407SOL    HW232663   3.016   0.523   3.340  0.1416 -1.1118 -1.6257
10408SOL     OW32664   5.069   1.345   9.393 -0.1927  0.2710  0.5145
10408SOL    HW132665   5.152   1.309   9.424 -1.2276 -2.7144  0.2024
10408SOL    HW232666   5.027   1.382   9.471  0.7088  0.2616  1.0093
10409SOL     OW32667   6.399   4.009   9.255 -0.1255  0.0178  0.3437
10409SOL    HW132668   6.308   4.025   9.232 -0.0508 -1.3005 -1.0221
10409SOL    HW232669   6.395   3.964   9.340 -0.7075  0.2906  0.4664
10410SOL     OW32670   2.069   5.209   8.695 -0.5710 -0.2446  0.2686
10410SOL    HW132671   2.109   5.124   8.677 -1.7799 -0.6246 -0.8102
10410SOL    HW232672   2.108   5.269   8.630  1.1656  0.3597  1.7771
10411SOL     OW32673   5.792   4.303   7.923 -0.6275  0.0953 -0.1192
10411SOL    HW132674   5.714   4.248   7.918 -0.0850 -0.5757 -2.6140
10411SOL    HW232675   5.864   4.241   7.938 -0.4722  0.6584  1.6894
10412SOL     OW32676   5.652   0.359   3.607  0.4294 -0.2411  0.0226
10412SOL    HW132677   5.723   0.419   3.586 -1.1284  0.9728 -2.2268
10412SOL    HW232678   5.687   0.303   3.676  2.9012  1.4570  0.2636
10413SOL     OW32679   0.750   7.108   5.487  0.1474 -0.4406  0.0890
10413SOL    HW132680   0.778   7.080   5.400 -2.4661  0.2512 -1.0746
10413SOL    HW232681   0.707   7.031   5.524 -0.6296 -0.1293 -0.1413
10414SOL     OW32682   2.011   7.785   1.885  0.0827 -1.2148 -0.2031
10414SOL    HW132683   2.057   7.779   1.968  1.5468  1.0901 -0.7437
10414SOL    HW232684   1.924   7.819   1.908  0.8177  0.3914  0.3598
10415SOL     OW32685   4.334   3.253   9.251  0.1733  0.5205 -0.0796
10415SOL    HW132686   4.242   3.232   9.262 -0.5685  2.7220 -1.4210
10415SOL    HW232687   4.381   3.183   9.297 -2.1618 -0.1933  1.3649
10416SOL     OW32688   1.582   1.100   1.957  0.4174 -0.3443 -0.0164
10416SOL    HW132689   1.528   1.021   1.955 -1.0925  0.6497 -0.3767
10416SOL    HW232690   1.582   1.126   2.050  1.2549 -0.9608  0.1708
10417SOL     OW32691   2.716   4.805   5.104  0.4623 -0.4322 -0.2994
10417SOL    HW132692   2.629   4.789   5.067  0.1760 -0.6678  0.4545
10417SOL    HW232693   2.768   4.730   5.076 -0.4391 -1.9852  1.8595
10418SOL     OW32694   3.387   4.029   5.140 -0.4298 -0.1612  0.3935
10418SOL    HW132695   3.440   4.039   5.062 -1.6938  0.4779 -0.4212
10418SOL    HW232696   3.380   3.934   5.152  0.9895 -0.2491  0.6088
10419SOL     OW32697   3.541   4.236   4.908 -0.0759 -0.1116 -0.4467
10419SOL    HW132698   3.585   4.307   4.954  0.6040 -1.3632  0.9214
10419SOL    HW232699   3.612   4.179   4.879 -0.6652 -0.9364 -0.3087
10420SOL     OW32700   5.081   2.685   6.359  0.0123 -0.1583  0.0985
10420SOL    HW132701   5.061   2.674   6.452 -0.2701  0.9650  0.1824
10420SOL    HW232702   5.082   2.780   6.346  2.7015 -0.1927 -0.4725
10421SOL     OW32703   1.988   6.478  10.055  0.1237  0.2357  0.5871
10421SOL    HW132704   2.038   6.477   9.974  0.3168  2.5467  0.6151
10421SOL    HW232705   2.054   6.472  10.124  0.4722  3.1015  0.6205
10422SOL     OW32706   4.408   3.378   3.254  0.4064 -0.4872 -0.3007
10422SOL    HW132707   4.364   3.407   3.334 -0.9642 -3.1333  0.0333
10422SOL    HW232708   4.487   3.333   3.286  0.7081 -0.1330 -0.5485
10423SOL     OW32709   4.235   1.448   2.675 -0.4326  0.4201  0.7030
10423SOL    HW132710   4.255   1.373   2.731 -2.0239  1.0599  2.2154
10423SOL    HW232711   4.273   1.426   2.590  0.3181 -1.4766  1.4947
10424SOL     OW32712   4.228   7.658   0.384  0.2033 -0.1444 -0.0718
10424SOL    HW132713   4.152   7.600   0.391 -0.5130  0.7091 -0.5700
10424SOL    HW232714   4.218   7.701   0.299  0.5453  0.9322  0.4122
10425SOL     OW32715   4.180   6.533   7.932  0.6029  0.0018 -0.0218
10425SOL    HW132716   4.219   6.456   7.891  0.9555 -0.4359  1.0835
10425SOL    HW232717   4.099   6.501   7.973 -0.7191  0.7989 -1.8666
10426SOL     OW32718   2.697   4.615  12.193 -0.1352 -0.0481 -0.0127
10426SOL    HW132719   2.760   4.628  12.263 -0.2440 -2.5455  0.6368
10426SOL    HW232720   2.743   4.561  12.128 -0.7928  0.2304 -0.7246
10427SOL     OW32721   0.070   5.494   0.367 -0.3954 -0.4296 -0.3263
10427SOL    HW132722   0.099   5.489   0.276 -2.4704  3.9819 -1.5397
10427SOL    HW232723  -0.013   5.447   0.368 -0.6613  0.0072 -0.9300
10428SOL     OW32724   0.404   3.198   9.311 -0.2239 -0.5602 -0.2429
10428SOL    HW132725   0.360   3.222   9.393  2.1242  0.6548  0.7472
10428SOL    HW232726   0.415   3.281   9.265  2.5109 -0.4578  0.3904
10429SOL     OW32727   3.745   6.288   7.020  0.3319  0.0214  0.4692
10429SOL    HW132728   3.831   6.263   6.987 -0.8249 -1.4409 -1.6845
10429SOL    HW232729   3.738   6.381   7.002  1.2640  0.0504  0.2251
10430SOL     OW32730   4.055   3.225   4.402  0.0915 -0.1613 -0.0936
10430SOL    HW132731   4.055   3.288   4.330 -2.0283  0.4983  0.4084
10430SOL    HW232732   4.119   3.159   4.375 -0.6952 -0.0158 -2.6375
10431SOL     OW32733   2.429   1.587  11.493  0.0159 -0.0845  0.0703
10431SOL    HW132734   2.474   1.603  11.576 -0.3753  0.9355  0.0994
10431SOL    HW232735   2.429   1.492  11.483  1.7877 -0.1386  0.2765
10432SOL     OW32736   2.348   0.757   5.896  0.0739  0.3615  0.0951
10432SOL    HW132737   2.286   0.730   5.965  0.7938  0.5621  0.8338
10432SOL    HW232738   2.368   0.676   5.850  0.6946 -0.0419  1.0451
10433SOL     OW32739   6.393   0.837   3.672  0.2327 -0.1694 -0.8475
10433SOL    HW132740   6.330   0.771   3.641 -1.0099  1.7074 -2.5708
10433SOL    HW232741   6.462   0.836   3.606  0.1381  0.3313 -0.9565
10434SOL     OW32742   5.017   0.797   9.667  0.2264  0.5979 -0.3436
10434SOL    HW132743   4.997   0.862   9.735 -0.6757 -0.7105  0.6727
10434SOL    HW232744   5.111   0.779   9.677  0.2882  1.0712 -0.0542
10435SOL     OW32745   2.095   0.076   6.103  0.6050 -0.0711  0.0039
10435SOL    HW132746   2.105   0.087   6.008 -2.6758  1.0503 -0.3310
10435SOL    HW232747   2.005   0.102   6.121  1.2735  0.2858  3.5554
10436SOL     OW32748   0.235   3.346   2.931  0.1654 -0.3170  0.1227
10436SOL    HW132749   0.191   3.408   2.989  1.4876 -0.0832  0.8956
10436SOL    HW232750   0.194   3.262   2.950  1.0373 -0.3724  1.9126
10437SOL     OW32751   7.105   2.574   9.656 -0.0569 -0.2111  0.2176
10437SOL    HW132752   7.020   2.591   9.696  0.3092 -0.9544  1.3515
10437SOL    HW232753   7.121   2.651   9.600 -0.3057  1.1811  1.9713
10438SOL     OW32754   5.360   4.076   0.261  0.3106 -0.5591 -0.2818
10438SOL    HW132755   5.271   4.048   0.282  0.2950  0.0353  0.4844
10438SOL    HW232756   5.348   4.145   0.195  0.1248  0.2479  0.5693
10439SOL     OW32757   5.206   7.689  11.008  0.0273 -0.8337 -0.2397
10439SOL    HW132758   5.261   7.767  11.015 -0.8492 -0.1584 -0.6768
10439SOL    HW232759   5.173   7.691  10.918 -0.8618 -1.1099  0.0699
10440SOL     OW32760   4.560   0.066   9.460 -0.1758  0.2284 -0.3172
10440SOL    HW132761   4.550   0.156   9.427  0.2111 -0.3142 -2.0207
10440SOL    HW232762   4.494   0.059   9.529 -0.3684  1.7532 -0.3039
10441SOL     OW32763   6.309   1.146   8.716  0.2701  0.5598  0.0459
10441SOL    HW132764   6.297   1.236   8.747 -0.2542  0.2153  0.8903
10441SOL    HW232765   6.325   1.154   8.622 -0.4520  1.5001 -0.0085
10442SOL     OW32766   3.313   6.159   5.821  0.1777  0.0507  0.0445
10442SOL    HW132767   3.395   6.207   5.832  0.3557  0.5914 -2.7994
10442SOL    HW232768   3.246   6.227   5.814 -0.3211 -0.3349  0.9437
10443SOL     OW32769   2.602   0.984   2.728  0.0248 -0.5325  0.1916
10443SOL    HW132770   2.548   1.053   2.690 -1.0092 -2.1662 -1.5214
10443SOL    HW232771   2.691   1.004   2.699 -0.5821 -1.1495 -2.4068
10444SOL     OW32772   0.157   5.580   8.610 -0.2398  0.3028 -0.1706
10444SOL    HW132773   0.146   5.595   8.516 -1.8754  2.3125  0.2659
10444SOL    HW232774   0.124   5.491   8.625 -0.8803  0.3348 -1.3393
10445SOL     OW32775   5.176   5.451   5.240  0.1585  0.0778  0.2664
10445SOL    HW132776   5.188   5.394   5.315  2.4721  0.6547  0.3844
10445SOL    HW232777   5.121   5.523   5.272  1.8260  0.7676  1.6887
10446SOL     OW32778   0.174   2.178   6.954 -0.1609  0.0664  0.1342
10446SOL    HW132779   0.103   2.122   6.923  1.4794 -1.9987 -0.0721
10446SOL    HW232780   0.206   2.223   6.876 -0.1429 -0.3016 -0.0704
10447SOL     OW32781   4.684   4.015   3.680 -0.5888  0.1055 -0.0872
10447SOL    HW132782   4.774   3.991   3.662  0.4370  0.8151  3.2665
10447SOL    HW232783   4.689   4.108   3.703 -1.6666 -0.3921  2.5091
10448SOL     OW32784   6.575   0.089  10.270 -0.4168 -0.2167  0.2385
10448SOL    HW132785   6.640   0.033  10.228 -1.3405  0.2665 -2.0221
10448SOL    HW232786   6.491   0.051  10.244 -1.0572  1.8305 -0.9127
10449SOL     OW32787   5.540   2.242   9.379 -0.1091 -0.1803 -0.6091
10449SOL    HW132788   5.458   2.195   9.386 -1.2009  1.8424  1.6996
10449SOL    HW232789   5.582   2.231   9.464  1.7036 -0.5628 -1.4938
10450SOL     OW32790   6.094   6.752   0.550 -0.2265 -0.2387  0.6865
10450SOL    HW132791   6.168   6.736   0.492 -0.1359  1.2274  0.3645
10450SOL    HW232792   6.037   6.812   0.502  0.4305  2.0091  2.5045
10451SOL     OW32793   6.106   3.186   6.180 -0.3403 -0.1448 -0.0061
10451SOL    HW132794   6.145   3.101   6.158  2.0265  0.9277 -0.2321
10451SOL    HW232795   6.120   3.240   6.102 -1.0132  0.7365  0.4661
10452SOL     OW32796   6.785   2.418   8.659 -0.2217 -0.6739 -0.1783
10452SOL    HW132797   6.795   2.411   8.754 -1.9137  1.3401  0.2426
10452SOL    HW232798   6.740   2.338   8.634 -1.6906 -0.3003  1.1035
10453SOL     OW32799   6.696   1.474  10.391  0.1257 -0.0288  0.0461
10453SOL    HW132800   6.684   1.568  10.406 -0.9318  0.3312 -2.5397
10453SOL    HW232801   6.665   1.459  10.302 -1.6133 -3.2045  1.0254
10454SOL     OW32802   3.502   5.220  12.365  0.2139  0.0552 -0.2693
10454SOL    HW132803   3.421   5.180  12.335 -0.1195 -0.4816  1.2514
10454SOL    HW232804   3.570   5.159  12.339 -0.2093 -1.1346  1.2930
10455SOL     OW32805   1.415   2.886   8.587 -0.1324 -0.0507  1.0269
10455SOL    HW132806   1.402   2.950   8.517  2.1380  0.5800  1.0886
10455SOL    HW232807   1.468   2.817   8.547 -0.8259 -0.8854  1.5166
10456SOL     OW32808   1.076   0.992  10.903  0.1745 -0.3485  0.2288
10456SOL    HW132809   1.135   1.058  10.939  0.7741 -0.2802 -0.8118
10456SOL    HW232810   1.118   0.909  10.926  0.2623 -0.3205  0.1727
10457SOL     OW32811   0.448   5.273  12.218 -0.4562 -0.4625  0.1173
10457SOL    HW132812   0.491   5.245  12.299 -0.1019 -0.6976 -0.1505
10457SOL    HW232813   0.519   5.284  12.155 -0.7630 -0.6476 -0.2700
10458SOL     OW32814   5.284   2.821   9.179  0.4266  0.4050 -0.0814
10458SOL    HW132815   5.308   2.895   9.124 -1.1431  1.1582  0.2182
10458SOL    HW232816   5.194   2.801   9.156  0.0607  0.0870  1.4938
10459SOL     OW32817   3.070   2.795   1.387  0.5348 -0.0032 -0.3185
10459SOL    HW132818   3.159   2.763   1.370  0.4280 -0.3510 -0.2186
10459SOL    HW232819   3.039   2.743   1.461  0.6325  0.8383  0.3311
10460SOL     OW32820   0.090   3.199   5.123 -0.1280 -0.3631 -0.0601
10460SOL    HW132821   0.033   3.274   5.135 -2.2275 -1.5256 -1.9270
10460SOL    HW232822   0.101   3.193   5.028  0.9956 -1.7073  0.1265
10461SOL     OW32823   5.032   2.350   3.540 -0.1367 -0.3661 -0.4473
10461SOL    HW132824   4.977   2.423   3.568 -1.0022 -1.7405  1.5931
10461SOL    HW232825   5.050   2.300   3.619  1.3965 -1.7727 -1.5906
10462SOL     OW32826   3.155   5.435   7.705  0.1789  0.2740  0.4133
10462SOL    HW132827   3.127   5.480   7.626 -0.0220 -2.4620 -1.1835
10462SOL    HW232828   3.097   5.359   7.712  2.4425 -1.5003  1.1595
10463SOL     OW32829   1.895   5.845   4.287  0.0092  0.4417  0.0482
10463SOL    HW132830   1.952   5.859   4.362 -0.0110  0.1138  0.1242
10463SOL    HW232831   1.944   5.881   4.213  0.5308 -0.2829  0.0329
10464SOL     OW32832   5.916   4.205  11.515  0.7062  0.3425 -0.4146
10464SOL    HW132833   6.006   4.225  11.539  0.9514 -0.3470 -0.7423
10464SOL    HW232834   5.915   4.205  11.419  0.3990  0.1874 -0.4159
10465SOL     OW32835   6.489   7.474   5.179 -0.2748  0.1648  0.0271
10465SOL    HW132836   6.564   7.469   5.120  0.3707 -1.1412  0.9136
10465SOL    HW232837   6.469   7.383   5.201 -1.1317  0.5681  1.0140
10466SOL     OW32838   6.502   4.643   9.195  0.0359 -0.1532  0.1728
10466SOL    HW132839   6.447   4.684   9.128  0.5245  0.7918  0.3241
10466SOL    HW232840   6.565   4.711   9.218  0.9866 -1.0680  0.3226
10467SOL     OW32841   2.651   7.058   3.512 -0.8418  0.4472  0.7433
10467SOL    HW132842   2.717   7.097   3.570 -0.8292  1.5797  0.0101
10467SOL    HW232843   2.580   7.122   3.510 -2.4655 -1.1986  2.3144
10468SOL     OW32844   3.071   5.794  10.514  0.3607  0.0180 -0.1238
10468SOL    HW132845   3.110   5.830  10.594  1.0623  0.5347 -0.6864
10468SOL    HW232846   2.994   5.848  10.499  0.1536 -0.1646  0.2786
10469SOL     OW32847   1.620   3.908   9.154 -0.2035 -0.2056  0.4409
10469SOL    HW132848   1.598   3.886   9.244 -1.9880 -0.9756 -0.1467
10469SOL    HW232849   1.604   4.002   9.147 -1.0812 -0.3310  0.6605
10470SOL     OW32850   2.772   1.896   1.626  0.4621 -0.3330 -0.5725
10470SOL    HW132851   2.794   1.837   1.698  1.4917  0.1601 -0.4655
10470SOL    HW232852   2.713   1.961   1.666  1.0104 -0.0738 -0.1724
10471SOL     OW32853   0.814   4.896  11.741  0.2384 -0.2400  0.2800
10471SOL    HW132854   0.889   4.918  11.796 -1.2220  2.1412  1.5120
10471SOL    HW232855   0.758   4.843  11.798  0.1524 -0.4395  0.0080
10472SOL     OW32856   7.438   4.178   9.354 -0.0300  0.0388 -0.7643
10472SOL    HW132857   7.369   4.155   9.291 -0.2812  0.6152 -0.7107
10472SOL    HW232858   7.470   4.263   9.323  1.2868 -0.6223 -1.3052
10473SOL     OW32859   0.686   5.132  10.935  0.3005 -0.2573  0.0646
10473SOL    HW132860   0.688   5.060  10.998  0.0704 -0.3332 -0.0123
10473SOL    HW232861   0.743   5.103  10.864  1.2480  0.1917  0.6170
10474SOL     OW32862   5.165   4.340   0.840  0.2756 -0.2851  0.2447
10474SOL    HW132863   5.093   4.307   0.788 -0.6783  0.4073  1.0770
10474SOL    HW232864   5.131   4.342   0.930  2.3437 -2.8628  1.2111
10475SOL     OW32865   3.185   3.156   4.343 -0.9083 -0.1458  0.3976
10475SOL    HW132866   3.209   3.083   4.286  0.5728  0.6503 -0.0312
10475SOL    HW232867   3.238   3.144   4.422 -0.5538  0.5341  0.2681
10476SOL     OW32868   6.129   6.354   4.818 -0.1563 -0.4510  0.4515
10476SOL    HW132869   6.215   6.319   4.842  0.1811 -0.8415 -1.2249
10476SOL    HW232870   6.089   6.285   4.765  0.1174  1.2276 -2.1029
10477SOL     OW32871   0.072   4.453  11.865 -0.0900 -0.8570 -0.2464
10477SOL    HW132872  -0.008   4.499  11.838  0.0276  0.0898  0.9877
10477SOL    HW232873   0.040   4.371  11.903 -0.3662 -1.2404 -1.2592
10478SOL     OW32874   4.329   1.030   8.535 -0.1534  0.2314 -0.0039
10478SOL    HW132875   4.279   0.951   8.556  0.8190 -0.5097 -0.4153
10478SOL    HW232876   4.296   1.056   8.448 -0.5270  0.3397  0.1645
10479SOL     OW32877   6.485   0.352   6.195  0.6955 -0.2701  0.0410
10479SOL    HW132878   6.395   0.322   6.188  0.6011  0.1271 -0.4903
10479SOL    HW232879   6.530   0.311   6.122  0.7668  0.1593 -0.1575
10480SOL     OW32880   1.656   1.503   4.577 -0.2330 -0.0836 -0.0502
10480SOL    HW132881   1.676   1.594   4.601 -2.6706  0.9707 -1.6749
10480SOL    HW232882   1.565   1.491   4.603 -0.0782 -1.9379 -0.2860
10481SOL     OW32883   7.422   7.077  11.669 -0.8089  0.1073 -0.1528
10481SOL    HW132884   7.377   7.137  11.729 -3.6697 -0.6253 -1.3904
10481SOL    HW232885   7.352   7.023  11.632  1.0271 -0.6982 -2.7740
10482SOL     OW32886   5.771   6.857   4.416  0.4632  0.1807  0.1841
10482SOL    HW132887   5.757   6.817   4.502 -0.8552  0.5438  0.1643
10482SOL    HW232888   5.702   6.924   4.410 -0.3594 -0.7684 -1.7116
10483SOL     OW32889   2.823   2.711   5.006  0.2329 -0.0028  0.2147
10483SOL    HW132890   2.784   2.625   5.024 -0.2557 -0.3498 -2.1091
10483SOL    HW232891   2.905   2.691   4.961  0.1230  0.7352 -0.3414
10484SOL     OW32892   0.279   1.246   9.842 -0.3258 -0.5308  0.3350
10484SOL    HW132893   0.289   1.156   9.874 -1.7747 -0.9542 -0.3044
10484SOL    HW232894   0.250   1.295   9.919  0.7525 -0.5286  0.7575
10485SOL     OW32895   6.964   4.721   8.896 -0.3963  0.3842  0.1454
10485SOL    HW132896   7.008   4.640   8.870 -1.6282  0.4395 -2.4391
10485SOL    HW232897   6.899   4.694   8.960 -0.2087 -0.5330 -0.0340
10486SOL     OW32898   6.057   1.667   1.404  0.6713 -0.3195 -0.0009
10486SOL    HW132899   6.126   1.718   1.361  0.3194 -0.4678 -0.7545
10486SOL    HW232900   6.070   1.684   1.498  1.0848  0.4823 -0.1897
10487SOL     OW32901   5.997   4.387   3.371 -0.4606  0.2416  0.0792
10487SOL    HW132902   5.976   4.308   3.322 -1.6793  1.3570 -1.3052
10487SOL    HW232903   6.040   4.356   3.451  1.8583 -1.6795 -1.7674
10488SOL     OW32904   1.615   0.941   7.005 -0.6523  0.0998  0.2552
10488SOL    HW132905   1.605   1.036   7.014 -0.8245  0.1146 -0.0567
10488SOL    HW232906   1.697   0.930   6.957 -1.3667  0.1627 -1.0455
10489SOL     OW32907   1.386   2.847   6.247 -0.6728  0.0307  0.2707
10489SOL    HW132908   1.464   2.863   6.299 -2.6078  0.3681  3.3320
10489SOL    HW232909   1.411   2.777   6.187  2.1199  0.5971  0.6562
10490SOL     OW32910   6.745   2.538   9.495  0.1830  0.0436  0.2950
10490SOL    HW132911   6.675   2.529   9.430  0.5563  1.0568 -0.2571
10490SOL    HW232912   6.726   2.469   9.560 -0.0306 -1.1946 -1.0259
10491SOL     OW32913   6.571   4.960   1.742 -0.0970  0.1830 -0.8909
10491SOL    HW132914   6.564   5.051   1.713  0.8422  0.9084  1.0286
10491SOL    HW232915   6.563   4.964   1.837  0.2060 -1.7229 -0.7425
10492SOL     OW32916   7.098   0.738   2.845 -0.5095  0.6012  0.4430
10492SOL    HW132917   7.041   0.813   2.827 -0.7609  0.2872 -0.0940
10492SOL    HW232918   7.038   0.664   2.855 -0.1677  0.0961 -1.0108
10493SOL     OW32919   0.281   0.277   5.587 -0.3164  0.0289  0.0459
10493SOL    HW132920   0.187   0.276   5.609 -0.4853 -0.7533 -0.6457
10493SOL    HW232921   0.284   0.246   5.496  0.6913 -1.0169  0.4082
10494SOL     OW32922   7.078   3.586   5.727 -0.0528  0.5579 -0.0139
10494SOL    HW132923   7.138   3.522   5.690 -1.4610 -0.9342  0.1484
10494SOL    HW232924   7.010   3.597   5.660  0.3188  2.1663 -0.1781
10495SOL     OW32925   3.008   7.859  11.921  0.7489  0.0259 -0.0151
10495SOL    HW132926   3.008   7.944  11.965  1.9479  0.3006 -0.5124
10495SOL    HW232927   3.100   7.842  11.901  0.4343 -0.9983 -0.6652
10496SOL     OW32928   2.013   5.776   1.406  0.1987  0.3154  0.0691
10496SOL    HW132929   2.100   5.774   1.445 -0.1236  0.6573  0.8344
10496SOL    HW232930   1.953   5.781   1.481 -0.5498 -1.4493 -0.3539
10497SOL     OW32931   5.033   2.132  11.270  0.3605  0.3551  0.2824
10497SOL    HW132932   5.080   2.172  11.343 -0.8915  0.0548  1.2835
10497SOL    HW232933   4.968   2.076  11.311  0.4404 -0.7859 -1.0911
10498SOL     OW32934   5.946   6.813   0.959  0.1287 -0.1776  0.4201
10498SOL    HW132935   5.948   6.880   0.891  1.2817 -1.7981 -1.2491
10498SOL    HW232936   5.966   6.732   0.913 -2.7651 -1.9936  2.0719
10499SOL     OW32937   6.559   0.827   1.446  0.2660  0.1897  0.2624
10499SOL    HW132938   6.525   0.779   1.521  0.2103 -0.3858 -0.1250
10499SOL    HW232939   6.579   0.914   1.480  1.4699 -0.4450  1.2704
10500SOL     OW32940   6.756   6.048   9.006  0.3762 -0.0798 -0.5631
10500SOL    HW132941   6.809   5.969   9.001  2.1901  1.0377  0.1873
10500SOL    HW232942   6.812   6.118   8.972 -1.6129  0.7459 -2.4203
10501SOL     OW32943   5.397   2.441   7.107  0.3739  0.0641  0.0648
10501SOL    HW132944   5.423   2.530   7.085 -1.1434  0.5682  0.1978
10501SOL    HW232945   5.377   2.444   7.200  0.4068 -0.4353  0.0890
10502SOL     OW32946   4.790   1.553  10.793  0.7175 -0.8592 -0.0389
10502SOL    HW132947   4.814   1.524  10.881  1.3739 -0.5065 -0.0993
10502SOL    HW232948   4.850   1.625  10.774 -0.4278  0.0910 -0.1645
10503SOL     OW32949   6.021   1.584   8.405  0.0606 -0.2359 -0.1801
10503SOL    HW132950   5.955   1.646   8.438  1.1703  1.2487 -0.6157
10503SOL    HW232951   6.097   1.639   8.387  0.1220 -1.1874 -3.5229
10504SOL     OW32952   2.418   5.957   9.222  0.2465  0.2530  0.2372
10504SOL    HW132953   2.436   6.044   9.186  1.3021 -0.0805 -0.0739
10504SOL    HW232954   2.329   5.964   9.258 -0.2788  1.0138 -1.1217
10505SOL     OW32955   4.203   7.096   4.649  0.3483  0.5489 -0.2432
10505SOL    HW132956   4.201   7.137   4.563  0.6987  0.6411 -0.2094
10505SOL    HW232957   4.279   7.134   4.692  0.6920 -0.1481 -0.2187
10506SOL     OW32958   5.228   3.823   3.001 -0.0914  0.0477 -0.3420
10506SOL    HW132959   5.268   3.799   2.917 -0.6975 -1.4548 -0.2338
10506SOL    HW232960   5.155   3.881   2.977 -1.6531 -2.0979 -1.1158
10507SOL     OW32961   4.144   2.493   2.372 -0.4090 -0.7914  0.1544
10507SOL    HW132962   4.113   2.551   2.441 -1.4098  0.0157 -0.9288
10507SOL    HW232963   4.077   2.426   2.365 -0.1352 -1.0714  0.1959
10508SOL     OW32964   7.568   4.476  11.864 -0.4241  0.0338  0.0706
10508SOL    HW132965   7.563   4.572  11.858  1.5012  0.3536  2.1537
10508SOL    HW232966   7.546   4.456  11.955 -0.0115 -1.4464 -0.1282
10509SOL     OW32967   7.296   1.453   6.377 -0.2893 -0.1454  0.0087
10509SOL    HW132968   7.201   1.463   6.369 -0.1647  0.8277 -0.4416
10509SOL    HW232969   7.310   1.428   6.468 -0.9130  0.7377  0.3643
10510SOL     OW32970   6.336   6.949   5.656  0.1983 -0.9782  0.1566
10510SOL    HW132971   6.368   6.995   5.734 -2.8206  1.4780  0.1440
10510SOL    HW232972   6.404   6.965   5.590  0.2793  1.8290  0.7629
10511SOL     OW32973   5.828   3.946   3.121 -0.3756  0.1505  0.1429
10511SOL    HW132974   5.734   3.948   3.107 -0.3627 -1.6542 -0.3389
10511SOL    HW232975   5.866   3.952   3.034 -0.0169  0.8662  0.3341
10512SOL     OW32976   7.689   4.800   3.681  0.7833  0.3320 -0.7771
10512SOL    HW132977   7.650   4.733   3.625  0.4760 -0.4403  0.3355
10512SOL    HW232978   7.678   4.766   3.770  1.1801  1.5762 -0.2394
10513SOL     OW32979   1.088   7.613  10.700 -0.2537 -0.0017 -0.4919
10513SOL    HW132980   1.149   7.540  10.693 -0.7411 -0.3774 -0.9148
10513SOL    HW232981   1.118   7.675  10.633  0.3491  0.3364  0.0799
10514SOL     OW32982   5.219   6.964   8.490 -0.2436  0.1598  0.1530
10514SOL    HW132983   5.286   6.912   8.535  0.0477  0.6759  0.3251
10514SOL    HW232984   5.256   6.978   8.403 -0.3560  0.0170  0.0816
10515SOL     OW32985   2.526   5.125   5.584 -0.1138 -0.3196 -0.5576
10515SOL    HW132986   2.541   5.066   5.510 -0.2193  0.1946 -0.9917
10515SOL    HW232987   2.571   5.206   5.559  0.6986 -0.4557  0.3669
10516SOL     OW32988   0.080   4.886   1.009  0.2907 -0.0885  0.5171
10516SOL    HW132989   0.104   4.907   0.919 -0.8155 -0.7096  0.0609
10516SOL    HW232990  -0.014   4.900   1.013  0.3666  0.2172  1.6699
10517SOL     OW32991   1.026   5.134  10.773  0.5657 -0.9154 -0.4190
10517SOL    HW132992   1.075   5.213  10.793  1.0137 -0.8241 -1.7879
10517SOL    HW232993   1.030   5.082  10.854  0.9064  0.1132  0.2414
10518SOL     OW32994   3.754   7.123   1.261 -0.6091 -0.0656 -0.4575
10518SOL    HW132995   3.830   7.130   1.319  0.0362  1.0097 -1.3860
10518SOL    HW232996   3.689   7.075   1.312  0.7773 -1.2749  0.2674
10519SOL     OW32997   7.673   6.571   1.559 -0.2549 -0.1077  0.0204
10519SOL    HW132998   7.715   6.650   1.525  0.6273 -0.8806 -0.7657
10519SOL    HW232999   7.715   6.499   1.511 -1.3562 -1.0284  0.3774
10520SOL     OW33000   5.059   5.455  11.483 -0.3487  0.0794 -0.2813
10520SOL    HW133001   5.117   5.528  11.460  0.8520 -0.9663 -0.7149
10520SOL    HW233002   5.106   5.409  11.552 -0.2221 -1.3033 -1.2572
10521SOL     OW33003   0.805   0.159   3.783 -0.3598  0.9289 -0.6186
10521SOL    HW133004   0.877   0.157   3.720  0.0918  1.8051 -0.1491
10521SOL    HW233005   0.848   0.167   3.868 -0.8877 -1.6627 -0.0186
10522SOL     OW33006   2.479   7.795  10.721  0.4774 -0.3135  0.2245
10522SOL    HW133007   2.398   7.756  10.754  1.7294 -2.3621  1.0467
10522SOL    HW233008   2.483   7.881  10.761 -1.4264 -0.0472 -0.0823
10523SOL     OW33009   4.052   5.570   7.393  0.1892 -0.4581 -0.3076
10523SOL    HW133010   4.073   5.577   7.486 -1.5725  1.7555  0.0252
10523SOL    HW233011   4.099   5.642   7.352 -1.0204  0.1427 -0.6830
10524SOL     OW33012   0.565   0.790   1.986  0.1530 -0.1734  0.2293
10524SOL    HW133013   0.475   0.779   1.957  0.3648  1.3087 -1.1130
10524SOL    HW233014   0.609   0.832   1.912  1.6340  0.3234  1.3540
10525SOL     OW33015   0.396   3.706   1.854  0.2867 -0.0273  0.1119
10525SOL    HW133016   0.329   3.666   1.798  0.8950 -2.9693  1.3104
10525SOL    HW233017   0.459   3.744   1.793 -1.0334  0.3673 -1.0688
10526SOL     OW33018   2.449   6.264   4.800 -0.8467 -0.0801 -0.4631
10526SOL    HW133019   2.362   6.243   4.767 -0.3256 -1.7571 -0.8796
10526SOL    HW233020   2.509   6.216   4.742  0.2626 -0.4161  0.8943
10527SOL     OW33021   1.639   6.087   2.339 -0.3897 -0.5187 -0.4431
10527SOL    HW133022   1.607   6.023   2.402 -0.8934 -0.3085 -0.4744
10527SOL    HW233023   1.560   6.134   2.311 -0.0381  0.0740 -0.4639
10528SOL     OW33024   2.673   4.971   2.385  0.5648  0.5554 -0.1102
10528SOL    HW133025   2.685   4.927   2.301  0.5581  0.0317  0.1634
10528SOL    HW233026   2.751   5.026   2.394  1.4532 -0.7460  0.3712
10529SOL     OW33027   6.645   5.319   7.321  0.0588  0.1239 -0.2020
10529SOL    HW133028   6.638   5.254   7.391  1.3619  0.4155  0.2186
10529SOL    HW233029   6.554   5.345   7.304 -0.3666 -0.7704  0.5984
10530SOL     OW33030   0.644   3.017   6.526 -0.4963 -0.6270  0.0562
10530SOL    HW133031   0.717   3.072   6.553 -0.2493 -1.5698  1.3822
10530SOL    HW233032   0.671   2.982   6.441  0.8915 -1.4685  0.8137
10531SOL     OW33033   5.042   2.207  11.558  0.1969  0.4978  0.2696
10531SOL    HW133034   5.093   2.267  11.613  1.9722 -0.4873 -0.2323
10531SOL    HW233035   5.015   2.137  11.617  1.8524 -0.4101 -0.0122
10532SOL     OW33036   0.676   2.141   1.843 -0.0565 -0.2237  0.0848
10532SOL    HW133037   0.706   2.109   1.758 -1.0794  2.1472 -1.2664
10532SOL    HW233038   0.587   2.106   1.851  0.5328 -1.6015  0.8791
10533SOL     OW33039   1.260   0.806   7.556 -0.1369 -0.1950 -0.1213
10533SOL    HW133040   1.176   0.774   7.589  0.3086  0.2075  1.4816
10533SOL    HW233041   1.297   0.731   7.508  0.0258 -1.4913  1.9049
10534SOL     OW33042   2.648   3.734   8.860 -0.6299  0.0498 -0.2814
10534SOL    HW133043   2.736   3.764   8.839  0.4599 -0.9451  2.5218
10534SOL    HW233044   2.649   3.641   8.839 -1.5964  0.3435 -1.7914
10535SOL     OW33045   4.756   2.760   3.784  0.1420  0.6367  0.3243
10535SOL    HW133046   4.765   2.821   3.711  0.7044  0.3225  0.1291
10535SOL    HW233047   4.776   2.812   3.861  0.3077  0.7792  0.1855
10536SOL     OW33048   7.484   3.148   9.467  0.5006 -0.0805  0.1808
10536SOL    HW133049   7.499   3.160   9.561 -1.2703 -1.2010  0.6611
10536SOL    HW233050   7.493   3.054   9.453  0.5625  0.0530 -0.7511
10537SOL     OW33051   7.765   6.333  10.470 -0.0032  0.0461 -0.6925
10537SOL    HW133052   7.759   6.255  10.415  0.0650  0.2159 -0.9415
10537SOL    HW233053   7.824   6.308  10.541 -3.9300 -1.9493  2.2490
10538SOL     OW33054   5.902   5.754   9.921 -0.2634  0.5259  0.0315
10538SOL    HW133055   5.834   5.721   9.980  1.4288 -1.3458  1.1017
10538SOL    HW233056   5.855   5.784   9.844 -2.4972  2.0720  1.8517
10539SOL     OW33057   0.663   6.912   7.294 -0.1311 -0.4558 -0.8474
10539SOL    HW133058   0.720   6.835   7.293  0.3820 -0.1352  0.7327
10539SOL    HW233059   0.656   6.935   7.387  0.3303  1.8406 -1.3328
10540SOL     OW33060   1.589   3.872   0.132  0.1301  0.1283 -0.2885
10540SOL    HW133061   1.495   3.862   0.152  0.1398  1.5032  0.5882
10540SOL    HW233062   1.624   3.783   0.137 -1.4759 -0.7457 -2.7017
10541SOL     OW33063   2.292   7.273   3.829 -0.5373 -0.2948  0.1039
10541SOL    HW133064   2.297   7.192   3.779 -0.4618 -0.4386  0.3419
10541SOL    HW233065   2.223   7.324   3.786 -1.2147 -0.8632  0.5086
10542SOL     OW33066   2.020   5.546   0.428  0.0937  0.0581 -0.0494
10542SOL    HW133067   1.938   5.584   0.397 -1.1998 -0.9819  1.8449
10542SOL    HW233068   2.050   5.606   0.497 -0.7174 -1.0295  1.3184
10543SOL     OW33069   0.032   2.623  12.453 -0.4826 -0.2778  0.5729
10543SOL    HW133070   0.018   2.528  12.449  0.2800 -0.3496 -2.1834
10543SOL    HW233071  -0.012   2.657  12.375  0.5861  1.4443  0.6732
10544SOL     OW33072   3.470   0.388   0.734 -0.2616 -0.4395 -0.2074
10544SOL    HW133073   3.401   0.451   0.713  0.1036 -0.4401 -1.4868
10544SOL    HW233074   3.525   0.385   0.656  1.1936 -0.4504  0.7750
10545SOL     OW33075   0.956   5.897   1.570 -0.6245  0.4484 -0.5006
10545SOL    HW133076   0.912   5.919   1.652  1.1295  0.4133  0.4923
10545SOL    HW233077   1.045   5.873   1.595 -0.4073 -0.8542 -2.2871
10546SOL     OW33078   2.392   3.471  10.369  0.5885  0.3645  0.1333
10546SOL    HW133079   2.370   3.423  10.449  1.5471 -0.9433 -0.3474
10546SOL    HW233080   2.336   3.434  10.302  0.6623  0.5868 -0.0542
10547SOL     OW33081   0.959   3.796   7.648  0.0893  0.1186 -0.2651
10547SOL    HW133082   0.946   3.731   7.579 -1.4814  0.0968  0.0137
10547SOL    HW233083   1.044   3.835   7.629  1.2214 -2.1813 -0.2966
10548SOL     OW33084   7.311   2.458   7.047 -0.0416  0.3205  0.2239
10548SOL    HW133085   7.324   2.532   7.107 -0.1965 -0.9009  1.8131
10548SOL    HW233086   7.391   2.408   7.053 -0.0567  0.1823 -0.6228
10549SOL     OW33087   0.285   7.041   7.817  0.4099 -0.3896 -0.2743
10549SOL    HW133088   0.268   7.065   7.908  0.1753  0.8946 -0.6376
10549SOL    HW233089   0.368   6.993   7.820 -0.1375 -1.3286  0.7410
10550SOL     OW33090   0.030   5.564   6.895 -0.1468 -0.5572  0.0398
10550SOL    HW133091  -0.020   5.643   6.911 -0.9725 -0.4163 -2.7405
10550SOL    HW233092   0.118   5.595   6.872  0.3339 -0.6550  1.5727
10551SOL     OW33093   4.718   2.383   3.270  0.0492  0.3682  0.7019
10551SOL    HW133094   4.668   2.445   3.322  0.0849  1.8774 -0.9869
10551SOL    HW233095   4.684   2.297   3.296 -2.7221  1.2818  0.3173
10552SOL     OW33096   0.056   4.876   8.807  0.0001 -0.5801  0.3652
10552SOL    HW133097   0.137   4.833   8.780 -0.0362 -1.1965  1.2101
10552SOL    HW233098  -0.009   4.849   8.742  0.6753  0.7377 -0.9176
10553SOL     OW33099   1.475   6.892   7.624  0.1262  0.0837  0.1352
10553SOL    HW133100   1.489   6.920   7.715 -1.6238 -1.4022  0.9403
10553SOL    HW233101   1.416   6.959   7.588 -0.3223 -0.0780  0.5598
10554SOL     OW33102   5.849   6.572   8.871 -0.4257 -0.3197  0.3657
10554SOL    HW133103   5.917   6.606   8.812 -0.1155 -1.0822  0.2755
10554SOL    HW233104   5.769   6.570   8.817 -0.0570 -1.3998 -0.1749
10555SOL     OW33105   6.073   6.868   5.679 -0.5171 -0.2145 -0.8725
10555SOL    HW133106   6.154   6.918   5.689 -1.1642  0.8256 -0.6878
10555SOL    HW233107   6.100   6.776   5.687  0.4920  0.1525  0.2069
10556SOL     OW33108   5.509   7.914   5.115  0.9331  0.3555  0.5094
10556SOL    HW133109   5.491   7.909   5.209  0.0669  0.7256  0.3774
10556SOL    HW233110   5.522   7.823   5.088  1.7841  0.2910  1.0835
10557SOL     OW33111   5.811   3.935   6.040 -0.3925 -0.4409  0.0242
10557SOL    HW133112   5.739   3.893   6.087 -1.0977  0.9553  0.2490
10557SOL    HW233113   5.768   3.984   5.970 -0.0412  2.6854  1.8100
10558SOL     OW33114   7.271   4.872   5.004  0.0552  0.2275  0.0529
10558SOL    HW133115   7.226   4.955   4.984 -0.3477 -0.0158 -0.0528
10558SOL    HW233116   7.214   4.804   4.968  0.9110 -0.0481 -0.8275
10559SOL     OW33117   7.784   0.695   0.598 -0.1260 -0.0915 -0.5247
10559SOL    HW133118   7.803   0.639   0.522 -1.1644  0.4387 -1.1970
10559SOL    HW233119   7.724   0.642   0.652  1.5927 -0.9802  0.6099
10560SOL     OW33120   4.428   2.314   0.286 -0.4247 -0.2300 -0.0145
10560SOL    HW133121   4.339   2.289   0.260 -1.9883  2.4374  2.2047
10560SOL    HW233122   4.465   2.234   0.324 -1.9312 -1.3696 -0.8535
10561SOL     OW33123   4.361   6.576  10.759  0.4593  0.1985 -0.1165
10561SOL    HW133124   4.289   6.624  10.719  0.1867  1.1982  1.4655
10561SOL    HW233125   4.321   6.496  10.793  0.4610 -0.0851 -0.7676
10562SOL     OW33126   7.927   0.920   4.924  0.6025 -0.0703 -0.0297
10562SOL    HW133127   7.948   0.831   4.956  1.2442 -0.1753 -0.7172
10562SOL    HW233128   7.981   0.930   4.846 -0.9411  0.1807 -1.1073
10563SOL     OW33129   0.261   5.416   5.659 -0.2385  0.2847  0.0718
10563SOL    HW133130   0.263   5.431   5.565 -0.5073  0.5778  0.1118
10563SOL    HW233131   0.331   5.353   5.675 -0.5243 -0.1563 -0.3919
10564SOL     OW33132   7.265   3.828   0.174 -0.4345 -0.2626 -0.0165
10564SOL    HW133133   7.345   3.880   0.187  0.5182 -1.8737  0.9668
10564SOL    HW233134   7.223   3.827   0.260 -0.2207 -1.4133  0.0947
10565SOL     OW33135   5.126   4.503   3.311  0.0796  0.0826  0.7883
10565SOL    HW133136   5.193   4.570   3.297 -0.6173  0.7469  0.5970
10565SOL    HW233137   5.175   4.420   3.313  0.7302  0.3925 -0.9953
10566SOL     OW33138   2.119   3.312   7.756  0.0473 -0.1347 -0.0357
10566SOL    HW133139   2.185   3.284   7.820  0.8681 -0.5380 -1.0193
10566SOL    HW233140   2.039   3.325   7.807 -0.1400 -3.2953  0.6625
10567SOL     OW33141   1.075   3.821   5.444  0.3734 -0.2407 -0.4052
10567SOL    HW133142   1.159   3.785   5.471  1.0153  0.6452 -1.1446
10567SOL    HW233143   1.098   3.897   5.391 -0.9015  2.7468  2.9271
10568SOL     OW33144   1.956   7.665   3.307  0.6615 -0.1956  0.6276
10568SOL    HW133145   1.952   7.578   3.347  1.9708 -0.2695  0.6364
10568SOL    HW233146   2.048   7.691   3.315  0.2488  1.3004  0.8611
10569SOL     OW33147   7.742   6.125  11.929 -0.2094  0.1213  0.3231
10569SOL    HW133148   7.801   6.142  11.856 -0.4740 -0.6634 -0.0829
10569SOL    HW233149   7.666   6.180  11.912  0.0873  0.5790  0.4605
10570SOL     OW33150   4.652   6.421  10.410 -0.1613 -0.0482  0.2639
10570SOL    HW133151   4.709   6.448  10.338 -1.1093  0.5636 -0.2636
10570SOL    HW233152   4.677   6.477  10.483  0.1241  0.0007  0.1299
10571SOL     OW33153   6.783   6.111   4.345  0.1025 -0.2064 -0.1406
10571SOL    HW133154   6.733   6.037   4.378  0.4066  0.5292  2.1146
10571SOL    HW233155   6.718   6.181   4.333  0.2633  0.1438  0.9089
10572SOL     OW33156   4.911   3.490  10.105  0.1797 -0.0034 -0.2299
10572SOL    HW133157   4.928   3.452  10.019 -0.3058  0.3404 -0.4885
10572SOL    HW233158   4.980   3.554  10.117 -0.6820  1.1337 -1.1089
10573SOL     OW33159   1.610   3.198   0.307  0.6655 -0.3021 -0.1004
10573SOL    HW133160   1.648   3.263   0.248  1.3464 -1.9908 -1.6168
10573SOL    HW233161   1.518   3.225   0.316  0.2433 -0.5125 -2.8238
10574SOL     OW33162   1.436   7.927   1.209  0.1956 -0.6213  0.3883
10574SOL    HW133163   1.399   7.998   1.262  1.9036  0.7080 -0.1065
10574SOL    HW233164   1.525   7.955   1.190 -0.1958 -1.2126 -2.9079
10575SOL     OW33165   7.590   6.626   2.647 -0.4923  0.0681 -0.0767
10575SOL    HW133166   7.590   6.704   2.703  1.5310 -0.4439  0.7231
10575SOL    HW233167   7.599   6.661   2.558  0.5945  0.7577  0.2888
10576SOL     OW33168   6.966   5.862   9.227  0.0343  0.3658 -0.3621
10576SOL    HW133169   7.018   5.784   9.243  0.5899  0.6095 -0.9336
10576SOL    HW233170   6.987   5.887   9.137 -1.1161  0.4374 -0.6237
10577SOL     OW33171   3.872   0.518   8.665  0.2784 -0.0035 -0.1508
10577SOL    HW133172   3.911   0.603   8.687  0.4596  0.1336 -0.9947
10577SOL    HW233173   3.809   0.502   8.736  1.1481  0.2349  0.7105
10578SOL     OW33174   2.780   4.483   5.118  0.2560  0.1098  0.0488
10578SOL    HW133175   2.810   4.393   5.108  0.5901 -0.0736  2.2621
10578SOL    HW233176   2.852   4.536   5.082  1.3459 -0.4497  1.3579
10579SOL     OW33177   7.276   7.622   0.150  0.0587  0.4610  0.2434
10579SOL    HW133178   7.304   7.688   0.086  0.7438 -0.7476 -0.7797
10579SOL    HW233179   7.182   7.613   0.137 -0.1396  1.6396  0.8063
10580SOL     OW33180   6.546   2.446  10.563  0.2285 -0.2274  0.0518
10580SOL    HW133181   6.471   2.404  10.606 -0.9099  0.7256 -0.9147
10580SOL    HW233182   6.507   2.495  10.490  1.6689  1.1722  0.1637
10581SOL     OW33183   6.971   6.438   3.028  0.0743  0.1191 -0.2099
10581SOL    HW133184   6.884   6.408   3.001 -0.1894  0.7403 -0.0481
10581SOL    HW233185   6.978   6.411   3.120  0.3230 -0.5202 -0.4060
10582SOL     OW33186   1.415   7.492   0.161 -0.3736  0.4654 -0.5212
10582SOL    HW133187   1.451   7.427   0.101 -0.1979  1.1431 -1.1637
10582SOL    HW233188   1.338   7.450   0.199 -0.0731 -0.2391 -0.6791
10583SOL     OW33189   4.972   2.294   4.846  0.1838 -0.1029 -0.4228
10583SOL    HW133190   4.888   2.323   4.882 -1.1194 -3.3380 -0.4824
10583SOL    HW233191   4.952   2.269   4.756  1.9296  1.7415 -1.3961
10584SOL     OW33192   5.850   5.428   0.064 -0.1299  0.2611 -0.1346
10584SOL    HW133193   5.885   5.484   0.133  0.4705 -0.2750  0.0012
10584SOL    HW233194   5.866   5.339   0.095  0.1730  0.0156 -0.9860
10585SOL     OW33195   0.381   2.897  12.182  0.6285 -0.1161  0.0010
10585SOL    HW133196   0.386   2.932  12.093 -1.2256 -1.3196 -0.6450
10585SOL    HW233197   0.374   2.974  12.238  2.7266  0.6951 -0.7698
10586SOL     OW33198   4.346   1.302   4.078  0.6559 -0.4855  0.4722
10586SOL    HW133199   4.371   1.210   4.081  1.8639 -0.1935  0.0298
10586SOL    HW233200   4.262   1.306   4.123  0.8911 -1.7036  1.0429
10587SOL     OW33201   1.511   2.658   5.295 -0.6456 -0.1912  0.0481
10587SOL    HW133202   1.431   2.692   5.336  0.8808  1.6819  1.6643
10587SOL    HW233203   1.557   2.613   5.366  0.5022  0.2037 -0.4294
10588SOL     OW33204   2.345   6.477   0.434 -0.1792 -0.0968 -0.0461
10588SOL    HW133205   2.375   6.451   0.521 -1.8795 -1.2507  0.2451
10588SOL    HW233206   2.396   6.423   0.373 -1.9737 -2.5134  0.4616
10589SOL     OW33207   4.849   2.479   1.103  0.0319 -0.3670 -0.0122
10589SOL    HW133208   4.938   2.460   1.076  0.6115  0.6691  1.0729
10589SOL    HW233209   4.800   2.398   1.085  0.7351 -0.3461 -2.3376
10590SOL     OW33210   6.868   7.765   2.017  0.0408 -0.2623  0.1140
10590SOL    HW133211   6.932   7.694   2.025 -0.1560 -0.4359  0.1500
10590SOL    HW233212   6.914   7.843   2.050  0.0127 -0.5144  0.7485
10591SOL     OW33213   6.684   5.978  11.102 -0.2274  0.8236  0.1107
10591SOL    HW133214   6.701   5.885  11.087 -1.6281  0.5917 -0.1885
10591SOL    HW233215   6.770   6.019  11.095  0.2211 -0.2546 -1.2984
10592SOL     OW33216   0.306   0.680  11.451 -0.0705  0.0495  0.4915
10592SOL    HW133217   0.343   0.594  11.434  0.7834  0.2406  1.2883
10592SOL    HW233218   0.358   0.715  11.524 -1.5698  0.5056  1.3926
10593SOL     OW33219   0.012   3.969   0.942  0.1944  0.0021  0.2491
10593SOL    HW133220   0.101   3.935   0.949 -0.0333 -0.5608  0.4332
10593SOL    HW233221   0.024   4.063   0.928  0.8123 -0.0473  0.4101
10594SOL     OW33222   3.906   2.210  10.419  0.0754  0.3779 -0.2163
10594SOL    HW133223   3.872   2.121  10.415  0.5356  0.2235 -0.7260
10594SOL    HW233224   3.948   2.215  10.505  0.4448 -0.0478 -0.3658
10595SOL     OW33225   0.848   5.581   9.177 -0.3609  0.5763 -0.6698
10595SOL    HW133226   0.822   5.548   9.263  1.3257 -0.0723 -0.3623
10595SOL    HW233227   0.835   5.676   9.183  0.3540  0.6316  0.5707
10596SOL     OW33228   3.804   2.314  10.186 -0.2606  0.1928  0.0437
10596SOL    HW133229   3.851   2.296  10.268  0.1828 -0.6922 -0.4003
10596SOL    HW233230   3.720   2.351  10.215  1.0823  2.9069  0.8458
10597SOL     OW33231   5.480   4.452   9.387  0.2246 -0.1849  0.1678
10597SOL    HW133232   5.473   4.547   9.381  3.3048  0.0453 -1.5438
10597SOL    HW233233   5.530   4.437   9.467 -0.0461 -0.3630  0.3043
10598SOL     OW33234   2.396   5.036   2.405  0.1164  0.1811 -0.2404
10598SOL    HW133235   2.380   4.954   2.452  1.1655 -0.2148 -0.5547
10598SOL    HW233236   2.490   5.037   2.391  0.0921  1.3873 -0.3583
10599SOL     OW33237   2.282   3.093   6.682 -0.1858  0.2432 -0.7174
10599SOL    HW133238   2.262   3.046   6.763 -1.3030  1.9301  0.0426
10599SOL    HW233239   2.270   3.028   6.613 -0.1348 -0.9903  0.3950
10600SOL     OW33240   0.950   1.253   3.978 -0.3278  0.1445 -0.0890
10600SOL    HW133241   0.947   1.160   3.999  0.2303  0.1795  0.1743
10600SOL    HW233242   0.862   1.285   4.000 -1.0208 -0.5969 -1.6054
10601SOL     OW33243   2.467   2.124   4.686 -0.1508  0.6079  0.5049
10601SOL    HW133244   2.443   2.032   4.674 -2.4527  0.8463  2.4329
10601SOL    HW233245   2.407   2.171   4.628  1.9438  0.9582 -1.5585
10602SOL     OW33246   0.776   4.717   5.085 -0.2252  0.1988  0.2071
10602SOL    HW133247   0.867   4.724   5.114 -0.6156  1.1396  1.2868
10602SOL    HW233248   0.725   4.714   5.166 -1.2991  1.9824 -0.3355
10603SOL     OW33249   4.715   1.316   7.465  0.0282  0.0644 -0.3156
10603SOL    HW133250   4.628   1.279   7.457 -0.5187  1.4259 -1.1204
10603SOL    HW233251   4.762   1.285   7.388  0.0142 -0.0795 -0.2657
10604SOL     OW33252   3.980   0.340  10.992 -0.0869 -0.0292 -0.7737
10604SOL    HW133253   4.029   0.300  11.063 -1.1177 -2.1878 -1.1859
10604SOL    HW233254   4.036   0.410  10.960  2.3034 -1.7757 -0.6410
10605SOL     OW33255   1.079   3.136   1.244  0.3135  0.2399 -0.4461
10605SOL    HW133256   1.018   3.180   1.184 -0.1795  1.7758  1.0924
10605SOL    HW233257   1.096   3.052   1.203 -2.0149  0.1828 -1.4772
10606SOL     OW33258   0.741   0.288   3.488 -0.0063  0.8402 -0.6101
10606SOL    HW133259   0.718   0.368   3.536  0.9722  0.9814 -0.3737
10606SOL    HW233260   0.664   0.232   3.499 -0.3891  1.4382 -0.1139
10607SOL     OW33261   5.259   1.140   9.159  0.1021  0.0008 -0.7914
10607SOL    HW133262   5.334   1.178   9.206 -0.1281  1.7168 -1.7585
10607SOL    HW233263   5.197   1.117   9.228  1.3355 -1.1075  0.0027
10608SOL     OW33264   5.356   3.265   0.722 -0.0308 -0.2637  0.0263
10608SOL    HW133265   5.427   3.253   0.659 -0.4720  0.8192 -0.7205
10608SOL    HW233266   5.323   3.353   0.703  1.0330  0.8999  2.9992
10609SOL     OW33267   2.674   1.889   1.123  0.1647  0.6268  0.2897
10609SOL    HW133268   2.659   1.860   1.214  1.1708 -1.2966 -0.0964
10609SOL    HW233269   2.721   1.971   1.131 -0.2270  0.7568  1.5026
10610SOL     OW33270   7.638   4.223   1.465  0.9379  0.3130  0.2880
10610SOL    HW133271   7.720   4.221   1.416  1.0381  1.3132  0.3998
10610SOL    HW233272   7.574   4.258   1.403  0.8493  0.6364  0.5601
10611SOL     OW33273   1.359   4.791   9.484 -0.7984  0.2122 -0.3695
10611SOL    HW133274   1.425   4.856   9.461 -0.3027 -0.4287 -0.8019
10611SOL    HW233275   1.305   4.784   9.405 -0.7322 -0.0354 -0.3935
10612SOL     OW33276   0.254   0.326  10.421  0.3909  0.2301 -0.0958
10612SOL    HW133277   0.297   0.374  10.350  0.2713  2.8420  1.4463
10612SOL    HW233278   0.185   0.385  10.451  0.7870 -0.5140  2.5119
10613SOL     OW33279   6.501   2.596   2.046 -0.3363 -0.0252  0.0693
10613SOL    HW133280   6.569   2.659   2.072 -0.5674 -0.3609  1.6090
10613SOL    HW233281   6.532   2.560   1.963  0.3370  1.3271 -0.2947
10614SOL     OW33282   2.850   7.573   0.793  0.3444  0.0127 -0.5917
10614SOL    HW133283   2.932   7.619   0.775 -0.0204  1.1182  0.3800
10614SOL    HW233284   2.876   7.485   0.820  1.2661  0.5050  0.1891
10615SOL     OW33285   0.360   0.706   3.920  0.4920  0.6620  0.1073
10615SOL    HW133286   0.407   0.622   3.929 -0.3377  0.3524  2.1553
10615SOL    HW233287   0.427   0.772   3.938  0.9646  0.4130 -0.6810
10616SOL     OW33288   1.759   7.509   3.142  0.6264 -0.5720  0.5463
10616SOL    HW133289   1.848   7.483   3.167  0.6637 -1.1210 -0.1253
10616SOL    HW233290   1.771   7.574   3.074  0.5164  0.1340  1.1941
10617SOL     OW33291   1.599   5.025   2.143  0.0787 -0.2255 -0.8886
10617SOL    HW133292   1.575   5.080   2.068 -0.2432 -0.3156 -0.8558
10617SOL    HW233293   1.572   4.937   2.117  1.8636 -0.6272 -1.5153
10618SOL     OW33294   5.700   5.321   1.144 -0.0244  0.2619  0.0833
10618SOL    HW133295   5.638   5.254   1.173  0.5952 -0.6561 -0.6422
10618SOL    HW233296   5.785   5.293   1.180  0.3935  0.1646 -0.9423
10619SOL     OW33297   0.336   1.677   3.287  0.2125  0.1867  0.1766
10619SOL    HW133298   0.292   1.736   3.347  0.7278  2.0225 -1.1653
10619SOL    HW233299   0.417   1.721   3.264 -0.3740  0.0560 -2.5636
10620SOL     OW33300   1.676   7.502  12.460  0.3961 -0.7627  0.7146
10620SOL    HW133301   1.604   7.494  12.399  0.8254 -0.5419  0.1701
10620SOL    HW233302   1.640   7.550  12.535 -0.0639 -0.8164  0.5237
10621SOL     OW33303   1.456   4.403   4.005  0.4162  0.5350  0.0455
10621SOL    HW133304   1.393   4.405   3.933  0.6009  0.4144 -0.1196
10621SOL    HW233305   1.481   4.494   4.018  0.3562  0.5605 -0.0183
10622SOL     OW33306   1.638   4.819   3.875  0.3558  0.0137 -0.1006
10622SOL    HW133307   1.627   4.733   3.916 -1.7940  0.6035  0.6698
10622SOL    HW233308   1.647   4.879   3.949 -0.2336  0.6944 -0.5707
10623SOL     OW33309   5.480   1.514   0.428 -0.1704 -0.4810 -0.2974
10623SOL    HW133310   5.538   1.589   0.417 -2.1494  1.1188 -0.1828
10623SOL    HW233311   5.512   1.449   0.365  1.2433  0.6427 -0.7823
10624SOL     OW33312   3.124   5.649   4.621 -0.3281 -0.2267  0.0584
10624SOL    HW133313   3.133   5.605   4.537  1.5817  0.1693  0.0080
10624SOL    HW233314   3.131   5.579   4.686 -1.2199 -0.4625 -0.0993
10625SOL     OW33315   2.961   0.676   3.897  0.0749 -0.3034 -0.0140
10625SOL    HW133316   3.041   0.716   3.931 -0.1383  2.2087 -2.1368
10625SOL    HW233317   2.970   0.683   3.802 -1.7272 -2.0262 -0.3799
10626SOL     OW33318   0.460   6.427   4.866 -0.2282  0.1282  0.0248
10626SOL    HW133319   0.554   6.406   4.867 -0.2318 -0.2591 -2.2176
10626SOL    HW233320   0.457   6.521   4.884  0.4822 -0.0518  1.2083
10627SOL     OW33321   4.879   0.008   0.397 -0.2498 -0.6777  0.4468
10627SOL    HW133322   4.819  -0.012   0.469 -1.2257 -0.9189 -0.4069
10627SOL    HW233323   4.831  -0.018   0.318  0.4036  0.4868 -0.3631
10628SOL     OW33324   5.121   3.452   3.114 -0.4026  0.1723  0.8190
10628SOL    HW133325   5.153   3.367   3.144  0.8678  0.6436  0.8714
10628SOL    HW233326   5.141   3.513   3.186 -0.6117  0.6491  0.4823
10629SOL     OW33327   4.534   7.430   8.184 -0.7231  0.6659  0.2638
10629SOL    HW133328   4.472   7.440   8.256 -0.1257  0.4916  0.8084
10629SOL    HW233329   4.620   7.439   8.225 -0.3747  0.4590 -0.4090
10630SOL     OW33330   5.819   0.584   6.043 -0.1239 -0.5362 -0.2006
10630SOL    HW133331   5.745   0.551   6.095 -0.2859 -0.6941 -0.5267
10630SOL    HW233332   5.803   0.679   6.037  1.0263 -0.1520  1.8310
10631SOL     OW33333   7.743   1.516   7.137 -0.0040  0.0015 -0.1977
10631SOL    HW133334   7.791   1.486   7.060 -0.9616  1.3534 -1.3760
10631SOL    HW233335   7.810   1.552   7.195  0.9777 -2.8614  0.5747
10632SOL     OW33336   3.438   7.223   6.847  0.1063  0.5242  0.1415
10632SOL    HW133337   3.408   7.314   6.852 -1.2158  0.0894  0.5109
10632SOL    HW233338   3.507   7.225   6.781  0.2695  1.8407  0.3232
10633SOL     OW33339   2.518   0.339   8.309  0.1093 -0.3529 -0.3749
10633SOL    HW133340   2.433   0.377   8.286  0.5127  0.3791 -0.6685
10633SOL    HW233341   2.544   0.289   8.232  0.4525  0.3163 -0.6907
10634SOL     OW33342   5.905   1.469  12.118 -0.3814 -0.0231 -0.2673
10634SOL    HW133343   5.909   1.539  12.053 -0.7824  0.0740 -0.1893
10634SOL    HW233344   5.850   1.402  12.077 -0.2644 -0.1530 -0.2110
10635SOL     OW33345   6.240   6.408   9.459  0.1528  0.0468 -0.1609
10635SOL    HW133346   6.313   6.466   9.438  1.4313 -1.5677 -0.4452
10635SOL    HW233347   6.209   6.375   9.375 -0.9746  0.7654 -0.0463
10636SOL     OW33348   7.354   3.269   2.372  0.4747 -0.0771 -0.1839
10636SOL    HW133349   7.359   3.309   2.285  0.9124  0.8647  0.2686
10636SOL    HW233350   7.437   3.222   2.382  0.4954 -0.0426 -0.1964
10637SOL     OW33351   0.106   4.407   1.909 -0.2748 -0.7619 -0.1109
10637SOL    HW133352   0.190   4.361   1.922  2.5676  3.4877 -1.3095
10637SOL    HW233353   0.105   4.429   1.816 -1.6235  1.1952  0.3282
10638SOL     OW33354   5.310   5.129   4.178 -0.8342 -0.0752 -0.2252
10638SOL    HW133355   5.241   5.152   4.117 -0.9849  1.2364  0.4057
10638SOL    HW233356   5.312   5.201   4.241  0.6978 -0.3767  0.1238
10639SOL     OW33357   3.198   7.465   2.979  0.2283 -0.0151 -0.1173
10639SOL    HW133358   3.248   7.427   3.052 -0.0480  0.1779  0.1721
10639SOL    HW233359   3.107   7.451   3.003  0.1090  1.1820  0.1851
10640SOL     OW33360   1.670   6.929   4.993  0.0914 -0.2317  0.0139
10640SOL    HW133361   1.621   6.933   4.911  0.5489  0.1228 -0.2474
10640SOL    HW233362   1.603   6.920   5.060 -0.2701 -0.8411 -0.4204
10641SOL     OW33363   4.234   3.278   5.875 -0.0544  0.3584 -0.3056
10641SOL    HW133364   4.146   3.264   5.839  1.0061  0.5364 -3.2596
10641SOL    HW233365   4.283   3.200   5.848  0.9657  0.7769  0.2959
10642SOL     OW33366   4.185   5.111   8.642 -0.3749 -0.2346  0.1675
10642SOL    HW133367   4.135   5.149   8.570 -1.1847 -0.6419  0.5083
10642SOL    HW233368   4.139   5.031   8.664 -0.9001  0.5027  1.9808
10643SOL     OW33369   0.039   6.292   8.506  0.1907 -0.0834 -0.2117
10643SOL    HW133370   0.122   6.251   8.484 -0.6729 -1.3065 -1.3380
10643SOL    HW233371   0.064   6.378   8.541  1.9124 -0.3849 -0.5859
10644SOL     OW33372   0.769   3.100   4.250 -0.5828  0.1902  0.0072
10644SOL    HW133373   0.853   3.123   4.291 -1.2508  0.1309  1.4742
10644SOL    HW233374   0.764   3.005   4.260 -0.3469  0.0484 -1.0732
10645SOL     OW33375   6.608   3.312   1.914  0.3737  0.1849  0.0456
10645SOL    HW133376   6.578   3.369   1.985  1.6853  0.5281  0.3469
10645SOL    HW233377   6.534   3.310   1.853 -1.1442 -0.8231  1.8008
10646SOL     OW33378   5.532   0.617   2.307 -0.2311 -0.1049  0.6956
10646SOL    HW133379   5.584   0.600   2.229  0.4968  1.7788  0.7131
10646SOL    HW233380   5.595   0.608   2.379 -0.7272 -1.1027  1.0182
10647SOL     OW33381   1.198   5.385   4.418 -0.0881  0.0770 -0.4958
10647SOL    HW133382   1.204   5.290   4.423  1.3603  0.0334 -1.8716
10647SOL    HW233383   1.105   5.404   4.412 -0.4980 -1.1139  1.4517
10648SOL     OW33384   4.020   1.190   3.108  0.7346 -0.3036 -0.2403
10648SOL    HW133385   4.112   1.211   3.123  1.4121 -2.7412 -0.6145
10648SOL    HW233386   3.986   1.265   3.058  2.7060  0.3179 -0.7275
10649SOL     OW33387   1.248   4.140   9.068 -0.4945 -0.0380  0.2347
10649SOL    HW133388   1.195   4.080   9.016  0.6864 -0.8098 -0.1324
10649SOL    HW233389   1.215   4.130   9.157  0.5500 -2.3368  0.4452
10650SOL     OW33390   1.415   5.176   7.690 -0.1911  0.0477  0.5512
10650SOL    HW133391   1.473   5.123   7.745 -1.4891 -0.1866  1.7724
10650SOL    HW233392   1.453   5.171   7.603  0.4319 -1.8763  0.8785
10651SOL     OW33393   2.051   3.982   4.187 -0.0519  0.0094  0.6239
10651SOL    HW133394   1.992   4.047   4.147  0.7111 -0.0971 -0.7426
10651SOL    HW233395   2.043   3.906   4.130  1.0572 -0.1669  0.6975
10652SOL     OW33396   3.867   2.604   3.212 -0.5625  0.0799 -0.1715
10652SOL    HW133397   3.781   2.598   3.255 -0.3513  1.5114  0.5284
10652SOL    HW233398   3.894   2.695   3.226  1.6036 -0.6287  0.6392
10653SOL     OW33399   6.160   2.325   1.866  0.4547 -0.0350 -0.4509
10653SOL    HW133400   6.087   2.357   1.813 -0.0013 -1.0228 -0.4447
10653SOL    HW233401   6.140   2.356   1.954 -0.1345 -0.5678 -0.3884
10654SOL     OW33402   7.729   3.311   6.634 -0.7243 -0.0324 -0.2415
10654SOL    HW133403   7.811   3.339   6.676 -0.7738  0.6221 -0.5743
10654SOL    HW233404   7.668   3.297   6.706 -0.2921 -0.6230  0.0163
10655SOL     OW33405   5.247   7.666   4.289  0.2464 -0.0673 -0.2751
10655SOL    HW133406   5.288   7.587   4.255  1.2193  0.6991 -0.9298
10655SOL    HW233407   5.160   7.667   4.248  0.0506 -1.0136  0.0916
10656SOL     OW33408   7.777   7.830   4.233  0.5149 -0.5283  0.6289
10656SOL    HW133409   7.837   7.904   4.233 -0.4770  0.5159 -2.9932
10656SOL    HW233410   7.827   7.759   4.192  0.1654 -0.4717  0.0860
10657SOL     OW33411   3.106   5.193   7.110  0.5043  0.3378  0.4805
10657SOL    HW133412   3.148   5.192   7.024  0.4353  1.0720  0.4253
10657SOL    HW233413   3.166   5.146   7.167  0.0924 -1.0143 -0.1681
10658SOL     OW33414   6.484   7.799  10.717  0.2520 -0.0622  0.0595
10658SOL    HW133415   6.482   7.778  10.810  0.5572  0.0899  0.1037
10658SOL    HW233416   6.445   7.723  10.674 -0.4798  0.1410  0.3572
10659SOL     OW33417   2.364   5.390   4.914 -0.2564  0.0740  0.7325
10659SOL    HW133418   2.344   5.373   5.006 -0.1131 -0.6885  0.6316
10659SOL    HW233419   2.434   5.455   4.916  0.9912 -1.2307  1.2276
10660SOL     OW33420   6.747   6.034   8.649  0.2094 -0.0258 -0.2990
10660SOL    HW133421   6.778   5.944   8.645 -0.6780 -0.3935  0.5791
10660SOL    HW233422   6.788   6.070   8.727 -1.8083 -0.6683  1.1670
10661SOL     OW33423   5.812   7.813   0.847 -0.2540 -0.0086 -0.0891
10661SOL    HW133424   5.823   7.884   0.784 -0.9031  0.5797  0.4550
10661SOL    HW233425   5.725   7.826   0.883  0.5090  0.2799  1.7228
10662SOL     OW33426   0.787   2.555  12.039 -0.6925 -0.2338 -0.6601
10662SOL    HW133427   0.825   2.642  12.033  2.6600 -1.4701  0.4364
10662SOL    HW233428   0.852   2.497  11.999 -2.1973 -2.4021 -0.1750
10663SOL     OW33429   0.348   5.375   7.113 -0.7503  0.0257 -0.3827
10663SOL    HW133430   0.293   5.306   7.076 -1.0652 -0.0596  0.2323
10663SOL    HW233431   0.387   5.335   7.191  1.7702 -0.5907 -1.8452
10664SOL     OW33432   2.652   5.929   8.740 -0.2338  0.2206  0.0148
10664SOL    HW133433   2.573   5.888   8.705 -0.3167 -0.4040  0.8950
10664SOL    HW233434   2.682   5.869   8.810 -0.5250  1.7807  1.5536
10665SOL     OW33435   4.933   0.097   2.989 -0.3422 -0.2883  0.0652
10665SOL    HW133436   4.840   0.081   2.977 -0.4966 -0.0201  0.8179
10665SOL    HW233437   4.946   0.188   2.964 -0.3363 -0.2461  0.2184
10666SOL     OW33438   2.440   4.105   8.312 -0.2655 -0.0708 -0.1001
10666SOL    HW133439   2.398   4.020   8.325  2.0856 -1.0985  1.4989
10666SOL    HW233440   2.446   4.142   8.401 -1.1039  1.7312 -0.7484
10667SOL     OW33441   6.919   6.041   7.762  0.6071  0.0797  0.0096
10667SOL    HW133442   6.992   6.044   7.700  2.0541 -0.3988  1.6111
10667SOL    HW233443   6.955   5.997   7.839 -1.4470 -0.3199  0.7931
10668SOL     OW33444   7.231   3.000   4.953  0.0670  0.2512 -0.5072
10668SOL    HW133445   7.237   2.906   4.970 -0.5471  0.3022  0.0683
10668SOL    HW233446   7.311   3.037   4.990 -0.1571  0.0667  0.1762
10669SOL     OW33447   1.819   0.156   6.178  0.1641 -0.0258 -0.2560
10669SOL    HW133448   1.812   0.241   6.221 -0.2307 -0.4732  0.5817
10669SOL    HW233449   1.729   0.136   6.151 -0.1639 -1.1744  1.5317
10670SOL     OW33450   6.657   0.697   3.273 -0.7204 -0.1348  0.4499
10670SOL    HW133451   6.578   0.646   3.255 -0.0911 -0.4360 -1.7706
10670SOL    HW233452   6.724   0.657   3.218  0.2882  1.8712  0.1456
10671SOL     OW33453   3.899   0.955   8.456 -0.1697  0.1104  0.4680
10671SOL    HW133454   3.911   0.999   8.540  0.0165  1.1115 -0.0612
10671SOL    HW233455   3.907   1.025   8.391  1.1742 -0.8783 -0.4855
10672SOL     OW33456   0.760   3.610   6.192  0.1576  0.0100  0.3157
10672SOL    HW133457   0.744   3.575   6.105  0.9820 -0.6478  0.4170
10672SOL    HW233458   0.798   3.696   6.177  0.1045 -0.0148  0.0312
10673SOL     OW33459   1.764   6.482  12.193 -0.2689 -0.3926 -0.1592
10673SOL    HW133460   1.827   6.545  12.159  2.0162 -2.1259  0.6396
10673SOL    HW233461   1.698   6.476  12.124  1.3911  0.1689 -1.8844
10674SOL     OW33462   1.668   5.861   1.823  0.6419  0.2231 -0.7669
10674SOL    HW133463   1.626   5.782   1.858 -0.2724  0.0811 -2.1121
10674SOL    HW233464   1.610   5.933   1.849  0.6689  0.2724 -0.8415
10675SOL     OW33465   0.961   4.530   7.463 -0.8301  0.9619  0.1956
10675SOL    HW133466   1.017   4.470   7.512  0.5285  0.2836 -2.0522
10675SOL    HW233467   0.875   4.520   7.503 -0.6106 -2.3574  0.0814
10676SOL     OW33468   5.695   3.293   3.949 -0.2733 -0.1935  0.0204
10676SOL    HW133469   5.738   3.318   4.030  1.0196  2.6931 -1.3991
10676SOL    HW233470   5.612   3.341   3.951  0.4994  1.2649 -1.0173
10677SOL     OW33471   0.017   3.036   2.639  0.8996  0.0826  0.5737
10677SOL    HW133472  -0.059   3.020   2.696  0.2303 -0.4719 -0.4474
10677SOL    HW233473  -0.018   3.088   2.567  1.4349 -0.3974 -0.0421
10678SOL     OW33474   7.584   1.581   7.886 -0.0098  0.1404 -0.0885
10678SOL    HW133475   7.585   1.670   7.852 -0.0408  0.6831  1.2755
10678SOL    HW233476   7.673   1.548   7.871  0.1310  0.5610 -0.1896
10679SOL     OW33477   0.164   5.710   7.646  0.2405 -0.1122  0.2537
10679SOL    HW133478   0.236   5.678   7.591  0.1649 -0.1310  0.1661
10679SOL    HW233479   0.109   5.633   7.661 -0.8427  0.3045 -1.3228
10680SOL     OW33480   0.531   2.636  12.033 -0.1658 -0.2994 -0.0682
10680SOL    HW133481   0.490   2.553  12.007 -3.8574  0.1080  3.4162
10680SOL    HW233482   0.622   2.613  12.048 -0.2116 -2.7951 -2.6570
10681SOL     OW33483   7.747   4.927  10.384  0.0551  0.6476 -0.0816
10681SOL    HW133484   7.815   4.972  10.435  0.1891  0.1405  0.1877
10681SOL    HW233485   7.774   4.940  10.293  1.4980 -1.0414  0.0468
10682SOL     OW33486   3.143   0.556   0.093 -0.1529 -0.9163 -0.1594
10682SOL    HW133487   3.201   0.516   0.029 -1.7585 -0.5574 -1.8979
10682SOL    HW233488   3.056   0.550   0.055 -0.7987  1.9457  0.6220
10683SOL     OW33489   5.404   0.703   2.803  0.3456 -0.3279 -0.2897
10683SOL    HW133490   5.343   0.739   2.867  0.9887  0.5467 -0.1511
10683SOL    HW233491   5.366   0.725   2.718  0.8159  0.8269 -0.2045
10684SOL     OW33492   7.126   0.927   6.977 -0.3173 -0.4676 -0.5468
10684SOL    HW133493   7.146   0.860   7.042  0.1650 -0.4817 -0.7064
10684SOL    HW233494   7.160   0.891   6.895  2.0253  0.9272 -0.2637
10685SOL     OW33495   5.364   2.589   4.216  0.1116  0.0609 -0.0345
10685SOL    HW133496   5.274   2.556   4.219  0.6393 -1.4580 -0.1146
10685SOL    HW233497   5.398   2.558   4.132  1.1330 -0.6012  0.6029
10686SOL     OW33498   3.995   1.052   5.816  0.1037  0.6861  0.4043
10686SOL    HW133499   4.066   1.057   5.880  1.2425  0.0317 -0.7679
10686SOL    HW233500   4.004   1.132   5.763  0.3345  0.3217 -0.1127
10687SOL     OW33501   0.591   6.752  10.254 -0.4410 -0.1950 -0.1153
10687SOL    HW133502   0.671   6.713  10.287 -1.4845 -1.7183  0.7541
10687SOL    HW233503   0.583   6.719  10.164  0.1350  0.3470 -0.3685
10688SOL     OW33504   1.348   1.693  12.316  0.4866  0.2606  0.2348
10688SOL    HW133505   1.354   1.616  12.373 -1.7835 -1.4601 -1.6569
10688SOL    HW233506   1.376   1.766  12.371  0.9480 -1.6437  2.6877
10689SOL     OW33507   4.347   2.382   9.075 -0.0808 -0.3307 -0.1932
10689SOL    HW133508   4.353   2.448   9.006 -0.4947 -1.2904 -1.1991
10689SOL    HW233509   4.317   2.430   9.152 -0.6309  0.6167 -0.9624
10690SOL     OW33510   1.509   6.780   8.762  0.4044  0.1446 -0.0932
10690SOL    HW133511   1.450   6.802   8.834 -1.0267  0.1044 -1.2144
10690SOL    HW233512   1.542   6.864   8.731 -0.2009  0.2722 -0.3924
10691SOL     OW33513   5.246   5.014   5.585 -0.2594  0.0184  0.3381
10691SOL    HW133514   5.230   4.926   5.549 -0.8800  0.8230 -1.4865
10691SOL    HW233515   5.159   5.045   5.611 -0.1834  0.4252  0.1193
10692SOL     OW33516   1.802   0.590   6.372  0.4483  0.0487 -0.0388
10692SOL    HW133517   1.815   0.516   6.312 -0.0791 -0.9549  1.0394
10692SOL    HW233518   1.873   0.650   6.351  0.9261 -0.7831 -0.9149
10693SOL     OW33519   6.223   2.420   3.607  0.0591  0.8249 -0.0144
10693SOL    HW133520   6.186   2.457   3.687  1.2386  0.6156  0.6427
10693SOL    HW233521   6.290   2.358   3.637  0.7234  0.9603 -1.1563
10694SOL     OW33522   5.204   1.447  12.039  0.2857  0.0897  0.0879
10694SOL    HW133523   5.258   1.399  11.975  0.2502 -0.3376  0.3769
10694SOL    HW233524   5.183   1.382  12.106  0.1102  0.4743  0.4068
10695SOL     OW33525   5.943   0.373   1.645 -0.0075  0.0274 -0.7187
10695SOL    HW133526   5.861   0.345   1.685 -1.0439  2.1642 -1.1930
10695SOL    HW233527   6.011   0.351   1.709 -0.9445 -1.5990 -0.2333
10696SOL     OW33528   7.618   5.679  11.712 -0.0351 -0.2558  0.0890
10696SOL    HW133529   7.604   5.768  11.744  0.6332  0.5357 -1.6863
10696SOL    HW233530   7.596   5.623  11.786 -0.4357  1.3814  1.2602
10697SOL     OW33531   7.399   1.002  12.432  0.6049 -0.1281 -0.5453
10697SOL    HW133532   7.432   0.912  12.424 -1.8792 -1.2514  0.6912
10697SOL    HW233533   7.412   1.024  12.524 -0.9581 -0.1742 -0.2928
10698SOL     OW33534   6.806   2.929   1.247  0.4089  0.5607  0.0340
10698SOL    HW133535   6.812   2.889   1.334  1.0860  0.7615  0.0817
10698SOL    HW233536   6.712   2.942   1.234  0.2193 -0.4256  0.3000
10699SOL     OW33537   7.817   1.400  11.117  0.4016 -0.4455 -0.0364
10699SOL    HW133538   7.852   1.371  11.032  0.4674 -1.4661  0.3226
10699SOL    HW233539   7.871   1.355  11.182  1.1275  1.2497  0.5865
10700SOL     OW33540   7.113   6.914   5.969  0.3319  1.1440 -0.4752
10700SOL    HW133541   7.144   6.883   5.884 -0.4790 -0.0812 -0.3574
10700SOL    HW233542   7.160   6.860   6.033  0.9431  2.0638 -0.1226
10701SOL     OW33543   7.609   3.216   5.254  0.0882 -0.2652 -0.3304
10701SOL    HW133544   7.530   3.193   5.303  0.7524  1.3489  1.6140
10701SOL    HW233545   7.586   3.297   5.209  0.5486  0.0817  0.0525
10702SOL     OW33546   5.547   1.718   5.335 -0.1029 -0.2595  0.4089
10702SOL    HW133547   5.560   1.773   5.413 -1.6520  1.1201 -0.2514
10702SOL    HW233548   5.632   1.675   5.322  0.2867 -0.3142  2.6714
10703SOL     OW33549   4.636   5.140  10.645  0.2766 -0.6095 -0.2577
10703SOL    HW133550   4.617   5.082  10.571 -0.1043 -0.6093 -0.1625
10703SOL    HW233551   4.588   5.220  10.625  0.2117 -0.5930 -0.0307
10704SOL     OW33552   0.915   0.981   6.222  0.2590 -0.6368  0.8604
10704SOL    HW133553   1.005   0.950   6.230 -0.0577 -1.5410  1.0790
10704SOL    HW233554   0.878   0.927   6.152  0.4959  1.2104 -0.7732
10705SOL     OW33555   2.046   5.569   5.859 -0.1953 -0.3573 -0.1529
10705SOL    HW133556   2.005   5.536   5.939 -1.2431  0.1254 -0.4778
10705SOL    HW233557   2.111   5.503   5.837  1.4303  0.3372  2.0961
10706SOL     OW33558   5.444   4.909  11.984  0.2992 -0.6609 -0.6165
10706SOL    HW133559   5.496   4.987  12.006  0.6433 -1.0574 -0.0111
10706SOL    HW233560   5.405   4.930  11.899  0.6300  0.0538 -0.6010
10707SOL     OW33561   5.725   0.140   2.892 -0.1861 -0.3111 -0.1283
10707SOL    HW133562   5.698   0.202   2.824 -0.5563  0.1045  0.3959
10707SOL    HW233563   5.665   0.156   2.965  0.5540 -0.3741  0.5062
10708SOL     OW33564   2.266   7.904   7.211 -0.6036 -0.5214 -0.5411
10708SOL    HW133565   2.308   7.967   7.270 -2.5060 -0.3224  0.6697
10708SOL    HW233566   2.338   7.848   7.181  0.8932  1.2484 -0.4647
10709SOL     OW33567   4.364   3.903   8.496 -0.1607 -0.2238  0.0347
10709SOL    HW133568   4.401   3.925   8.581  1.0483  1.8282 -0.9492
10709SOL    HW233569   4.434   3.854   8.452 -0.3051 -0.1896 -0.2336
10710SOL     OW33570   7.421   5.767   9.842  0.4977 -0.9218 -0.1015
10710SOL    HW133571   7.398   5.849   9.887  0.7196 -0.4444 -0.8314
10710SOL    HW233572   7.412   5.699   9.909  1.3553 -0.1689  0.8074
10711SOL     OW33573   2.607   0.113   8.182  0.3130 -0.0564  0.4779
10711SOL    HW133574   2.652   0.081   8.104  0.9851  0.1886  0.7574
10711SOL    HW233575   2.670   0.102   8.253 -0.3481 -0.4321  1.0260
10712SOL     OW33576   7.044   1.216  12.055  0.6124  0.0935 -0.5604
10712SOL    HW133577   7.123   1.217  12.110 -1.5727 -0.1828  2.8269
10712SOL    HW233578   7.007   1.129  12.067 -1.2747  0.8794 -0.3960
10713SOL     OW33579   4.847   7.506   9.853 -0.3429 -0.0362 -0.8212
10713SOL    HW133580   4.769   7.513   9.909  0.8800  0.9612  0.8419
10713SOL    HW233581   4.846   7.415   9.824 -0.7593 -0.7817  1.2966
10714SOL     OW33582   6.989   0.878   4.991  0.3263 -0.2905 -0.4999
10714SOL    HW133583   7.052   0.896   4.921 -0.2891 -0.8329 -1.2098
10714SOL    HW233584   7.026   0.804   5.039  1.4345  0.9469  0.6384
10715SOL     OW33585   4.151   0.341   0.166 -0.1128 -0.0780 -0.1944
10715SOL    HW133586   4.131   0.316   0.076 -1.1149  0.7481 -0.2114
10715SOL    HW233587   4.241   0.374   0.162 -0.8661  1.9734 -1.3234
10716SOL     OW33588   0.481   2.698   9.308 -0.1699  0.0515 -0.1323
10716SOL    HW133589   0.568   2.694   9.269  0.2398  0.1198  0.7421
10716SOL    HW233590   0.464   2.609   9.340 -1.3843 -0.5473 -2.2604
10717SOL     OW33591   1.903   0.479  11.151  0.5951 -0.3921  0.4615
10717SOL    HW133592   1.906   0.548  11.217 -0.6254 -1.2967  1.5274
10717SOL    HW233593   1.995   0.455  11.136  1.0554  1.5879 -0.1265
10718SOL     OW33594   5.601   1.041   3.575 -0.0450  0.0958  0.1480
10718SOL    HW133595   5.669   0.975   3.590  1.7560  1.9677  0.7632
10718SOL    HW233596   5.601   1.093   3.655 -1.3289  0.9059 -0.3645
10719SOL     OW33597   3.326   6.775   6.799 -0.3077 -0.3536 -0.2712
10719SOL    HW133598   3.381   6.780   6.878  0.6645 -1.0905 -0.8853
10719SOL    HW233599   3.300   6.683   6.793  0.7307 -0.5920 -1.5304
10720SOL     OW33600   1.168   7.779   6.942 -0.4235 -0.0682 -0.4161
10720SOL    HW133601   1.148   7.692   6.976  1.2538 -0.3505 -0.0671
10720SOL    HW233602   1.090   7.803   6.891 -1.0887 -1.5785 -0.1818
10721SOL     OW33603   0.721   1.039   8.269  0.5725  0.4044  0.2340
10721SOL    HW133604   0.703   1.011   8.359  0.9683 -0.0869  0.1642
10721SOL    HW233605   0.658   0.991   8.215 -0.7335  1.8888  0.3831
10722SOL     OW33606   0.405   0.249   7.195 -0.1460 -0.2004  0.1481
10722SOL    HW133607   0.484   0.234   7.143 -1.4856  0.2241 -2.1402
10722SOL    HW233608   0.353   0.169   7.184 -1.1963  0.5634 -0.6310
10723SOL     OW33609   7.869   2.173   1.833 -0.3031  0.3759  0.1360
10723SOL    HW133610   7.810   2.233   1.878 -0.6744 -0.0556  0.2329
10723SOL    HW233611   7.827   2.087   1.841  0.9532 -0.1686  1.3378
10724SOL     OW33612   0.349   5.300   1.850  0.3679  0.1397 -0.3576
10724SOL    HW133613   0.378   5.328   1.763  2.1164 -0.9975 -0.1862
10724SOL    HW233614   0.400   5.354   1.911  0.3787 -0.2184 -0.0442
10725SOL     OW33615   6.599   7.622   8.192 -0.2782 -0.1649  0.4963
10725SOL    HW133616   6.626   7.574   8.270  1.2010 -1.3349 -0.6565
10725SOL    HW233617   6.596   7.555   8.123 -0.7680  0.9488 -0.6079
10726SOL     OW33618   0.543   0.238   3.824  0.1294 -0.3021  0.7986
10726SOL    HW133619   0.540   0.332   3.845 -0.7319 -0.0385 -0.4217
10726SOL    HW233620   0.635   0.222   3.804  0.6257 -0.1381  2.7054
10727SOL     OW33621   5.174   4.725   4.777  0.4370  0.2622  0.6554
10727SOL    HW133622   5.209   4.649   4.731 -1.5622  0.4624 -1.3640
10727SOL    HW233623   5.179   4.701   4.870  1.8589 -1.4029  0.2072
10728SOL     OW33624   3.555   2.309   8.558 -0.1033  0.1502  0.5734
10728SOL    HW133625   3.628   2.293   8.618  0.1661  0.2274  0.2698
10728SOL    HW233626   3.583   2.270   8.475 -0.3221  0.3543  0.4016
10729SOL     OW33627   1.870   6.603   4.338  0.5402  0.4328  0.3364
10729SOL    HW133628   1.919   6.646   4.268  1.3487 -1.5128 -0.3778
10729SOL    HW233629   1.778   6.612   4.313  0.8425 -1.7105 -2.0221
10730SOL     OW33630   3.631   7.786   7.826 -0.0533 -0.3078  0.0472
10730SOL    HW133631   3.540   7.756   7.831  0.3588 -1.6673 -0.0946
10730SOL    HW233632   3.638   7.828   7.741 -0.1647 -1.6131 -0.6299
10731SOL     OW33633   2.768   3.176   7.042  0.0971  0.2222  0.0975
10731SOL    HW133634   2.756   3.129   6.959  1.3998  0.6738 -0.3726
10731SOL    HW233635   2.714   3.255   7.032  0.7483  0.5932 -0.6017
10732SOL     OW33636   2.228   0.013   3.573 -0.1529 -0.0755 -0.6056
10732SOL    HW133637   2.298   0.057   3.621 -0.6190  0.2913 -0.2520
10732SOL    HW233638   2.239   0.042   3.482 -0.7046  1.1130 -0.3080
10733SOL     OW33639   5.727   5.063  11.892 -0.1479 -0.4626 -0.3939
10733SOL    HW133640   5.699   5.113  11.816 -3.3902 -2.3045 -0.5971
10733SOL    HW233641   5.749   5.130  11.958 -1.4742  1.2171 -1.5585
10734SOL     OW33642   1.683   4.007   6.777 -0.0906 -0.5992  0.1163
10734SOL    HW133643   1.642   4.066   6.839  1.3704 -1.0909  1.6251
10734SOL    HW233644   1.762   3.976   6.822  0.7441 -1.3862 -1.7873
10735SOL     OW33645   2.331   6.333  10.769  0.1343 -0.0925  0.2096
10735SOL    HW133646   2.389   6.392  10.817 -0.4819  0.6169  0.0966
10735SOL    HW233647   2.244   6.352  10.803 -0.1303 -0.6053 -0.1676
10736SOL     OW33648   6.709   7.012  10.515  0.3409 -0.0678 -0.1884
10736SOL    HW133649   6.731   7.042  10.603 -0.8655  0.0222  0.0957
10736SOL    HW233650   6.718   7.090  10.460  0.4579  0.0310 -0.0320
10737SOL     OW33651   3.274   1.738   0.522  0.3679 -0.2000  0.2442
10737SOL    HW133652   3.232   1.661   0.482 -0.2582 -0.8261  2.0319
10737SOL    HW233653   3.213   1.765   0.590  1.4516  0.7864  0.8472
10738SOL     OW33654   3.415   2.489   0.516 -0.0237 -0.4173 -0.1785
10738SOL    HW133655   3.396   2.564   0.459 -1.6814 -0.4310  0.3034
10738SOL    HW233656   3.337   2.434   0.510  0.3909 -1.1672  0.9371
10739SOL     OW33657   5.721   3.102   5.232 -0.6893  0.3004 -0.1605
10739SOL    HW133658   5.816   3.118   5.235 -0.9304  1.7752  1.7558
10739SOL    HW233659   5.713   3.015   5.192  1.6602 -1.1764  2.2335
10740SOL     OW33660   2.537   6.953   1.018 -0.1307  0.4570  0.3333
10740SOL    HW133661   2.518   6.889   1.087  0.6679 -0.7009 -0.4810
10740SOL    HW233662   2.454   6.998   1.005 -0.5396  0.0670  1.4104
10741SOL     OW33663   0.929   6.015  10.915  0.0154  0.1135 -0.0250
10741SOL    HW133664   0.856   6.077  10.919  0.1478  0.2507  0.3461
10741SOL    HW233665   0.993   6.057  10.857  0.2113  0.4467  0.4207
10742SOL     OW33666   7.145   0.662   4.038 -0.1539  0.5031 -0.5339
10742SOL    HW133667   7.181   0.575   4.019  1.5618  1.4535 -1.8507
10742SOL    HW233668   7.173   0.717   3.965  0.4775  2.6437  1.2205
10743SOL     OW33669   7.181   3.460  11.732 -0.3020 -0.2650  0.1471
10743SOL    HW133670   7.260   3.489  11.777 -0.3230  1.3898 -0.8137
10743SOL    HW233671   7.115   3.525  11.754 -1.3504 -1.4481  0.6687
10744SOL     OW33672   6.264   3.376   6.921  0.1853  0.2601  0.3997
10744SOL    HW133673   6.248   3.369   7.015 -2.7292  0.1553 -0.0071
10744SOL    HW233674   6.238   3.466   6.900 -0.1082 -0.0176 -0.4418
10745SOL     OW33675   4.618   0.894  11.454 -0.2632 -1.0990 -0.6227
10745SOL    HW133676   4.558   0.877  11.527 -0.2409 -1.6991 -0.7385
10745SOL    HW233677   4.562   0.924  11.383 -0.1605  0.6461 -0.0120
10746SOL     OW33678   7.804   4.998   0.909 -0.0269  0.3810 -0.0884
10746SOL    HW133679   7.717   4.979   0.943 -0.4059 -0.5601 -1.5022
10746SOL    HW233680   7.805   4.958   0.822  1.0981  2.1566 -0.9527
10747SOL     OW33681   3.696   2.674   4.792 -0.0186 -0.1129 -0.2811
10747SOL    HW133682   3.699   2.654   4.885  0.8901 -0.7656 -0.4322
10747SOL    HW233683   3.653   2.759   4.787 -0.7943 -0.4353  0.6664
10748SOL     OW33684   6.046   5.497   3.734 -0.1143  0.6160  0.1023
10748SOL    HW133685   6.093   5.503   3.817  0.9004  1.2727 -0.4967
10748SOL    HW233686   6.077   5.415   3.694 -0.2006  0.5632  0.1456
10749SOL     OW33687   0.178   2.756   3.296 -0.1671 -0.5483  0.7103
10749SOL    HW133688   0.241   2.779   3.364 -1.8765  3.9125  1.0908
10749SOL    HW233689   0.231   2.749   3.216  1.1110  0.9426  1.3636
10750SOL     OW33690   3.606   7.077   4.488 -0.3552 -0.7767  0.2917
10750SOL    HW133691   3.520   7.120   4.493  0.9545  2.2276 -0.5237
10750SOL    HW233692   3.605   7.031   4.404 -0.5813  0.8525 -0.6503
10751SOL     OW33693   4.951   5.491  12.063  0.7189  0.1497  0.3189
10751SOL    HW133694   4.908   5.477  11.978  1.7561 -0.1218 -0.1855
10751SOL    HW233695   4.890   5.545  12.112  0.7740  1.7206 -1.2067
10752SOL     OW33696   3.310   4.366   8.346  0.3003  0.2047  0.2994
10752SOL    HW133697   3.223   4.347   8.379  1.1080 -1.1815  1.8029
10752SOL    HW233698   3.353   4.280   8.342  1.2832  0.7235 -1.3791
10753SOL     OW33699   0.244   7.652   6.433  0.1960  0.1675  0.5908
10753SOL    HW133700   0.157   7.636   6.469 -1.3427  0.3044 -2.7282
10753SOL    HW233701   0.282   7.565   6.421  0.5936  0.1085  2.0265
10754SOL     OW33702   2.281   2.880   5.163  0.0376  0.1932  0.9301
10754SOL    HW133703   2.343   2.820   5.204  1.0447  0.8595  0.4296
10754SOL    HW233704   2.262   2.945   5.231  0.6863  0.5589  0.7676
10755SOL     OW33705   5.429   3.827  11.223 -0.2000 -0.1645 -0.3231
10755SOL    HW133706   5.421   3.742  11.266  0.8003 -0.5612 -0.8985
10755SOL    HW233707   5.495   3.874  11.274  2.2689 -1.2540 -2.2630
10756SOL     OW33708   3.991   1.378   2.314 -0.6597  0.0827  0.3192
10756SOL    HW133709   3.996   1.372   2.409 -3.5726 -0.4131  0.5305
10756SOL    HW233710   4.066   1.328   2.282  0.3606  0.2615  2.3465
10757SOL     OW33711   3.151   6.638   6.395  0.6139 -0.2178  0.0288
10757SOL    HW133712   3.120   6.552   6.423  1.3641 -0.9699 -1.3276
10757SOL    HW233713   3.246   6.634   6.404  0.7576  0.0073 -1.2005
10758SOL     OW33714   0.831   1.484   3.472  0.3389  0.2041  0.3784
10758SOL    HW133715   0.897   1.516   3.410 -1.5404  1.4731 -1.0744
10758SOL    HW233716   0.760   1.548   3.467 -3.1262 -3.3078 -1.6743
10759SOL     OW33717   7.344   3.068   0.679 -0.1031 -0.1768 -0.0208
10759SOL    HW133718   7.259   3.028   0.658 -0.9757  1.7012 -0.2859
10759SOL    HW233719   7.393   3.063   0.597  0.2916 -1.7643  0.2793
10760SOL     OW33720   6.549   5.293  11.067 -0.0761 -0.1561  0.1161
10760SOL    HW133721   6.546   5.386  11.090  0.1150 -0.1451  0.0966
10760SOL    HW233722   6.474   5.255  11.112 -0.3947  0.0837 -0.2064
10761SOL     OW33723   1.106   1.511   5.795 -0.1487  0.6641  0.1191
10761SOL    HW133724   1.109   1.419   5.821 -0.0971  0.6139 -0.0688
10761SOL    HW233725   1.130   1.559   5.875 -1.3957  0.5701  0.5637
10762SOL     OW33726   3.825   1.417   4.753  0.0831  0.0136 -0.3355
10762SOL    HW133727   3.833   1.371   4.670  1.5799  1.8989 -1.3075
10762SOL    HW233728   3.744   1.383   4.792  0.8931 -3.0733 -1.1314
10763SOL     OW33729   0.986   0.172  11.533  0.5223 -0.1614  0.2245
10763SOL    HW133730   0.920   0.137  11.473  0.4853  0.8373 -0.3356
10763SOL    HW233731   0.960   0.263  11.547  0.9795 -0.1629  1.1343
10764SOL     OW33732   3.587   6.830   9.374 -0.1622  0.3480 -0.3254
10764SOL    HW133733   3.584   6.734   9.373 -1.0745  0.3443  0.6244
10764SOL    HW233734   3.680   6.851   9.385 -0.0034 -0.4376 -0.1204
10765SOL     OW33735   2.472   7.560   7.793 -0.5531 -0.0838 -0.4225
10765SOL    HW133736   2.510   7.566   7.881 -1.3560  1.7783 -0.1410
10765SOL    HW233737   2.379   7.579   7.806 -0.6311  0.5055 -1.6935
10766SOL     OW33738   0.973   6.466   4.978  0.3814 -0.3776 -0.1615
10766SOL    HW133739   1.056   6.513   4.985  0.0869  0.1404 -0.1080
10766SOL    HW233740   0.961   6.425   5.064  0.9377 -1.0610 -0.4047
10767SOL     OW33741   2.373   6.767   9.928  0.1266  0.5290  0.1980
10767SOL    HW133742   2.465   6.782   9.950 -0.2268  0.9119  1.4872
10767SOL    HW233743   2.374   6.684   9.880  1.4004  1.6888 -1.9197
10768SOL     OW33744   0.785   3.596  11.416 -0.1008  0.3782  0.4667
10768SOL    HW133745   0.750   3.538  11.348 -0.4566 -0.5786  1.4491
10768SOL    HW233746   0.826   3.668  11.367 -2.4453  0.9799 -0.7620
10769SOL     OW33747   2.265   5.158   7.790  0.4434  0.1555  0.0889
10769SOL    HW133748   2.242   5.139   7.699  1.6093  0.0287 -0.2014
10769SOL    HW233749   2.283   5.072   7.828 -2.6427 -0.1074  1.2558
10770SOL     OW33750   7.615   7.372   4.626  0.7837 -0.9956  0.1113
10770SOL    HW133751   7.563   7.411   4.556  0.6720  0.2882  0.8838
10770SOL    HW233752   7.553   7.313   4.671 -0.0311  0.4606  0.9770
10771SOL     OW33753   0.778   3.238   6.164 -0.2488  0.8593  0.1713
10771SOL    HW133754   0.787   3.257   6.071 -0.6459  3.5666  0.6134
10771SOL    HW233755   0.684   3.230   6.179 -0.1422 -0.8007  0.1826
10772SOL     OW33756   0.352   1.623   3.006 -0.2257 -0.4015  0.4473
10772SOL    HW133757   0.362   1.627   3.102  0.4071 -1.0541  0.4111
10772SOL    HW233758   0.315   1.708   2.983 -2.8563 -1.1470  1.5609
10773SOL     OW33759   5.769   0.187  11.574 -0.2081  0.8564  0.3727
10773SOL    HW133760   5.847   0.136  11.596 -0.1192 -0.4126 -2.4753
10773SOL    HW233761   5.768   0.257  11.639  2.3178 -0.0761  1.5729
10774SOL     OW33762   1.572   7.488   2.352 -0.9502  0.3654 -0.1712
10774SOL    HW133763   1.535   7.535   2.277 -1.2367  1.1195  0.4235
10774SOL    HW233764   1.583   7.398   2.321 -2.1404  0.3960 -0.7490
10775SOL     OW33765   5.198   4.701   9.869  0.3153  0.0900  0.4121
10775SOL    HW133766   5.170   4.660   9.951  2.7495 -4.0784 -0.5292
10775SOL    HW233767   5.289   4.727   9.886  0.4050  0.4394 -0.5669
10776SOL     OW33768   2.476   5.322   7.831  0.1416  0.0666  0.1953
10776SOL    HW133769   2.407   5.259   7.810 -0.3792  0.7415 -0.1615
10776SOL    HW233770   2.480   5.380   7.754  0.9233  0.1987  0.3257
10777SOL     OW33771   2.254   6.207   5.267  0.4128  0.1816  0.2395
10777SOL    HW133772   2.282   6.200   5.358  2.1819  2.3332 -0.0779
10777SOL    HW233773   2.163   6.239   5.273 -0.2631 -1.7392  1.2054
10778SOL     OW33774   1.204   2.990   6.119  0.7023  0.8481  0.2844
10778SOL    HW133775   1.147   2.928   6.075  1.6671 -0.0384  0.2617
10778SOL    HW233776   1.265   2.936   6.169  1.9930  1.7377 -0.2689
10779SOL     OW33777   5.128   5.322   7.651  0.2850  0.3348  0.0669
10779SOL    HW133778   5.156   5.301   7.740 -0.1782 -0.7877 -0.0362
10779SOL    HW233779   5.040   5.359   7.662  1.2090  2.6114  0.2736
10780SOL     OW33780   0.446   1.472   0.832 -0.2688 -0.8355  0.1913
10780SOL    HW133781   0.526   1.450   0.786 -0.0511 -0.6632  0.4865
10780SOL    HW233782   0.456   1.431   0.918  0.8036  1.6169  1.3232
10781SOL     OW33783   2.284   6.970  11.325 -0.1310 -0.3112  0.4270
10781SOL    HW133784   2.327   6.924  11.253 -1.9249 -0.2096 -0.7607
10781SOL    HW233785   2.195   6.936  11.326 -0.8552  1.4746  0.9642
10782SOL     OW33786   4.753   0.565  11.338  0.6707 -0.2566 -0.3274
10782SOL    HW133787   4.680   0.528  11.388  1.1160 -1.7542 -0.7179
10782SOL    HW233788   4.809   0.606  11.404  0.6725 -1.2141  0.2827
10783SOL     OW33789   1.885   5.849   9.326 -0.1808  0.0803  0.6571
10783SOL    HW133790   1.798   5.847   9.366 -0.1468  1.2545  0.8192
10783SOL    HW233791   1.870   5.827   9.234 -0.6529  0.2820  0.6844
10784SOL     OW33792   5.662   7.903   7.610 -0.7086 -0.3496  0.5417
10784SOL    HW133793   5.671   7.957   7.689 -1.9813 -0.6669  0.9347
10784SOL    HW233794   5.750   7.870   7.593 -0.0466  1.2466  0.7106
10785SOL     OW33795   0.666   5.854  10.607  0.3751  0.6017  0.3201
10785SOL    HW133796   0.642   5.778  10.660  1.8999  0.8418  1.4054
10785SOL    HW233797   0.741   5.825  10.555 -0.4295  0.7051 -0.9570
10786SOL     OW33798   5.907   3.704   3.283  0.5221 -0.3099  0.2441
10786SOL    HW133799   5.872   3.781   3.239  0.1222  0.0861  1.2485
10786SOL    HW233800   5.837   3.639   3.276  0.3281 -0.1385  0.5822
10787SOL     OW33801   6.072   4.904   8.504 -0.5208 -0.3813  0.0706
10787SOL    HW133802   6.037   4.816   8.491  1.9703 -1.4537 -0.0437
10787SOL    HW233803   6.102   4.931   8.417  1.0024 -0.5232  0.5229
10788SOL     OW33804   0.521   0.506   5.529  0.0058  0.2088 -0.4817
10788SOL    HW133805   0.493   0.481   5.441  1.1071  1.5361 -1.2515
10788SOL    HW233806   0.441   0.536   5.572 -0.3742  0.5682 -1.4128
10789SOL     OW33807   2.064   2.187   2.525 -0.0344 -0.5566 -0.1693
10789SOL    HW133808   2.073   2.092   2.535  0.2145 -0.3953  1.3293
10789SOL    HW233809   1.977   2.199   2.486  0.1351 -1.4158 -0.8315
10790SOL     OW33810   4.252   6.259   8.657  0.4076 -0.2139 -0.3563
10790SOL    HW133811   4.190   6.186   8.665 -0.4098  0.3882 -1.0957
10790SOL    HW233812   4.206   6.334   8.694  1.2726 -0.0655  0.4643
10791SOL     OW33813   0.433   2.066   6.825  0.4126  0.2879 -0.3126
10791SOL    HW133814   0.355   2.012   6.837 -0.2274  1.1776 -0.3642
10791SOL    HW233815   0.399   2.154   6.811  1.4698  0.9904  1.2768
10792SOL     OW33816   1.955   2.236   5.058 -0.4547 -0.0711  0.3076
10792SOL    HW133817   1.873   2.224   5.011 -1.5037  0.0983  1.9815
10792SOL    HW233818   2.004   2.154   5.044  0.4501  0.9095 -3.0816
10793SOL     OW33819   4.424   7.061   1.710  0.2627  0.3631  0.7883
10793SOL    HW133820   4.404   7.147   1.675 -1.5175  0.0437  0.9134
10793SOL    HW233821   4.431   7.004   1.633 -0.6524  0.2443  0.7746
10794SOL     OW33822   0.147   0.049   3.598  0.4648 -0.0373 -0.1074
10794SOL    HW133823   0.199   0.105   3.656  0.6682  0.8807 -1.1323
10794SOL    HW233824   0.066   0.033   3.646  0.5928  0.7725  0.4023
10795SOL     OW33825   5.290   4.886   7.371  0.9241  0.2126 -0.5329
10795SOL    HW133826   5.354   4.908   7.304  2.1017 -0.6101  0.2736
10795SOL    HW233827   5.336   4.900   7.454  0.1005 -0.4923  0.0612
10796SOL     OW33828   0.766   5.854   9.417  0.3009  0.3557 -0.5310
10796SOL    HW133829   0.695   5.790   9.418  0.3106  0.3279  1.0708
10796SOL    HW233830   0.773   5.881   9.325 -0.1729 -1.4096 -1.1272
10797SOL     OW33831   0.575   1.570   9.867 -0.4846 -0.2652  0.4127
10797SOL    HW133832   0.588   1.576   9.772  0.4613  1.4751  0.6064
10797SOL    HW233833   0.519   1.645   9.888 -0.2751 -0.3456  1.2815
10798SOL     OW33834   2.228   4.654   2.231 -0.0575  0.0069 -0.1920
10798SOL    HW133835   2.155   4.667   2.170 -0.3366  0.1601  0.1678
10798SOL    HW233836   2.203   4.577   2.282  0.9819 -1.1951 -1.4220
10799SOL     OW33837   4.341   7.053   3.939 -0.2435 -0.3820 -0.2525
10799SOL    HW133838   4.289   6.978   3.969  0.5528 -1.1839 -0.8213
10799SOL    HW233839   4.396   7.075   4.014  0.7633 -1.5052 -0.6196
10800SOL     OW33840   5.261   3.909  11.834 -0.0082  0.0084 -0.1351
10800SOL    HW133841   5.225   3.961  11.906  1.3624  0.3965  0.2997
10800SOL    HW233842   5.319   3.846  11.876 -1.8058 -2.1094 -0.6253
10801SOL     OW33843   2.659   5.824  12.153  1.1348  0.1351 -0.8966
10801SOL    HW133844   2.573   5.784  12.168  0.5795  1.9845  1.5986
10801SOL    HW233845   2.659   5.847  12.060 -2.8228  3.4877 -0.3959
10802SOL     OW33846   6.793   4.838   2.289  0.0751  0.0079 -0.0707
10802SOL    HW133847   6.742   4.782   2.230 -1.0913 -0.3307  1.2096
10802SOL    HW233848   6.740   4.917   2.298  0.2819  0.0858  0.4544
10803SOL     OW33849   6.848   3.119   2.449  0.2116 -0.3252  0.1130
10803SOL    HW133850   6.926   3.076   2.485 -0.0552 -0.4534  0.5439
10803SOL    HW233851   6.872   3.140   2.359  0.8667 -0.0635  0.3401
10804SOL     OW33852   6.820   4.738   6.988  0.3047 -0.4452  0.2683
10804SOL    HW133853   6.755   4.757   7.055  0.5737  1.7811 -0.0281
10804SOL    HW233854   6.816   4.813   6.929  1.1475 -1.6260 -1.3641
10805SOL     OW33855   6.919   6.395   9.320 -0.1907  0.3640  0.0855
10805SOL    HW133856   6.853   6.371   9.386 -2.5789  0.4064 -2.1253
10805SOL    HW233857   6.930   6.490   9.332 -1.6944  0.6371 -0.4137
10806SOL     OW33858   0.216   1.482   5.146 -0.6770  0.4947  0.2308
10806SOL    HW133859   0.168   1.447   5.071 -0.6266 -0.5948  0.6894
10806SOL    HW233860   0.147   1.512   5.206 -0.7384  3.4985 -1.1395
10807SOL     OW33861   7.922   0.287   9.803 -0.1777  1.0571  0.2089
10807SOL    HW133862   7.928   0.310   9.896  1.2320  0.4939  0.2759
10807SOL    HW233863   7.895   0.195   9.803 -0.5309  1.1572  0.0363
10808SOL     OW33864   5.166   7.254   9.549 -0.1565  0.0008 -0.4979
10808SOL    HW133865   5.137   7.163   9.535 -1.9792  0.4931 -0.2811
10808SOL    HW233866   5.164   7.265   9.644 -0.9121  0.5284 -0.5637
10809SOL     OW33867   4.952   5.760   3.796  0.1876  0.7452  0.1670
10809SOL    HW133868   5.005   5.821   3.746 -1.3898  1.2069 -0.9994
10809SOL    HW233869   4.914   5.701   3.731  1.0014 -0.9968  1.1782
10810SOL     OW33870   7.673   7.667   8.358 -0.0187 -0.5816  0.6108
10810SOL    HW133871   7.654   7.641   8.268  0.0178  1.2663  0.0322
10810SOL    HW233872   7.592   7.708   8.389  0.0381 -1.0102  1.3497
10811SOL     OW33873   7.319   5.269   2.721 -0.2725 -0.2233  0.6890
10811SOL    HW133874   7.245   5.254   2.780 -0.0633  0.1563  1.0595
10811SOL    HW233875   7.369   5.187   2.723  0.1275  0.0185  1.6229
10812SOL     OW33876   0.363   0.146   8.439  0.0540 -0.1537  0.3608
10812SOL    HW133877   0.377   0.057   8.469 -2.3293 -0.7851 -0.1476
10812SOL    HW233878   0.348   0.138   8.345  0.1405  0.8143  0.2492
10813SOL     OW33879   3.452   1.572   7.461 -0.4283 -0.0080 -0.3916
10813SOL    HW133880   3.471   1.494   7.515 -2.6073 -0.8294 -0.7151
10813SOL    HW233881   3.382   1.617   7.508 -0.8569  0.4517 -1.4386
10814SOL     OW33882   0.874   0.930  11.665 -0.2481  0.4718  0.1644
10814SOL    HW133883   0.944   0.933  11.730 -0.4727 -1.6255  0.5926
10814SOL    HW233884   0.823   1.009  11.681 -0.5306 -0.1650  2.8336
10815SOL     OW33885   7.266   1.074   6.560  0.3875 -0.1935  0.1421
10815SOL    HW133886   7.183   1.116   6.537  0.7246  1.3329  1.5192
10815SOL    HW233887   7.328   1.107   6.496  0.4681  0.7695  0.7033
10816SOL     OW33888   1.268   6.371   3.346  0.0632 -0.2995  0.5357
10816SOL    HW133889   1.230   6.449   3.387 -1.6632 -0.1372 -1.2242
10816SOL    HW233890   1.217   6.298   3.382  0.0652 -0.3862  0.3624
10817SOL     OW33891   4.226   6.296   0.366 -0.2186  0.0086  0.1077
10817SOL    HW133892   4.170   6.220   0.348 -1.8382  1.1113  0.2321
10817SOL    HW233893   4.268   6.316   0.282  0.4006 -1.1294  0.1261
10818SOL     OW33894   7.603   2.009   7.287  0.2405  0.1056 -0.2005
10818SOL    HW133895   7.602   1.941   7.219 -0.6816 -0.2546  0.1522
10818SOL    HW233896   7.640   1.966   7.363  0.8004  0.3602 -0.3295
10819SOL     OW33897   4.705   1.356  12.362 -0.1806 -0.0674 -0.1770
10819SOL    HW133898   4.659   1.341  12.445  0.7524  0.3176  0.4278
10819SOL    HW233899   4.708   1.269  12.321 -0.8436 -0.2217  0.0773
10820SOL     OW33900   6.615   4.655  12.461  0.1521 -0.0308 -0.3694
10820SOL    HW133901   6.547   4.597  12.427  0.1220 -0.0557 -0.2690
10820SOL    HW233902   6.595   4.663  12.554  0.8057 -0.7603 -0.1509
10821SOL     OW33903   3.027   1.950   6.711  0.6532 -1.0088 -0.1144
10821SOL    HW133904   3.064   2.034   6.739  0.4680 -0.9313 -0.1021
10821SOL    HW233905   3.074   1.928   6.630 -0.5401 -0.0231 -1.1080
10822SOL     OW33906   4.193   1.343  12.204 -0.5810  0.4655 -0.1981
10822SOL    HW133907   4.253   1.276  12.238  0.3989  0.8808 -1.0709
10822SOL    HW233908   4.250   1.408  12.164 -1.6286  0.6986 -1.3588
10823SOL     OW33909   6.768   0.677  11.365 -0.6181 -0.0961  0.1831
10823SOL    HW133910   6.730   0.717  11.286 -0.3345  0.1889  0.1907
10823SOL    HW233911   6.708   0.606  11.387 -0.2418 -0.7106 -0.7710
10824SOL     OW33912   3.339   3.016   6.134  0.1692 -0.1114 -0.3260
10824SOL    HW133913   3.247   3.032   6.153  0.5565  1.3976  0.4618
10824SOL    HW233914   3.373   3.101   6.104  2.0858  0.4343  2.8405
10825SOL     OW33915   3.427   1.739   2.510  0.3603  0.0989  0.3815
10825SOL    HW133916   3.436   1.784   2.426  0.4231 -0.5196  0.0535
10825SOL    HW233917   3.421   1.646   2.487  1.4296 -0.1734  1.1153
10826SOL     OW33918   3.686   0.596   9.940 -0.0464 -0.0965  0.1073
10826SOL    HW133919   3.762   0.604   9.881  0.2649 -1.3157  0.3004
10826SOL    HW233920   3.699   0.664  10.005  0.1148  0.6500 -0.6852
10827SOL     OW33921   5.140   0.819   5.150 -0.3911 -0.1648  0.4635
10827SOL    HW133922   5.123   0.754   5.082  2.3448 -0.7116  0.1710
10827SOL    HW233923   5.093   0.787   5.227 -0.8656 -1.3176 -0.2941
10828SOL     OW33924   5.223   7.462   4.752  0.2001 -0.2405 -0.8016
10828SOL    HW133925   5.266   7.391   4.704 -0.2768  1.0364 -3.2725
10828SOL    HW233926   5.139   7.474   4.707 -0.6065  0.5766  0.8433
10829SOL     OW33927   0.199   0.252   1.071 -0.1620  0.2359  0.2799
10829SOL    HW133928   0.222   0.318   1.137  0.1698  0.1803  0.2189
10829SOL    HW233929   0.235   0.170   1.106  2.0074  0.5607 -1.0111
10830SOL     OW33930   4.468   6.887   1.493  0.3734  0.3603  0.0109
10830SOL    HW133931   4.402   6.826   1.523  1.7939 -0.8664  0.7929
10830SOL    HW233932   4.424   6.940   1.427 -0.9689 -1.3388 -0.5239
10831SOL     OW33933   0.888   7.420  12.308 -0.8860  0.0416 -0.1212
10831SOL    HW133934   0.815   7.477  12.282  0.4380  2.4123  1.0700
10831SOL    HW233935   0.871   7.400  12.400 -1.2500 -1.4510 -0.4834
10832SOL     OW33936   2.056   5.995   2.375 -0.1764  0.3043 -0.4585
10832SOL    HW133937   2.013   6.022   2.456  0.2949 -1.5602  0.4705
10832SOL    HW233938   2.059   5.900   2.380  2.2182  0.2698 -1.4407
10833SOL     OW33939   4.350   1.981   1.383  0.5163  0.2006  0.0247
10833SOL    HW133940   4.408   2.043   1.427 -0.1969  1.2812 -0.5331
10833SOL    HW233941   4.272   1.977   1.438  1.5725 -2.3099  1.5359
10834SOL     OW33942   6.807   7.982   1.159 -0.5403  0.3767 -0.0662
10834SOL    HW133943   6.755   7.907   1.188  0.3443 -0.7174 -1.2047
10834SOL    HW233944   6.742   8.043   1.124 -1.0698 -1.6077 -2.8795
10835SOL     OW33945   2.246   4.994   5.180 -0.2297  0.4858  0.5176
10835SOL    HW133946   2.163   4.948   5.167 -0.8482  1.4074  1.0187
10835SOL    HW233947   2.272   5.021   5.092  1.7952 -3.4033 -0.2970
10836SOL     OW33948   5.065   6.802  11.287  0.4791 -0.3658 -0.7143
10836SOL    HW133949   4.992   6.740  11.281 -0.4966  0.7004 -0.2996
10836SOL    HW233950   5.058   6.854  11.206 -1.0128  1.5843  0.5629
10837SOL     OW33951   1.547   3.996   4.521 -0.2938  0.5625 -0.5515
10837SOL    HW133952   1.477   4.062   4.521 -0.6925  0.1818  0.9675
10837SOL    HW233953   1.524   3.937   4.593  0.1935 -1.0967 -1.6831
10838SOL     OW33954   0.047   2.924   7.230  0.2598  0.9425 -0.2259
10838SOL    HW133955   0.008   2.870   7.299 -1.4266  2.1967 -0.1584
10838SOL    HW233956   0.063   3.009   7.271 -0.3499  1.5701 -1.2518
10839SOL     OW33957   3.959   7.750   4.851 -0.1205 -0.2625 -0.0726
10839SOL    HW133958   4.020   7.777   4.782  0.7418 -0.6290  0.5257
10839SOL    HW233959   3.928   7.832   4.888  0.9088 -0.0595  0.3809
10840SOL     OW33960   5.706   7.388   0.519 -0.1504  0.5686 -0.0223
10840SOL    HW133961   5.620   7.423   0.546  0.6570  2.7521 -0.0315
10840SOL    HW233962   5.769   7.442   0.567  1.2414 -0.6284 -0.4527
10841SOL     OW33963   4.728   0.649   8.084  0.0383 -0.0139 -0.2165
10841SOL    HW133964   4.791   0.720   8.072 -0.2646  0.3360  0.2431
10841SOL    HW233965   4.652   0.676   8.031  0.5250 -0.7722 -1.3506
10842SOL     OW33966   4.769   7.851   3.556  0.2148 -0.2176  0.6018
10842SOL    HW133967   4.701   7.785   3.550 -1.0611  1.1261 -0.5548
10842SOL    HW233968   4.765   7.882   3.647  0.1832 -1.0542  0.8917
10843SOL     OW33969   0.624   2.794   2.229 -0.3963 -0.2832 -0.2253
10843SOL    HW133970   0.618   2.890   2.229  0.7217 -0.1891  0.6575
10843SOL    HW233971   0.712   2.776   2.196 -0.9937 -1.0651 -1.4493
10844SOL     OW33972   3.811   6.604   5.240  0.4490  0.0715  0.5842
10844SOL    HW133973   3.863   6.678   5.271  0.9563 -0.2594  0.5476
10844SOL    HW233974   3.798   6.621   5.147 -0.8915  0.9582  0.8983
10845SOL     OW33975   2.097   0.450   4.872  0.1187 -0.5629  0.3496
10845SOL    HW133976   2.026   0.492   4.825  0.1776  0.1250  0.8601
10845SOL    HW233977   2.065   0.361   4.890 -0.2037 -0.5838 -0.2945
10846SOL     OW33978   1.401   2.564   5.653  0.4396 -0.1257  0.1775
10846SOL    HW133979   1.311   2.587   5.631  0.5868 -0.5582 -0.9140
10846SOL    HW233980   1.423   2.621   5.727 -0.2862  0.9175 -0.3899
10847SOL     OW33981   3.067   5.666   9.454 -0.1966 -0.1208  0.5014
10847SOL    HW133982   2.993   5.642   9.510 -0.0207 -0.3442  0.6403
10847SOL    HW233983   3.089   5.755   9.479 -0.0253 -0.2731  0.8845
10848SOL     OW33984   3.599   5.311   9.210  0.0289  0.3671  0.1582
10848SOL    HW133985   3.521   5.276   9.252  0.4628  1.4585  2.0012
10848SOL    HW233986   3.655   5.235   9.195 -1.1516 -0.3607 -0.7538
10849SOL     OW33987   1.531   0.240  11.883 -0.1761  0.0777  0.1999
10849SOL    HW133988   1.584   0.187  11.942  0.1155  0.4559  0.2811
10849SOL    HW233989   1.573   0.229  11.797  0.2821  0.6973  0.3375
10850SOL     OW33990   6.704   1.482   2.383  0.1398  0.4526 -0.2348
10850SOL    HW133991   6.780   1.424   2.375  0.7438  1.0143  1.1770
10850SOL    HW233992   6.638   1.442   2.326  0.1514 -2.2512  1.4672
10851SOL     OW33993   2.235   6.006   7.592  0.1135 -0.5962 -0.0326
10851SOL    HW133994   2.290   6.068   7.545 -1.1792 -0.3442 -1.2725
10851SOL    HW233995   2.177   6.060   7.645 -0.9598 -0.7118 -1.0527
10852SOL     OW33996   1.779   1.803   1.270  0.3268 -0.1525  0.1039
10852SOL    HW133997   1.701   1.835   1.316  2.2577  1.2057  2.7613
10852SOL    HW233998   1.804   1.875   1.212 -0.9842 -1.0644 -1.6656
10853SOL     OW33999   5.273   2.928  11.432  0.2503 -0.1142  0.4828
10853SOL    HW134000   5.225   2.850  11.461  0.2615 -0.1324  0.4519
10853SOL    HW234001   5.257   2.933  11.338 -1.8199  1.3125  0.8277
10854SOL     OW34002   0.585   7.543   5.812  0.0379 -0.2132 -0.3658
10854SOL    HW134003   0.565   7.581   5.727 -1.4506 -0.5421 -0.1990
10854SOL    HW234004   0.499   7.533   5.854  0.8438  1.6102  1.8909
10855SOL     OW34005   1.871   6.516   1.502 -0.1243  0.5729  0.3755
10855SOL    HW134006   1.813   6.453   1.460 -0.5724  1.4188 -0.3025
10855SOL    HW234007   1.894   6.475   1.586 -1.7158  0.2129  0.6744
10856SOL     OW34008   7.113   5.246   0.603 -0.2504 -0.4727 -0.4659
10856SOL    HW134009   7.087   5.171   0.656 -0.7595 -0.4750 -0.7059
10856SOL    HW234010   7.030   5.288   0.580  0.0837  0.8455  0.6406
10857SOL     OW34011   4.571   5.255   4.507  0.2233  0.2967 -0.5962
10857SOL    HW134012   4.508   5.326   4.518  0.4839  0.2149  1.9398
10857SOL    HW234013   4.523   5.189   4.457 -1.1288  0.9263 -0.1918
10858SOL     OW34014   0.789   7.335   9.510 -0.4567 -0.6001 -0.3905
10858SOL    HW134015   0.858   7.400   9.524  1.4763 -2.6101 -0.1393
10858SOL    HW234016   0.737   7.370   9.438  0.2679  1.3898  0.0011
10859SOL     OW34017   1.640   5.769  10.547 -1.0351  0.1206 -0.1303
10859SOL    HW134018   1.693   5.732  10.477 -1.5904  0.6547 -0.8510
10859SOL    HW234019   1.667   5.722  10.626  1.0827  0.9382 -0.3248
10860SOL     OW34020   4.905   5.448  11.789  0.1098 -0.0750  0.0904
10860SOL    HW134021   4.951   5.523  11.752  0.5826 -0.1843  0.4358
10860SOL    HW234022   4.845   5.420  11.720  1.2763 -0.5425 -0.7658
10861SOL     OW34023   1.298   3.383   3.503 -0.3659 -0.6356 -0.2126
10861SOL    HW134024   1.225   3.417   3.451 -0.8312 -0.9476  0.2292
10861SOL    HW234025   1.364   3.452   3.499 -0.8456 -0.1725 -0.2776
10862SOL     OW34026   3.750   6.468   8.768  0.2902 -0.3342 -0.2597
10862SOL    HW134027   3.689   6.537   8.743  0.2040  0.1205  1.1383
10862SOL    HW234028   3.697   6.389   8.771 -0.2226  0.0310  0.8027
10863SOL     OW34029   1.222   6.679   2.868  0.0350  0.2086 -0.5608
10863SOL    HW134030   1.178   6.648   2.947  0.5920 -1.5555 -0.9062
10863SOL    HW234031   1.266   6.760   2.895  0.3155 -0.4237  0.9747
10864SOL     OW34032   7.438   4.883   4.354 -0.2739  0.4902 -0.1229
10864SOL    HW134033   7.498   4.812   4.329 -2.3714 -0.5184 -2.8161
10864SOL    HW234034   7.368   4.839   4.402 -0.7092  1.0268 -0.2612
10865SOL     OW34035   0.878   2.795   2.125 -0.3124  0.3092  0.0407
10865SOL    HW134036   0.938   2.780   2.052  0.6167  0.8768  0.6684
10865SOL    HW234037   0.919   2.751   2.200 -1.1016 -0.0143  0.2943
10866SOL     OW34038   2.550   2.081  10.648 -0.5032 -0.3556  0.4063
10866SOL    HW134039   2.537   2.133  10.569  1.2557 -3.6415 -2.3123
10866SOL    HW234040   2.569   2.145  10.716 -1.0623  2.6258 -2.0333
10867SOL     OW34041   3.866   5.557   9.957 -0.2051  0.3145 -0.5055
10867SOL    HW134042   3.792   5.617   9.965 -1.7905 -1.7840  2.4506
10867SOL    HW234043   3.827   5.472   9.938  1.2971 -0.9306  1.4580
10868SOL     OW34044   3.603   5.123   5.539 -0.0528  0.3441  0.4099
10868SOL    HW134045   3.692   5.087   5.534  0.2199  0.6796  2.2149
10868SOL    HW234046   3.606   5.202   5.486 -0.3440 -1.5288 -2.6698
10869SOL     OW34047   2.626   2.994   7.669 -0.6300 -0.0512  0.0934
10869SOL    HW134048   2.655   2.998   7.577 -0.9987 -0.4933 -0.0474
10869SOL    HW234049   2.707   2.993   7.720 -0.4247  0.7835 -0.1975
10870SOL     OW34050   7.684   1.106   9.172  0.0894 -0.5566 -0.2360
10870SOL    HW134051   7.613   1.056   9.213  0.0760  1.0102  1.8482
10870SOL    HW234052   7.756   1.044   9.166 -0.2938 -1.1865  1.1519
10871SOL     OW34053   4.808   0.653   3.233 -0.4367  0.3888  0.5699
10871SOL    HW134054   4.867   0.720   3.198 -1.7264  0.5413 -1.4591
10871SOL    HW234055   4.720   0.685   3.212 -1.2771 -0.1327  2.9732
10872SOL     OW34056   7.901   3.065   6.509  0.0233  0.2552 -0.3431
10872SOL    HW134057   7.994   3.069   6.530 -0.1539  0.9372  0.3397
10872SOL    HW234058   7.897   3.082   6.415  0.5544  0.6053 -0.3042
10873SOL     OW34059   2.299   0.502   3.326 -0.4058  0.3119  0.0993
10873SOL    HW134060   2.310   0.446   3.403  2.3099  0.6947  0.0930
10873SOL    HW234061   2.271   0.587   3.361 -1.5562 -0.1757  0.3967
10874SOL     OW34062   2.606   3.900   6.289  0.1377 -0.3495 -0.2258
10874SOL    HW134063   2.696   3.895   6.255  0.6156  1.1840  0.6912
10874SOL    HW234064   2.608   3.850   6.370  0.2185 -0.1903 -0.1277
10875SOL     OW34065   4.307   7.499   2.847 -0.0321  0.1192 -0.0032
10875SOL    HW134066   4.363   7.422   2.838  0.0439  0.1709  0.0235
10875SOL    HW234067   4.367   7.574   2.837  0.0626  0.1845  0.9511
10876SOL     OW34068   3.663   5.333   0.096  0.3587  0.3563  0.2830
10876SOL    HW134069   3.639   5.292   0.179 -0.1911 -0.1326 -0.1107
10876SOL    HW234070   3.602   5.296   0.032 -0.7363  2.3920  0.0504
10877SOL     OW34071   0.240   6.869   5.161  0.7382  0.5296 -0.1323
10877SOL    HW134072   0.207   6.821   5.238 -1.2814  0.3400 -1.0698
10877SOL    HW234073   0.297   6.936   5.198  0.7281 -0.2769  1.4561
10878SOL     OW34074   7.696   4.120   1.186  0.4978 -0.2380 -0.3348
10878SOL    HW134075   7.666   4.055   1.123 -1.5244  1.5994 -1.4057
10878SOL    HW234076   7.626   4.185   1.188  1.1350  0.5152  2.7723
10879SOL     OW34077   5.190   2.168   9.065 -0.1105  0.0950 -0.2806
10879SOL    HW134078   5.266   2.110   9.074  0.6493  0.6788 -2.2684
10879SOL    HW234079   5.222   2.254   9.092  0.2768  0.5266 -1.9497
10880SOL     OW34080   6.751   2.635   2.312 -0.0055 -0.8365 -0.4068
10880SOL    HW134081   6.745   2.705   2.247 -3.1337  0.4270  1.0383
10880SOL    HW234082   6.661   2.607   2.326  0.8945 -3.4333  0.9587
10881SOL     OW34083   1.889   1.827   2.331 -0.2346 -0.2488 -0.0316
10881SOL    HW134084   1.895   1.863   2.243 -0.3956 -1.5237 -0.5829
10881SOL    HW234085   1.979   1.832   2.365 -0.6291  2.9852  0.9223
10882SOL     OW34086   1.580   6.747   9.199  0.0237  0.2847 -0.3061
10882SOL    HW134087   1.599   6.690   9.273  0.8355  1.2257  0.2390
10882SOL    HW234088   1.551   6.829   9.239  0.6028  0.8454 -1.0182
10883SOL     OW34089   3.667   6.027  12.018 -0.2325  0.5527  0.2759
10883SOL    HW134090   3.604   6.047  11.948 -0.4435  1.0230  0.5964
10883SOL    HW234091   3.616   5.976  12.081  0.6475 -2.4150 -1.2104
10884SOL     OW34092   4.865   7.533   3.373 -0.2518 -0.2748 -0.2746
10884SOL    HW134093   4.916   7.499   3.300  0.6892  0.3172  0.0907
10884SOL    HW234094   4.777   7.546   3.337  0.2268  0.1256 -1.3400
10885SOL     OW34095   3.149   1.093   7.584 -0.4428 -0.5123 -0.5897
10885SOL    HW134096   3.087   1.160   7.555  0.9394  0.8114 -0.5696
10885SOL    HW234097   3.180   1.123   7.669 -0.1862 -1.4608 -0.3310
10886SOL     OW34098   6.208   5.099   2.176 -0.0171 -0.0813  0.2846
10886SOL    HW134099   6.181   5.021   2.128 -0.1438  0.4959 -0.6023
10886SOL    HW234100   6.130   5.154   2.180  0.5870  0.9442 -1.0115
10887SOL     OW34101   5.992   5.133   0.059  0.2703 -0.3895  0.1617
10887SOL    HW134102   5.907   5.115   0.099 -0.1294  2.3775  0.7746
10887SOL    HW234103   5.989   5.089  -0.026 -0.7827 -2.3269  1.1414
10888SOL     OW34104   1.716   1.438   4.282 -0.0612 -0.4540  0.9692
10888SOL    HW134105   1.672   1.446   4.367 -0.5890 -2.0922  0.8671
10888SOL    HW234106   1.711   1.346   4.260  0.0774 -0.0639 -0.8676
10889SOL     OW34107   5.590   0.343   9.502 -0.4294 -0.2333  0.4235
10889SOL    HW134108   5.533   0.285   9.553  0.1620 -0.0906  1.2786
10889SOL    HW234109   5.614   0.412   9.563 -0.3122  0.3640 -0.2888
10890SOL     OW34110   6.330   4.362  10.921  0.1186 -0.1646  0.1468
10890SOL    HW134111   6.347   4.457  10.924  1.4148 -0.3673 -0.0689
10890SOL    HW234112   6.277   4.350  10.843 -1.7847  0.6096  1.2565
10891SOL     OW34113   2.482   4.216  12.116  0.0540  0.0775 -0.2491
10891SOL    HW134114   2.563   4.241  12.160 -0.6405  2.1881 -0.0634
10891SOL    HW234115   2.510   4.192  12.027  0.8259  1.6050 -0.4522
10892SOL     OW34116   7.080   5.099   8.834  0.2574 -0.1851  0.6531
10892SOL    HW134117   7.105   5.035   8.767 -0.8844 -0.7934  0.7798
10892SOL    HW234118   7.099   5.184   8.794 -0.9810 -0.5085 -0.7322
10893SOL     OW34119   0.238   4.706   8.653 -0.1554 -0.3443 -0.0732
10893SOL    HW134120   0.318   4.663   8.681 -0.2294  0.5868  1.7334
10893SOL    HW234121   0.216   4.665   8.569  0.8139 -2.3868  0.6094
10894SOL     OW34122   5.957   1.300   6.638 -0.0801  0.3185 -0.4314
10894SOL    HW134123   5.871   1.338   6.618 -0.6823 -0.4022  0.6686
10894SOL    HW234124   5.964   1.224   6.580 -1.1848 -0.9133  0.9512
10895SOL     OW34125   6.261   5.335   5.244 -0.8311  0.0854 -0.0655
10895SOL    HW134126   6.240   5.426   5.221 -0.3941  0.3814  0.6854
10895SOL    HW234127   6.177   5.290   5.243 -1.1119  0.5997 -0.0043
10896SOL     OW34128   0.474   2.991   7.924  0.9927  0.2624  0.3359
10896SOL    HW134129   0.410   2.938   7.877  3.7009 -0.3162 -3.0256
10896SOL    HW234130   0.513   2.932   7.988 -1.2631  0.4773  2.0456
10897SOL     OW34131   1.638   0.531   0.031  0.0191  0.5900  0.2134
10897SOL    HW134132   1.564   0.579   0.068  0.0472  1.0151 -0.2686
10897SOL    HW234133   1.710   0.594   0.033 -0.2255  0.9590 -1.4552
10898SOL     OW34134   1.736   1.422  10.290 -0.4689 -0.4195  0.2956
10898SOL    HW134135   1.706   1.428  10.380 -1.9520  0.6014 -0.2370
10898SOL    HW234136   1.687   1.489  10.243 -1.6715 -2.5958 -1.7943
10899SOL     OW34137   1.078   6.892   8.991  0.1300  0.6061  0.3196
10899SOL    HW134138   0.985   6.877   8.972  0.3592 -0.4077 -0.0757
10899SOL    HW234139   1.081   6.916   9.084 -0.3850 -0.8669  0.7337
10900SOL     OW34140   4.724   1.882   0.487 -0.7556 -0.2558  0.5552
10900SOL    HW134141   4.807   1.857   0.446 -1.2120 -0.7427 -0.0964
10900SOL    HW234142   4.744   1.891   0.580 -0.2289 -1.5697  0.5906
10901SOL     OW34143   5.942   5.570   0.317  0.4642 -1.1128 -0.3955
10901SOL    HW134144   5.902   5.640   0.368  2.8321 -1.5187  2.2525
10901SOL    HW234145   5.905   5.489   0.353  1.8040 -1.3927  0.3937
10902SOL     OW34146   3.698   5.636   1.568  0.0835  0.2985  0.4401
10902SOL    HW134147   3.794   5.632   1.571  0.1275  0.0249 -0.7742
10902SOL    HW234148   3.678   5.726   1.544  0.0799  0.1447 -0.1595
10903SOL     OW34149   3.346   6.135   3.890  0.0125  0.0687  0.9290
10903SOL    HW134150   3.438   6.134   3.917 -0.3711  0.0137  2.3270
10903SOL    HW234151   3.337   6.217   3.841  0.6625  0.4020  1.3437
10904SOL     OW34152   1.054   7.603   3.102  0.3288  0.7154 -0.1662
10904SOL    HW134153   1.007   7.658   3.039 -0.5616 -0.9813 -1.0705
10904SOL    HW234154   1.046   7.650   3.185 -2.6353  0.7976 -0.3645
10905SOL     OW34155   7.788   7.793   5.803 -0.4644 -0.4540 -0.2850
10905SOL    HW134156   7.801   7.847   5.725 -1.0309  0.5471  0.2971
10905SOL    HW234157   7.693   7.784   5.811 -0.3780 -2.2398 -0.8193
10906SOL     OW34158   2.705   3.139   8.246  0.1062 -0.4645 -1.0756
10906SOL    HW134159   2.625   3.090   8.266  0.1195  0.1009  0.4869
10906SOL    HW234160   2.768   3.072   8.218 -0.3214 -1.1612 -0.4108
10907SOL     OW34161   2.015   3.907   1.914  0.3811 -0.1051  0.4480
10907SOL    HW134162   2.102   3.888   1.878  0.6185 -1.2110  1.5341
10907SOL    HW234163   1.955   3.889   1.842  0.9234 -1.1472  0.2315
10908SOL     OW34164   3.713   7.216   2.805 -0.8016  0.3642 -0.0163
10908SOL    HW134165   3.625   7.253   2.805 -2.1350 -2.5484 -1.0033
10908SOL    HW234166   3.701   7.123   2.788  2.5342 -0.0629 -0.8261
10909SOL     OW34167   7.016   5.055   8.473  0.6791 -0.2243  0.7887
10909SOL    HW134168   7.031   4.979   8.417  0.2824  0.0214  0.3378
10909SOL    HW234169   6.920   5.064   8.476  0.6390 -0.8044  2.2946
10910SOL     OW34170   5.269   4.735   3.224 -0.0730  0.6758  0.0953
10910SOL    HW134171   5.300   4.794   3.293  1.4501  0.7505 -0.6000
10910SOL    HW234172   5.193   4.779   3.187  0.2211  1.5439  0.4913
10911SOL     OW34173   4.962   5.042   4.358  0.1599 -0.7399 -0.8079
10911SOL    HW134174   4.875   5.011   4.384  0.6558 -1.8693 -0.4706
10911SOL    HW234175   5.005   4.966   4.321  0.9236 -0.1192 -1.2223
10912SOL     OW34176   3.453   7.072  11.813  0.4687  0.0279 -0.6035
10912SOL    HW134177   3.515   7.039  11.878  0.5770  0.9764 -0.2031
10912SOL    HW234178   3.501   7.140  11.766 -0.0577  0.3152 -0.7299
10913SOL     OW34179   2.218   5.750   4.067 -0.1274  0.2818 -0.7106
10913SOL    HW134180   2.301   5.739   4.022 -0.2751  0.5260 -1.0445
10913SOL    HW234181   2.176   5.664   4.061  0.6085 -0.1909  0.4985
10914SOL     OW34182   1.714   3.219   7.451  0.0291  0.6562 -0.2989
10914SOL    HW134183   1.639   3.275   7.473  1.7087  2.6677  0.5989
10914SOL    HW234184   1.754   3.198   7.535  0.8393  0.1307 -0.8010
10915SOL     OW34185   7.275   3.112   0.311 -0.0836 -0.0043  0.0838
10915SOL    HW134186   7.366   3.110   0.340 -0.5360  0.0070  1.6178
10915SOL    HW234187   7.235   3.036   0.352 -0.5749 -0.5074 -1.3042
10916SOL     OW34188   2.853   5.498   8.668 -0.5414 -0.3116 -0.1969
10916SOL    HW134189   2.859   5.524   8.759 -0.2940  1.0551 -0.5869
10916SOL    HW234190   2.887   5.408   8.667 -3.1759 -1.4279  1.4778
10917SOL     OW34191   6.710   6.121  10.081  0.1102 -0.3326  0.0580
10917SOL    HW134192   6.683   6.084   9.997  0.4689 -1.8489  0.5830
10917SOL    HW234193   6.785   6.177  10.060  0.5055 -1.0831 -0.5791
10918SOL     OW34194   3.525   0.382  10.913 -0.5771 -0.5184 -0.0151
10918SOL    HW134195   3.536   0.339  10.998  1.0439  0.0165  0.0850
10918SOL    HW234196   3.558   0.319  10.850 -0.0213 -0.2013 -0.0518
10919SOL     OW34197   4.665   5.970   6.836 -0.0953 -0.0026  0.2024
10919SOL    HW134198   4.656   5.897   6.774 -2.1597  0.0298  0.3944
10919SOL    HW234199   4.644   6.048   6.785  0.0875  0.2244  0.4754
10920SOL     OW34200   5.661   2.413   9.780  0.3697  0.0237  0.3814
10920SOL    HW134201   5.604   2.360   9.837  1.8639  0.8758  2.8480
10920SOL    HW234202   5.663   2.365   9.697 -1.1439 -1.8658  1.3419
10921SOL     OW34203   6.116   2.984  10.287  0.4738 -0.1506  0.0747
10921SOL    HW134204   6.116   2.989  10.382 -1.5661 -0.3386  0.1321
10921SOL    HW234205   6.144   3.071  10.258 -1.9613  0.9939  0.9010
10922SOL     OW34206   5.590   5.313   3.719 -0.4334  0.6012  0.4827
10922SOL    HW134207   5.528   5.297   3.648  0.6903 -0.9574 -0.2143
10922SOL    HW234208   5.560   5.258   3.791  0.1207 -0.1731  0.1366
10923SOL     OW34209   0.616   6.995   8.626  0.2007  0.0907  0.2167
10923SOL    HW134210   0.622   7.081   8.668 -1.9043  2.2358 -3.3242
10923SOL    HW234211   0.704   6.979   8.593  0.8898  0.2776  1.8654
10924SOL     OW34212   7.500   6.859   3.861  0.1967  0.0635  0.1622
10924SOL    HW134213   7.473   6.821   3.944 -2.6970 -0.1553 -0.7712
10924SOL    HW234214   7.487   6.788   3.797 -2.5146  1.5855 -1.1544
10925SOL     OW34215   3.357   5.885   4.168 -0.4579  0.1945 -0.1400
10925SOL    HW134216   3.410   5.855   4.242 -1.7684  1.1098  1.2280
10925SOL    HW234217   3.402   5.851   4.091  2.1898  1.0642  0.9157
10926SOL     OW34218   1.133   3.110  11.068 -0.4831  0.0443 -0.0428
10926SOL    HW134219   1.148   3.133  10.977 -0.9627  2.3206  0.3958
10926SOL    HW234220   1.129   3.014  11.068 -0.3995 -0.0160 -2.3796
10927SOL     OW34221   3.613   3.851   3.248  0.1200  0.5107  0.2183
10927SOL    HW134222   3.590   3.805   3.168  0.3317 -0.9616  0.9632
10927SOL    HW234223   3.701   3.885   3.232  0.6017 -0.6875  0.1641
10928SOL     OW34224   6.739   0.572  10.231 -0.0302 -0.0506 -0.1898
10928SOL    HW134225   6.690   0.571  10.149  0.0724  1.3660 -0.2832
10928SOL    HW234226   6.717   0.656  10.272  1.8884  0.4112  0.0043
10929SOL     OW34227   0.644   3.689   8.075 -0.0350  0.2234  0.1173
10929SOL    HW134228   0.672   3.663   7.987 -0.7665  0.0536 -0.0747
10929SOL    HW234229   0.677   3.779   8.085  1.6703 -0.4090  0.4104
10930SOL     OW34230   2.881   1.203   0.042 -0.3680  0.6627  0.0308
10930SOL    HW134231   2.838   1.200   0.127  0.6355 -0.2660  0.5263
10930SOL    HW234232   2.810   1.191  -0.021 -0.9893  0.3500  0.7727
10931SOL     OW34233   6.854   2.254   6.196 -0.3391  0.0905 -0.1963
10931SOL    HW134234   6.799   2.293   6.264  0.5780  0.5987  0.2653
10931SOL    HW234235   6.827   2.162   6.194 -0.8131  0.2078  0.4148
10932SOL     OW34236   1.713   2.719  10.253 -0.3208 -0.2837  0.1856
10932SOL    HW134237   1.782   2.716  10.320  1.3163  0.3648 -1.3956
10932SOL    HW234238   1.700   2.813  10.238  0.0089 -0.4174 -1.0292
10933SOL     OW34239   0.937   3.602   9.260  0.6068  0.4143  0.5068
10933SOL    HW134240   1.026   3.568   9.253  0.1251 -0.9638  0.7744
10933SOL    HW234241   0.915   3.593   9.353 -0.2403 -0.4638  0.2446
10934SOL     OW34242   4.046   5.557   8.016  0.2196 -0.2532 -0.6513
10934SOL    HW134243   4.020   5.581   8.105  0.8641 -1.8684  0.0080
10934SOL    HW234244   4.140   5.542   8.021  0.0230 -1.8724 -1.2224
10935SOL     OW34245   1.005   0.639  10.398 -0.1890 -0.3344  0.1999
10935SOL    HW134246   1.092   0.673  10.419 -0.8600  1.7235 -0.1006
10935SOL    HW234247   0.953   0.657  10.477 -0.7453  0.0313 -0.2397
10936SOL     OW34248   7.264   2.314   2.515 -0.4274  0.3506  0.2183
10936SOL    HW134249   7.211   2.280   2.443 -0.4046  0.4238  0.1660
10936SOL    HW234250   7.224   2.277   2.594  1.5175 -2.4352  0.0265
10937SOL     OW34251   3.720   5.650   5.968 -0.2195 -0.1785  0.2302
10937SOL    HW134252   3.670   5.683   6.042  1.6315  0.1707  1.4052
10937SOL    HW234253   3.793   5.601   6.008  1.4180  0.8721 -1.3052
10938SOL     OW34254   4.688   1.790   8.920 -0.2284 -0.1288 -0.4339
10938SOL    HW134255   4.645   1.865   8.878  0.1148  0.9598  1.0725
10938SOL    HW234256   4.728   1.826   8.999  2.0295 -1.4223 -0.8781
10939SOL     OW34257   0.139   7.690   1.982 -0.4437 -0.1727  0.0249
10939SOL    HW134258   0.228   7.659   1.994 -1.2587 -2.0858  1.7353
10939SOL    HW234259   0.133   7.712   1.889  2.0887  1.1301  0.1008
10940SOL     OW34260   3.669   7.817   2.342  0.0645 -0.2829  0.0851
10940SOL    HW134261   3.753   7.777   2.365  0.0612 -0.6746 -0.5764
10940SOL    HW234262   3.627   7.833   2.426  0.7709 -0.1444  0.4231
10941SOL     OW34263   2.694   0.578   8.157  0.2444 -0.6581 -0.5706
10941SOL    HW134264   2.613   0.534   8.133  1.3282 -2.6172 -0.8081
10941SOL    HW234265   2.743   0.513   8.207  1.7902  0.3754 -0.6792
10942SOL     OW34266   1.435   5.399   0.832  0.4080 -0.9473  0.2015
10942SOL    HW134267   1.384   5.361   0.760 -2.0043  1.5597  0.4375
10942SOL    HW234268   1.420   5.339   0.906 -0.7139 -1.2314 -0.2408
10943SOL     OW34269   2.542   1.846  12.133  0.2525 -0.9554  0.5921
10943SOL    HW134270   2.587   1.798  12.064 -1.6465  1.8069 -2.8734
10943SOL    HW234271   2.611   1.894  12.178  1.3221 -0.0966 -1.7952
10944SOL     OW34272   5.231   2.830   2.204  0.0640  0.3290  0.3238
10944SOL    HW134273   5.300   2.791   2.150  0.3006 -0.3129  1.0579
10944SOL    HW234274   5.190   2.755   2.247  0.7231  0.8784  2.0155
10945SOL     OW34275   6.416   5.251   7.964 -0.3059  0.2446  0.4878
10945SOL    HW134276   6.476   5.255   7.889 -0.5759  0.3958  0.2786
10945SOL    HW234277   6.335   5.215   7.928 -0.3807  0.1534  0.7458
10946SOL     OW34278   0.042   0.503   7.579 -0.0123  0.0567 -0.0765
10946SOL    HW134279   0.133   0.504   7.550 -0.1923 -0.5621 -0.6856
10946SOL    HW234280   0.013   0.594   7.573  0.4614  0.1982 -0.2016
10947SOL     OW34281   3.549   6.425   4.425 -0.0968  0.1498  0.4096
10947SOL    HW134282   3.608   6.441   4.351  0.0479  0.4465  0.5850
10947SOL    HW234283   3.608   6.412   4.499 -0.2414 -0.1933  0.4620
10948SOL     OW34284   2.682   3.630   5.654 -0.1194  0.2549  0.2697
10948SOL    HW134285   2.764   3.659   5.694  0.5847 -0.1361 -0.8523
10948SOL    HW234286   2.620   3.627   5.727  1.0330 -0.1378  1.2774
10949SOL     OW34287   5.166   3.314   7.324  0.6195  0.2462  0.5712
10949SOL    HW134288   5.218   3.346   7.398  0.2468  0.1892  0.8624
10949SOL    HW234289   5.081   3.293   7.363  0.8769 -1.1833  0.4017
10950SOL     OW34290   6.023   2.423   1.128  0.3042 -0.1085  0.4188
10950SOL    HW134291   6.041   2.517   1.119 -0.5403  0.3475  2.7347
10950SOL    HW234292   6.081   2.394   1.198  0.0355 -1.1657  0.2222
10951SOL     OW34293   6.136   6.446   9.695 -0.0104 -0.3610  0.0450
10951SOL    HW134294   6.195   6.452   9.620  0.0375 -0.0394  0.1072
10951SOL    HW234295   6.086   6.528   9.693  0.7282  0.1302  0.9735
10952SOL     OW34296   1.880   0.644   2.665  0.4768 -0.0574  0.6927
10952SOL    HW134297   1.919   0.579   2.723 -1.3130 -0.7290  1.2304
10952SOL    HW234298   1.814   0.595   2.615  1.3044  0.7043 -1.2576
10953SOL     OW34299   0.037   2.987   4.374 -0.2698  0.5037 -0.2022
10953SOL    HW134300   0.040   3.017   4.464 -1.2873 -0.0141  0.0087
10953SOL    HW234301   0.018   3.065   4.323 -1.4698  0.4926  0.2069
10954SOL     OW34302   1.671   4.750   5.612  0.4734 -0.3096  0.5952
10954SOL    HW134303   1.665   4.808   5.536 -0.5808 -1.6680 -0.4132
10954SOL    HW234304   1.677   4.809   5.687 -0.2597  1.1011 -0.4053
10955SOL     OW34305   5.871   0.645   1.557 -0.5319  0.2989  0.0491
10955SOL    HW134306   5.927   0.569   1.573 -0.3106  0.4394 -0.0530
10955SOL    HW234307   5.927   0.721   1.573 -0.6758  0.4412 -0.1091
10956SOL     OW34308   7.927   4.386   9.838 -0.2478  0.1229  0.0214
10956SOL    HW134309   8.017   4.367   9.812 -0.3269  0.8670 -0.8428
10956SOL    HW234310   7.895   4.305   9.877  0.7799 -0.1580  0.3017
10957SOL     OW34311   6.308   3.773   7.082 -0.0768 -0.4766  0.2539
10957SOL    HW134312   6.376   3.800   7.020 -0.3493  0.6128  0.4132
10957SOL    HW234313   6.254   3.711   7.034  0.0014 -0.0107 -0.4395
10958SOL     OW34314   5.431   5.233  12.066  0.1790  0.5871 -0.3805
10958SOL    HW134315   5.517   5.274  12.076  0.5809  0.1033 -1.5676
10958SOL    HW234316   5.399   5.266  11.982 -0.3558 -0.0055 -0.4168
10959SOL     OW34317   0.974   7.035   7.421  0.7325 -0.3039  0.2850
10959SOL    HW134318   0.957   7.035   7.327 -0.3559 -0.0570  0.4710
10959SOL    HW234319   1.010   6.947   7.439 -1.1498 -1.1875 -0.0266
10960SOL     OW34320   4.641   0.818   0.290  0.4151 -0.6030 -0.4448
10960SOL    HW134321   4.695   0.896   0.277 -1.4513  0.7401 -0.3480
10960SOL    HW234322   4.658   0.792   0.380  0.8721 -0.1858 -0.4053
10961SOL     OW34323   7.884   2.882   1.827 -0.4286 -0.4749  0.2017
10961SOL    HW134324   7.977   2.865   1.839 -0.4019 -0.6800 -0.2612
10961SOL    HW234325   7.880   2.950   1.760 -0.6104 -0.5050  0.1806
10962SOL     OW34326   4.683   6.303  12.092  0.7118 -0.1533 -0.3394
10962SOL    HW134327   4.620   6.234  12.114 -1.9620  2.1857 -0.0723
10962SOL    HW234328   4.710   6.339  12.177 -0.1592  0.9394 -0.4963
10963SOL     OW34329   4.401   2.356   4.565 -0.1426 -0.1357  0.5000
10963SOL    HW134330   4.324   2.414   4.567  0.1309  0.3603 -1.3761
10963SOL    HW234331   4.375   2.285   4.506  0.6697 -0.2423  0.2695
10964SOL     OW34332   2.674   2.850   5.243  0.4939  0.0245 -0.6133
10964SOL    HW134333   2.723   2.778   5.202  0.7750 -0.4363  0.4904
10964SOL    HW234334   2.633   2.810   5.319  1.6224  1.2858  0.7012
10965SOL     OW34335   4.116   0.982   7.284  0.0954 -0.4354 -0.1498
10965SOL    HW134336   4.165   0.919   7.336  1.1012  0.9406  0.6363
10965SOL    HW234337   4.062   1.029   7.347  2.0293  1.9031 -0.0868
10966SOL     OW34338   0.072   5.666  11.002 -0.2576 -0.1257 -0.2784
10966SOL    HW134339   0.164   5.648  10.984 -0.1509 -1.2025  1.1564
10966SOL    HW234340   0.073   5.732  11.071 -0.5471 -0.5472  0.1338
10967SOL     OW34341   5.547   6.706   3.527  0.0462 -0.1725 -0.1537
10967SOL    HW134342   5.488   6.717   3.601  1.0643 -1.4965  0.9222
10967SOL    HW234343   5.525   6.777   3.467 -0.6676  1.0779  1.5145
10968SOL     OW34344   4.122   5.187   7.706 -0.5335  0.3114  0.2311
10968SOL    HW134345   4.133   5.191   7.800  0.4886  1.5218  0.0815
10968SOL    HW234346   4.165   5.266   7.673 -0.5823 -0.2509 -1.2673
10969SOL     OW34347   1.726   1.590   5.582 -0.0909 -0.2644 -0.2551
10969SOL    HW134348   1.667   1.515   5.574 -1.7829  0.9486  0.2835
10969SOL    HW234349   1.694   1.652   5.516 -1.1765  1.5144  1.8520
10970SOL     OW34350   3.421   6.613  11.828 -0.7226  0.4786 -0.1315
10970SOL    HW134351   3.401   6.684  11.767  1.4036  0.5429 -0.8345
10970SOL    HW234352   3.507   6.635  11.863 -0.4650 -1.2401  0.4182
10971SOL     OW34353   5.780   2.730  10.841  0.1999  0.2698 -0.0247
10971SOL    HW134354   5.702   2.728  10.897  0.0347 -2.4123 -0.2502
10971SOL    HW234355   5.756   2.791  10.771 -1.0368  0.7850  0.7959
10972SOL     OW34356   7.868   3.747   0.743 -0.4322 -0.9001 -0.0590
10972SOL    HW134357   7.961   3.744   0.721 -0.6015  0.6778 -1.1633
10972SOL    HW234358   7.866   3.765   0.837  0.4489  1.8156 -0.4830
10973SOL     OW34359   3.715   3.200   3.657 -0.0927 -0.6600 -0.2832
10973SOL    HW134360   3.650   3.270   3.665 -0.4990 -1.1542  1.1299
10973SOL    HW234361   3.798   3.245   3.641 -0.7417 -0.0179 -1.9963
10974SOL     OW34362   7.401   2.749   1.790  0.2395  0.0399 -0.5369
10974SOL    HW134363   7.365   2.806   1.723 -0.8822  0.2662  0.2315
10974SOL    HW234364   7.470   2.800   1.833 -1.2019  1.1148  0.5930
10975SOL     OW34365   3.821   6.560   6.963  0.2234 -0.1882 -0.0954
10975SOL    HW134366   3.825   6.620   7.038 -0.3902 -0.0337 -0.1776
10975SOL    HW234367   3.903   6.575   6.916 -0.7033  1.9885 -1.1725
10976SOL     OW34368   7.923   3.925   3.773  0.3231 -0.0212 -0.0331
10976SOL    HW134369   7.888   3.994   3.830 -2.8701 -1.4230 -0.0457
10976SOL    HW234370   7.901   3.954   3.685  1.1900  0.0598 -0.2264
10977SOL     OW34371   5.304   6.862   1.138 -0.3482 -0.1503  0.5538
10977SOL    HW134372   5.243   6.890   1.207 -2.2761 -2.9599  0.1661
10977SOL    HW234373   5.372   6.813   1.185 -0.1091  0.3305  0.7110
10978SOL     OW34374   3.150   2.007   7.061 -0.1742  0.3268 -1.0214
10978SOL    HW134375   3.158   2.081   7.001  1.2851  0.8169 -0.2695
10978SOL    HW234376   3.193   2.036   7.141  1.1176 -1.5805 -0.9522
10979SOL     OW34377   5.859   4.517   8.773  0.0686 -0.2335 -0.1180
10979SOL    HW134378   5.804   4.441   8.794  0.8938 -0.7020  0.4013
10979SOL    HW234379   5.848   4.576   8.848 -1.2277  0.5790 -0.8898
10980SOL     OW34380   5.012   3.928  11.634  0.7874  0.2679 -0.3555
10980SOL    HW134381   5.083   3.895  11.688  1.0856 -0.5117 -1.2157
10980SOL    HW234382   4.940   3.941  11.695  1.5932  0.8891  0.4942
10981SOL     OW34383   6.600   4.200  11.891 -0.3069  0.0332  0.4472
10981SOL    HW134384   6.585   4.213  11.984 -0.2981  0.7641  0.3590
10981SOL    HW234385   6.654   4.275  11.865 -1.4895  0.6318 -0.4159
10982SOL     OW34386   3.854   3.120   6.677 -0.5392 -0.0679  0.5701
10982SOL    HW134387   3.782   3.174   6.710 -1.3805 -0.5520 -0.4097
10982SOL    HW234388   3.833   3.031   6.705 -0.1604 -0.1692  0.5419
10983SOL     OW34389   6.578   5.091  12.090  0.0787 -0.0833 -0.4991
10983SOL    HW134390   6.506   5.136  12.048  0.4173 -0.7509 -1.8630
10983SOL    HW234391   6.638   5.160  12.118 -1.4230  0.5337  1.4060
10984SOL     OW34392   4.487   2.778  10.749  0.1525 -0.3899  0.3331
10984SOL    HW134393   4.533   2.737  10.676  1.2046 -1.5142  1.5748
10984SOL    HW234394   4.395   2.778  10.723 -0.0448 -4.1968  0.4464
10985SOL     OW34395   4.086   3.856   1.883 -0.5891 -0.2784 -0.5318
10985SOL    HW134396   4.069   3.927   1.945 -2.1414 -0.1101 -1.1177
10985SOL    HW234397   4.143   3.896   1.817 -0.6766  0.1617 -0.3492
10986SOL     OW34398   5.251   4.515   3.739 -0.2150  0.0152  0.0648
10986SOL    HW134399   5.304   4.454   3.790 -0.1266 -0.0166 -0.0622
10986SOL    HW234400   5.161   4.489   3.757 -0.1864  0.0459  0.2535
10987SOL     OW34401   5.375   7.714   8.378  0.0967 -0.3041 -0.8303
10987SOL    HW134402   5.329   7.635   8.350 -0.6747 -0.1779  0.0084
10987SOL    HW234403   5.305   7.779   8.388  0.0118 -0.7210  2.7511
10988SOL     OW34404   6.019   7.398   4.372 -0.0611  0.0770  0.3969
10988SOL    HW134405   6.003   7.479   4.420  0.5017  0.2291  0.3306
10988SOL    HW234406   6.015   7.424   4.279  0.6155  0.1362  0.3768
10989SOL     OW34407   7.408   1.613   6.828 -0.5298  0.0402 -0.3873
10989SOL    HW134408   7.422   1.531   6.780 -2.2704 -1.1138  0.9307
10989SOL    HW234409   7.457   1.600   6.910  0.9927  1.2675 -1.0653
10990SOL     OW34410   2.255   3.157   3.633 -0.0343 -0.0086 -0.5597
10990SOL    HW134411   2.331   3.110   3.599 -0.6684 -1.1749 -0.4127
10990SOL    HW234412   2.210   3.094   3.689 -0.9781  0.7335 -0.4495
10991SOL     OW34413   2.093   3.031   0.729 -0.1076  0.1708  0.5398
10991SOL    HW134414   2.088   3.094   0.801  0.6648  0.6559  0.1814
10991SOL    HW234415   2.129   3.080   0.656  1.6101 -0.9183  0.5738
10992SOL     OW34416   7.336   1.592   4.348  0.1394  0.1402 -0.2085
10992SOL    HW134417   7.414   1.547   4.381  0.4579  0.5203 -0.4359
10992SOL    HW234418   7.292   1.625   4.427  0.8320  0.9369 -0.1426
10993SOL     OW34419   6.263   5.552   2.528 -0.3257  0.3511 -0.9123
10993SOL    HW134420   6.227   5.470   2.494 -0.7540  0.7571 -1.4469
10993SOL    HW234421   6.207   5.573   2.603  0.5165 -0.4549 -0.0330
10994SOL     OW34422   7.649   1.973   6.904 -0.5816 -0.5383 -0.0050
10994SOL    HW134423   7.653   1.916   6.981 -1.4040 -2.4865 -1.3212
10994SOL    HW234424   7.560   1.962   6.870 -1.3906  2.9914  0.6662
10995SOL     OW34425   7.771   4.971  10.108  0.7259 -0.2262  0.2228
10995SOL    HW134426   7.858   4.958  10.070  1.2367 -0.6614  1.4934
10995SOL    HW234427   7.748   5.061  10.084  0.7514 -0.6580 -1.6002
10996SOL     OW34428   0.852   5.575  10.283  0.3886 -0.4378  0.2973
10996SOL    HW134429   0.851   5.559  10.189  1.8327  1.0683 -0.0047
10996SOL    HW234430   0.937   5.540  10.312  0.2920 -0.1813  0.8989
10997SOL     OW34431   1.770   2.990  10.790  0.2022 -0.0028 -0.1661
10997SOL    HW134432   1.851   2.961  10.747  1.0899  2.4124 -0.2729
10997SOL    HW234433   1.704   2.984  10.721  0.5908 -0.6218 -0.4988
10998SOL     OW34434   5.813   5.618   7.226  0.2702  0.1095  0.2408
10998SOL    HW134435   5.793   5.711   7.225  0.1125  0.0810 -0.5055
10998SOL    HW234436   5.727   5.575   7.228  0.3001 -0.0110 -0.5251
10999SOL     OW34437   2.432   3.607   4.336 -0.2827  0.2639  0.3522
10999SOL    HW134438   2.421   3.583   4.244 -1.7464  1.1999  0.2538
10999SOL    HW234439   2.515   3.655   4.339  0.2961 -0.6670 -0.2778
11000SOL     OW34440   0.233   5.998   9.639 -0.3697  0.6951 -0.3566
11000SOL    HW134441   0.207   6.049   9.716 -2.3539 -1.8176  0.7854
11000SOL    HW234442   0.320   5.964   9.662 -0.2889  1.1961  0.1032
11001SOL     OW34443   5.114   2.438   3.948 -0.3815 -0.7609 -0.2395
11001SOL    HW134444   5.176   2.496   3.905  0.6287 -0.7260  1.1850
11001SOL    HW234445   5.107   2.363   3.890 -0.5154  0.0952 -1.3563
11002SOL     OW34446   0.019   0.202   5.640 -0.0667 -0.3894  0.3798
11002SOL    HW134447  -0.018   0.186   5.727 -0.1059  0.2550  0.4877
11002SOL    HW234448  -0.051   0.180   5.579 -0.3237 -0.0551  0.5496
11003SOL     OW34449   7.909   0.029   0.306  0.1264  0.5250  0.6422
11003SOL    HW134450   7.888   0.052   0.215 -0.5541 -1.2872  0.3029
11003SOL    HW234451   7.844   0.075   0.358  0.6908  1.8067  0.2753
11004SOL     OW34452   2.482   6.279   0.271 -0.1771  0.4209  0.5407
11004SOL    HW134453   2.466   6.227   0.350  0.4524  0.7541  0.8897
11004SOL    HW234454   2.404   6.264   0.217 -0.1492 -0.6285  0.7727
11005SOL     OW34455   4.098   7.779   6.543 -0.4192  0.4304  0.0504
11005SOL    HW134456   4.114   7.693   6.582  2.1676  1.3714  1.3130
11005SOL    HW234457   4.185   7.808   6.513 -1.4107  2.1534 -1.3419
11006SOL     OW34458   3.392   5.130   5.112 -0.0737 -0.0930 -0.4407
11006SOL    HW134459   3.376   5.101   5.022 -1.1975  0.8013 -0.5499
11006SOL    HW234460   3.323   5.089   5.163  0.2038 -0.1163 -0.0836
11007SOL     OW34461   1.640   3.175   8.263 -0.6106  0.4225 -0.5249
11007SOL    HW134462   1.657   3.177   8.357 -2.1737  1.8890 -0.2191
11007SOL    HW234463   1.597   3.258   8.245 -0.7998 -0.0471 -2.4582
11008SOL     OW34464   3.676   0.976   5.729 -0.6268  0.2253 -0.4001
11008SOL    HW134465   3.751   0.920   5.751 -1.5665 -0.6321  0.7343
11008SOL    HW234466   3.710   1.036   5.662  2.0506  2.1074  2.3855
11009SOL     OW34467   1.976   2.335  10.214 -0.3932  0.1362  0.1813
11009SOL    HW134468   2.041   2.274  10.248  1.3284  2.0021  0.4406
11009SOL    HW234469   1.910   2.340  10.283 -0.7232 -1.6125  0.0240
11010SOL     OW34470   3.003   1.988   1.857 -0.0505  0.5343  0.0859
11010SOL    HW134471   2.952   2.012   1.780  0.4141 -1.4785 -0.9238
11010SOL    HW234472   3.074   2.052   1.860 -0.5204  1.1134 -0.6961
11011SOL     OW34473   2.568   1.087   3.152  0.1385  0.0628 -0.4570
11011SOL    HW134474   2.622   1.130   3.086  0.6183  1.3094  0.7152
11011SOL    HW234475   2.619   1.010   3.178  1.7190  1.5562  1.0846
11012SOL     OW34476   1.923   2.260   0.939  0.3687  0.5489  0.5092
11012SOL    HW134477   1.901   2.240   0.848 -0.4114  0.4182  0.7183
11012SOL    HW234478   2.019   2.267   0.940  0.2971  1.9288 -0.5920
11013SOL     OW34479   2.348   4.106   9.316  0.2756 -0.5316 -0.1905
11013SOL    HW134480   2.319   4.121   9.226 -1.0617 -1.1736  0.0939
11013SOL    HW234481   2.425   4.161   9.327  0.4315 -0.4143 -1.7114
11014SOL     OW34482   5.242   6.098   0.493  0.3935  0.3434 -0.6691
11014SOL    HW134483   5.168   6.114   0.551  1.1505 -1.2440  0.8285
11014SOL    HW234484   5.318   6.100   0.550  1.2297 -0.7282 -1.6930
11015SOL     OW34485   1.186   5.640  10.053 -0.2209 -0.8499  0.4112
11015SOL    HW134486   1.228   5.635   9.968  0.2321  2.0767  0.3507
11015SOL    HW234487   1.092   5.641  10.033 -0.1207  1.6708 -0.3380
11016SOL     OW34488   3.336   1.821   0.880  0.3914  0.4072 -1.0628
11016SOL    HW134489   3.289   1.902   0.861 -0.0098  0.3554 -0.3336
11016SOL    HW234490   3.268   1.755   0.891  0.6078  0.3657  0.1649
11017SOL     OW34491   7.905   2.406   4.168  0.9514 -0.4854  0.7572
11017SOL    HW134492   7.965   2.442   4.104  0.8638  0.3416  1.1291
11017SOL    HW234493   7.882   2.480   4.225  1.4479 -1.2924  2.0674
11018SOL     OW34494   6.220   4.148   6.680 -0.4774  0.5682 -0.2287
11018SOL    HW134495   6.277   4.193   6.743  1.8299 -1.8310 -0.4232
11018SOL    HW234496   6.263   4.162   6.595 -0.4347 -0.8142 -0.4572
11019SOL     OW34497   7.843   0.430  11.855 -0.3036 -0.7662  0.2640
11019SOL    HW134498   7.930   0.443  11.816 -0.4248  0.9263  0.4557
11019SOL    HW234499   7.858   0.372  11.929  0.7198 -0.3363  0.4134
11020SOL     OW34500   7.149   3.134   8.035  0.5900 -0.3443  0.3128
11020SOL    HW134501   7.175   3.225   8.022  0.1871 -0.4036 -1.1329
11020SOL    HW234502   7.230   3.088   8.057  1.2644 -0.0593 -1.4473
11021SOL     OW34503   6.511   2.653   7.245 -0.8272  0.2877  0.3148
11021SOL    HW134504   6.593   2.620   7.280 -0.5055  0.8429  0.1052
11021SOL    HW234505   6.490   2.729   7.300  0.4293  2.0683 -1.4885
11022SOL     OW34506   7.927   5.303   1.656  0.6840 -0.3632  0.5349
11022SOL    HW134507   8.001   5.244   1.642  1.1989  0.5271 -0.6771
11022SOL    HW234508   7.895   5.323   1.569 -1.7664 -1.6079  1.0560
11023SOL     OW34509   2.970   6.437   0.108 -0.4362  0.3524  0.2148
11023SOL    HW134510   3.030   6.363   0.123 -1.0728  0.4626  4.7770
11023SOL    HW234511   2.883   6.397   0.106 -0.5958  0.7040 -1.2209
11024SOL     OW34512   7.372   4.463   2.764 -0.5331 -0.3178 -0.2101
11024SOL    HW134513   7.289   4.435   2.725 -0.9264 -0.4561  0.6992
11024SOL    HW234514   7.439   4.419   2.712 -0.9608  0.8794 -1.8277
11025SOL     OW34515   7.972   0.907   2.765  0.6618 -0.0908 -0.0760
11025SOL    HW134516   8.039   0.856   2.811  0.1651 -0.3450  0.3652
11025SOL    HW234517   7.987   0.997   2.795  0.0610 -0.3190  0.9291
11026SOL     OW34518   2.690   1.654   9.480 -0.0809  0.3539 -0.1886
11026SOL    HW134519   2.650   1.567   9.486  0.5917  0.0383 -0.2446
11026SOL    HW234520   2.650   1.704   9.551  0.4919 -0.3934  0.6764
11027SOL     OW34521   5.997   5.925   3.738 -0.1314  0.4413  0.3464
11027SOL    HW134522   5.903   5.942   3.747 -0.0901  0.7503  0.2114
11027SOL    HW234523   6.002   5.834   3.709 -0.3673  0.2570  0.8531
11028SOL     OW34524   5.226   5.566   0.978  0.0401 -0.2382  0.0767
11028SOL    HW134525   5.262   5.644   0.935  2.0208 -0.0196  1.9631
11028SOL    HW234526   5.157   5.600   1.034  0.4345  0.0820  0.3761
11029SOL     OW34527   0.293   3.841   9.743 -0.6096  0.0536 -0.5738
11029SOL    HW134528   0.366   3.822   9.684  0.8268  1.0777  0.7971
11029SOL    HW234529   0.332   3.840   9.831 -2.0939  1.3123  0.1501
11030SOL     OW34530   4.167   4.243   1.045 -0.1984  0.0502 -0.1724
11030SOL    HW134531   4.160   4.258   0.951  1.6139  0.2432 -0.3025
11030SOL    HW234532   4.200   4.153   1.053 -1.8076 -0.5420  0.3604
11031SOL     OW34533   0.652   6.146   7.949 -0.1279 -0.3289 -0.1114
11031SOL    HW134534   0.700   6.147   8.032 -1.2916 -1.2134  0.6138
11031SOL    HW234535   0.569   6.102   7.970 -0.4307 -0.6142 -1.7618
11032SOL     OW34536   2.373   2.178  12.391  0.4297 -0.2787 -0.0101
11032SOL    HW134537   2.459   2.221  12.395  0.7069 -0.8459  0.2836
11032SOL    HW234538   2.372   2.119  12.466 -0.5305  0.2623  0.4227
11033SOL     OW34539   1.159   0.969   5.244  0.5878 -0.1186  0.0323
11033SOL    HW134540   1.193   0.911   5.176 -0.6699 -1.6723  0.6525
11033SOL    HW234541   1.107   1.034   5.196 -0.8051 -1.5662 -0.4851
11034SOL     OW34542   1.139   7.893   4.926 -0.7576 -0.1322  0.0688
11034SOL    HW134543   1.177   7.981   4.920  2.3904 -1.3997 -0.3735
11034SOL    HW234544   1.100   7.877   4.840  1.6988 -0.3777 -1.0646
11035SOL     OW34545   7.952   5.504   4.860  0.1739 -0.3538  0.2991
11035SOL    HW134546   8.047   5.494   4.867 -0.0094 -1.1217  2.3255
11035SOL    HW234547   7.931   5.578   4.918 -0.4284  0.2244 -0.6181
11036SOL     OW34548   0.831   7.679   5.325  0.4733 -0.2993  0.0299
11036SOL    HW134549   0.874   7.718   5.249  1.8072  0.7741  1.2664
11036SOL    HW234550   0.866   7.728   5.399 -0.8182 -1.2851  1.3403
11037SOL     OW34551   7.522   6.252  11.887  0.3420 -0.4755  0.3190
11037SOL    HW134552   7.436   6.215  11.869  1.1414 -2.1559 -0.1789
11037SOL    HW234553   7.536   6.316  11.817 -1.2702  1.2932  1.4900
11038SOL     OW34554   5.997   3.091  11.542 -0.1223 -0.5533  0.0428
11038SOL    HW134555   6.074   3.114  11.595  0.8633 -0.3981 -1.4147
11038SOL    HW234556   6.033   3.059  11.460 -1.5983 -2.3769  0.0594
11039SOL     OW34557   6.029   7.961   5.123 -0.1155  0.4884  0.5338
11039SOL    HW134558   6.068   8.043   5.091  0.5034 -0.0105 -0.0002
11039SOL    HW234559   5.959   7.942   5.061  0.6447 -0.1182 -0.1513
11040SOL     OW34560   4.478   0.300   7.415 -0.1085 -0.0644  0.2765
11040SOL    HW134561   4.497   0.207   7.426 -1.5923 -0.6703 -1.6061
11040SOL    HW234562   4.563   0.341   7.400  0.5506 -1.1420  0.9930
11041SOL     OW34563   3.698   2.044   6.417  0.7130  0.2484  0.3395
11041SOL    HW134564   3.623   1.986   6.425  1.7202 -1.4070 -1.2850
11041SOL    HW234565   3.739   2.043   6.504  0.0982 -0.6063  0.6333
11042SOL     OW34566   0.820   7.486   7.930 -0.3219  0.2268  0.6235
11042SOL    HW134567   0.887   7.486   7.999 -0.7563  1.0021  1.0561
11042SOL    HW234568   0.755   7.550   7.959 -1.2056 -0.4379  0.1520
11043SOL     OW34569   0.044   3.573  10.957  0.1100  0.4823  0.3628
11043SOL    HW134570   0.044   3.481  10.981 -0.1022  0.0966 -1.0715
11043SOL    HW234571   0.118   3.582  10.897 -2.2040  0.3430 -2.7151
11044SOL     OW34572   5.490   1.783   3.997 -0.3318  0.1827  0.3938
11044SOL    HW134573   5.452   1.786   3.910  0.0092 -0.0384  0.2303
11044SOL    HW234574   5.416   1.775   4.056 -0.5614  0.2744  0.1187
11045SOL     OW34575   1.154   0.006  10.617  0.1661 -0.0057 -0.1731
11045SOL    HW134576   1.172   0.018  10.710  1.1674 -2.0977 -0.0300
11045SOL    HW234577   1.160   0.094  10.580  1.3456  0.6728  1.4871
11046SOL     OW34578   3.746   5.147   3.821  0.5238 -0.0457  0.0957
11046SOL    HW134579   3.738   5.052   3.832  0.4495 -0.1275 -0.6283
11046SOL    HW234580   3.660   5.181   3.844 -0.1985 -0.3839 -1.9379
11047SOL     OW34581   2.748   3.981   3.364 -0.5035 -0.5181  0.1416
11047SOL    HW134582   2.702   4.026   3.293 -1.7140 -0.3534  0.9743
11047SOL    HW234583   2.753   3.890   3.336 -2.3294 -0.7645  0.4244
11048SOL     OW34584   3.726   5.607   7.274 -0.1950  0.2497  0.2920
11048SOL    HW134585   3.730   5.512   7.279  1.6762  0.1917 -1.1833
11048SOL    HW234586   3.791   5.637   7.337 -0.0993  0.5112  0.0708
11049SOL     OW34587   0.883   5.210  11.343  0.1091  0.2246 -0.4551
11049SOL    HW134588   0.933   5.289  11.360  0.1798  0.0062  0.4144
11049SOL    HW234589   0.909   5.149  11.412  0.0076 -0.5393 -1.0647
11050SOL     OW34590   3.943   1.892   0.523 -0.0743  0.0933 -0.0624
11050SOL    HW134591   3.910   1.960   0.582 -0.6871 -1.5316  1.5776
11050SOL    HW234592   3.870   1.830   0.515  0.8548 -0.9704 -0.5317
11051SOL     OW34593   2.543   6.947   0.444 -0.2103  0.1863  0.2098
11051SOL    HW134594   2.524   6.909   0.358  0.1371 -0.3687  0.3670
11051SOL    HW234595   2.494   6.893   0.505 -0.1260  0.3176  0.3941
11052SOL     OW34596   0.903   1.786   9.363 -0.0545 -0.1062  0.3674
11052SOL    HW134597   0.997   1.772   9.377 -0.0418  0.2259  0.6389
11052SOL    HW234598   0.867   1.788   9.452 -0.6011 -2.0344  0.2483
11053SOL     OW34599   0.224   6.125   0.683 -0.1361  0.0897 -0.0259
11053SOL    HW134600   0.255   6.056   0.624  2.5567  0.5678  0.6767
11053SOL    HW234601   0.234   6.206   0.633  1.5314  0.4267  0.7720
11054SOL     OW34602   7.944   3.844   4.185 -0.2037 -0.6356  0.1800
11054SOL    HW134603   7.947   3.836   4.281 -1.8920  1.4620  0.5138
11054SOL    HW234604   7.868   3.793   4.159 -0.0116 -0.8365  0.0133
11055SOL     OW34605   3.247   6.734   9.368  0.2821 -0.1774 -0.1303
11055SOL    HW134606   3.288   6.674   9.432 -0.9023 -1.7216 -0.7460
11055SOL    HW234607   3.310   6.738   9.296  0.6355 -0.2074  0.1698
11056SOL     OW34608   0.840   3.858   3.865  0.5226  0.0936  0.5562
11056SOL    HW134609   0.831   3.827   3.955 -1.2784  0.9236  0.6985
11056SOL    HW234610   0.777   3.806   3.815  1.5033 -0.3600 -0.2558
11057SOL     OW34611   2.340   0.442  12.380  0.2104 -0.2889 -0.2892
11057SOL    HW134612   2.333   0.535  12.357  0.7969 -0.4366 -1.1240
11057SOL    HW234613   2.285   0.398  12.316  0.7375 -0.5965 -0.5361
11058SOL     OW34614   6.825   2.947   3.254  0.3857  0.1224 -0.1797
11058SOL    HW134615   6.778   3.029   3.233 -1.0835 -0.7663 -0.5287
11058SOL    HW234616   6.855   2.915   3.168 -0.6852 -0.6369 -0.2896
11059SOL     OW34617   4.588   5.626   5.637  0.2533 -0.4561 -0.2732
11059SOL    HW134618   4.521   5.579   5.687 -0.5261  0.0481 -0.8055
11059SOL    HW234619   4.618   5.695   5.696  1.1910 -1.4057  0.4038
11060SOL     OW34620   0.090   2.859   7.705 -0.7310  0.7452 -0.6690
11060SOL    HW134621   0.064   2.842   7.614 -1.2764 -0.9694 -0.2385
11060SOL    HW234622   0.078   2.953   7.716 -2.4650  0.7229 -1.8474
11061SOL     OW34623   0.608   4.342   9.933 -0.5938 -0.0035  0.0326
11061SOL    HW134624   0.554   4.282   9.883  0.3306 -1.5123  0.7537
11061SOL    HW234625   0.570   4.343  10.021  0.0959 -0.5049  0.3496
11062SOL     OW34626   3.378   5.753  10.152 -0.6203 -0.4718 -0.3593
11062SOL    HW134627   3.369   5.668  10.110  0.5397 -0.7465 -0.0863
11062SOL    HW234628   3.445   5.740  10.219 -0.0479  0.7745 -0.6469
11063SOL     OW34629   0.121   3.906  11.422  0.0335  0.2307 -0.1361
11063SOL    HW134630   0.031   3.915  11.391 -0.4635  0.0966  1.1894
11063SOL    HW234631   0.135   3.983  11.478  0.2819 -0.4255  0.7211
11064SOL     OW34632   6.553   0.442   5.880 -0.0866  0.2097  0.3173
11064SOL    HW134633   6.535   0.510   5.945 -1.4222  0.5912 -0.4004
11064SOL    HW234634   6.638   0.466   5.844  0.5385  0.1506  1.7083
11065SOL     OW34635   1.047   3.262   9.953  0.0464  0.4288 -0.5271
11065SOL    HW134636   1.002   3.205  10.016  0.0808  0.2820 -0.6345
11065SOL    HW234637   1.031   3.221   9.868  1.9611 -0.7175 -0.4024
11066SOL     OW34638   0.193   7.558   7.374 -0.4983 -0.8745  0.0573
11066SOL    HW134639   0.102   7.584   7.362 -0.0732  1.5976  1.5444
11066SOL    HW234640   0.208   7.566   7.468  1.6615  0.3672 -0.3284
11067SOL     OW34641   1.475   6.250   0.261 -0.3385 -0.2781  0.3987
11067SOL    HW134642   1.530   6.328   0.270 -0.3872 -0.2811  0.7117
11067SOL    HW234643   1.490   6.221   0.171  2.0018 -1.6580  1.1633
11068SOL     OW34644   0.054   2.130  11.366  0.2761  0.2198 -0.4973
11068SOL    HW134645  -0.014   2.078  11.409  2.2591 -0.6330  1.8689
11068SOL    HW234646   0.050   2.215  11.410 -0.1064  0.6263 -1.2987
11069SOL     OW34647   1.871   2.392  11.363 -0.0083  0.3569  0.0103
11069SOL    HW134648   1.854   2.343  11.443 -0.3995 -3.1643 -2.0204
11069SOL    HW234649   1.796   2.451  11.354 -0.5587 -0.0504  1.5931
11070SOL     OW34650   7.443   7.579  12.317  0.0024 -0.0971 -0.0297
11070SOL    HW134651   7.476   7.564  12.406 -0.6138  2.4754  0.7055
11070SOL    HW234652   7.511   7.542  12.260  0.3181 -1.9813  1.4747
11071SOL     OW34653   2.407   2.084  10.041 -0.0761 -0.3039 -0.1976
11071SOL    HW134654   2.329   2.060  10.091 -0.5501  2.3663  0.5393
11071SOL    HW234655   2.442   2.161  10.087  0.9397  0.7051 -2.4952
11072SOL     OW34656   0.564   3.598   6.874  0.2699 -0.6782  0.3350
11072SOL    HW134657   0.658   3.579   6.873  0.2676 -0.8661  1.5694
11072SOL    HW234658   0.533   3.570   6.789  1.4792  0.1864 -0.4369
11073SOL     OW34659   4.862   5.431   0.940  0.2221 -0.0734 -0.4792
11073SOL    HW134660   4.793   5.373   0.970  0.6835 -0.1319  0.5281
11073SOL    HW234661   4.917   5.377   0.885  0.1032 -0.3357 -0.3412
11074SOL     OW34662   4.707   5.514  12.371 -0.5735 -0.6925  0.3158
11074SOL    HW134663   4.731   5.482  12.457 -1.1680  2.0721  1.6103
11074SOL    HW234664   4.784   5.563  12.341 -0.2745 -1.8304 -0.8955
11075SOL     OW34665   0.771   0.389   7.838 -0.3353  0.1214  0.1593
11075SOL    HW134666   0.838   0.381   7.770 -0.2227 -2.9892  0.4911
11075SOL    HW234667   0.763   0.483   7.853  1.7741  0.7432 -2.0166
11076SOL     OW34668   0.523   6.332   6.221  0.1104  0.1415  0.1309
11076SOL    HW134669   0.468   6.353   6.146 -2.2700  0.3730  1.8302
11076SOL    HW234670   0.503   6.240   6.241  2.3706 -0.6121 -0.7555
11077SOL     OW34671   3.238   3.599   0.767 -0.4503 -0.0938 -0.1479
11077SOL    HW134672   3.296   3.529   0.795  0.5135  0.3273 -1.0262
11077SOL    HW234673   3.159   3.588   0.820 -0.1233 -1.5296  0.0614
11078SOL     OW34674   4.877   0.644  11.557  0.1426  0.0630  0.1175
11078SOL    HW134675   4.941   0.578  11.584 -1.0769 -1.9131 -1.4685
11078SOL    HW234676   4.807   0.636  11.622  0.9386  1.4261  1.1986
11079SOL     OW34677   0.592   6.151  12.471 -0.4338 -0.1565  0.3435
11079SOL    HW134678   0.606   6.056  12.480 -1.3050 -0.3682 -0.2772
11079SOL    HW234679   0.679   6.188  12.463 -0.0843 -0.9378  0.4340
11080SOL     OW34680   5.275   3.930  12.426 -0.0499 -0.1993 -0.4292
11080SOL    HW134681   5.331   3.861  12.462  0.2763  0.2922  0.0271
11080SOL    HW234682   5.202   3.936  12.487  0.4862  0.6119  0.1620
11081SOL     OW34683   3.857   2.297  10.866 -0.0579 -0.1702 -0.0021
11081SOL    HW134684   3.807   2.377  10.881 -0.0258  0.1300 -1.3288
11081SOL    HW234685   3.894   2.308  10.778  0.4764 -1.3656  0.0493
11082SOL     OW34686   3.198   6.627   8.385  0.1136 -0.3392 -0.5470
11082SOL    HW134687   3.169   6.712   8.350  1.6403  0.9143  1.0390
11082SOL    HW234688   3.117   6.578   8.399 -1.0720  1.7977  0.7703
11083SOL     OW34689   3.415   4.689   8.135 -0.2121 -0.2687  0.1648
11083SOL    HW134690   3.368   4.670   8.054 -0.1208  0.5760 -0.0992
11083SOL    HW234691   3.488   4.746   8.108  1.3867 -2.0743  0.4488
11084SOL     OW34692   1.682   4.869   5.392  0.1057 -0.1195  0.2812
11084SOL    HW134693   1.590   4.887   5.377 -0.0398 -0.0507  1.1784
11084SOL    HW234694   1.727   4.951   5.371  0.0474 -0.3562 -0.8052
11085SOL     OW34695   5.003   5.898   2.305  0.0529  0.0495  0.2057
11085SOL    HW134696   5.002   5.958   2.230  0.1428  1.6899  1.4502
11085SOL    HW234697   5.095   5.871   2.312 -0.1923 -1.2094 -1.0661
11086SOL     OW34698   6.035   0.225   8.430 -0.1357 -0.2266  0.5256
11086SOL    HW134699   6.049   0.317   8.411  1.4309 -0.3388  0.9506
11086SOL    HW234700   6.024   0.221   8.525 -1.1661 -0.3755  0.4024
11087SOL     OW34701   3.887   0.487   0.942 -0.1434 -0.1609  0.5583
11087SOL    HW134702   3.982   0.475   0.947  0.0766  1.3171  0.3386
11087SOL    HW234703   3.867   0.546   1.015 -0.9653 -0.7848  0.8532
11088SOL     OW34704   0.566   6.288   5.749  0.0761  0.8502  0.1790
11088SOL    HW134705   0.622   6.343   5.694 -0.1058  0.8874  0.0316
11088SOL    HW234706   0.544   6.214   5.694 -0.5004  1.1252  0.0378
11089SOL     OW34707   6.770   5.661   7.532 -0.1436  0.3309 -0.4448
11089SOL    HW134708   6.739   5.658   7.441 -1.9431  1.1532  0.0967
11089SOL    HW234709   6.690   5.659   7.585  0.8624 -0.0048  1.1378
11090SOL     OW34710   1.779   1.540   6.379  0.0576 -0.0433 -0.0463
11090SOL    HW134711   1.834   1.617   6.366  0.8247 -0.9484 -2.8036
11090SOL    HW234712   1.835   1.479   6.428 -0.0865  0.6012  0.9596
11091SOL     OW34713   5.627   3.844   7.899  0.9956  0.0123  0.0101
11091SOL    HW134714   5.567   3.790   7.950  1.6174 -1.4603 -0.7711
11091SOL    HW234715   5.713   3.825   7.936  1.3478 -0.3880 -0.9812
11092SOL     OW34716   0.140   0.598   3.243  0.3138  0.7288  0.1199
11092SOL    HW134717   0.068   0.630   3.298 -0.8238 -0.0168 -0.8676
11092SOL    HW234718   0.191   0.676   3.223 -1.1020  1.5669 -0.3925
11093SOL     OW34719   0.154   5.956   8.434 -0.0778 -0.4074  0.4805
11093SOL    HW134720   0.098   6.004   8.372 -0.5022  0.3320  1.3917
11093SOL    HW234721   0.243   5.976   8.406 -0.2428  1.1586  0.9810
11094SOL     OW34722   5.645   2.182   5.225 -0.2255  0.3947  0.0588
11094SOL    HW134723   5.725   2.132   5.239  0.6478  1.0336 -2.2102
11094SOL    HW234724   5.641   2.243   5.299  0.7579 -0.4182  0.7968
11095SOL     OW34725   1.320   7.543   4.344 -0.0916  0.1997 -0.4672
11095SOL    HW134726   1.291   7.535   4.435 -2.7869 -0.0775 -1.2615
11095SOL    HW234727   1.415   7.548   4.349 -0.2065  0.9601  2.4098
11096SOL     OW34728   3.016   3.221   9.289  0.7842  0.3511  0.3498
11096SOL    HW134729   2.972   3.273   9.356  2.1472 -0.8732  2.3326
11096SOL    HW234730   3.091   3.182   9.335  1.0689 -1.5782 -1.5846
11097SOL     OW34731   6.329   2.402  10.712 -0.2103  0.6175  0.3542
11097SOL    HW134732   6.375   2.341  10.769  1.2071  1.9439  0.7059
11097SOL    HW234733   6.242   2.363  10.699  0.1933 -0.7805  1.6345
11098SOL     OW34734   6.309   3.314   7.668 -0.0697  0.1239 -0.0242
11098SOL    HW134735   6.380   3.318   7.732 -0.7145  1.0187  0.6653
11098SOL    HW234736   6.236   3.361   7.710 -1.6026 -2.0598 -0.0492
11099SOL     OW34737   6.267   4.969  10.637  0.1694 -0.3561 -0.1265
11099SOL    HW134738   6.295   5.060  10.625 -0.3029  0.1969  2.3011
11099SOL    HW234739   6.309   4.921  10.565  0.9160  1.6684 -1.1286
11100SOL     OW34740   7.270   4.257   5.998  0.0371 -0.5282  0.3505
11100SOL    HW134741   7.191   4.256   5.944 -0.5522 -3.6361  1.0874
11100SOL    HW234742   7.326   4.190   5.960  1.2703 -0.1025  1.3469
11101SOL     OW34743   7.700   3.505   0.828 -0.2313 -0.7676  0.2639
11101SOL    HW134744   7.710   3.595   0.859  1.1808 -1.2031  1.1592
11101SOL    HW234745   7.778   3.459   0.860 -1.2716 -2.4932  0.4665
11102SOL     OW34746   4.256   2.492  12.312 -0.1676 -0.3236  0.0409
11102SOL    HW134747   4.166   2.525  12.323  0.1187  0.2875  0.5754
11102SOL    HW234748   4.311   2.571  12.314  0.3482 -0.6499 -0.7537
11103SOL     OW34749   0.357   5.234   9.457  0.4860 -0.3702 -0.0967
11103SOL    HW134750   0.431   5.292   9.440  0.9011 -0.9228 -0.2274
11103SOL    HW234751   0.340   5.244   9.551  1.8725 -1.5327  0.3239
11104SOL     OW34752   6.627   6.863   7.616  0.1342  0.1600  0.2926
11104SOL    HW134753   6.694   6.808   7.575  0.5590 -0.4536  1.7325
11104SOL    HW234754   6.630   6.945   7.567  1.2272 -0.2139 -0.3186
11105SOL     OW34755   1.227   5.106   4.433  0.3916  0.3981 -0.1422
11105SOL    HW134756   1.166   5.073   4.368 -0.2927  1.1770  0.0961
11105SOL    HW234757   1.233   5.035   4.498  0.0146  0.1849 -0.3380
11106SOL     OW34758   4.662   5.586   6.444 -0.2503 -0.5171  0.0214
11106SOL    HW134759   4.694   5.613   6.358 -3.6660 -0.5920 -1.4362
11106SOL    HW234760   4.578   5.542   6.426  1.0998 -4.9967  2.9764
11107SOL     OW34761   5.972   1.586  10.521 -0.3771  0.1914 -0.3241
11107SOL    HW134762   6.043   1.597  10.585  2.1359  0.4668 -2.9592
11107SOL    HW234763   5.983   1.658  10.460 -0.5973 -1.7775 -2.8399
11108SOL     OW34764   3.302   5.100   6.932  0.2105 -0.2213 -0.2556
11108SOL    HW134765   3.321   5.008   6.951 -0.1086 -0.5769 -1.5315
11108SOL    HW234766   3.385   5.145   6.944  0.4918 -0.7665 -0.1214
11109SOL     OW34767   3.504   5.098   1.064 -0.0891  0.0074 -0.3662
11109SOL    HW134768   3.491   5.105   1.158  1.9931  2.6457 -0.1378
11109SOL    HW234769   3.429   5.145   1.026  0.2546  0.9808  0.1247
11110SOL     OW34770   7.825   3.588  11.396  0.1332  0.3254  0.4437
11110SOL    HW134771   7.910   3.546  11.381  0.2047  0.4908  0.3933
11110SOL    HW234772   7.781   3.584  11.311  0.6511  1.5181  0.0992
11111SOL     OW34773   4.746   4.576   3.617  0.1998 -0.4023  0.4829
11111SOL    HW134774   4.814   4.608   3.676  3.5497  1.2170 -3.7267
11111SOL    HW234775   4.792   4.521   3.554 -2.8993 -1.3471 -1.2036
11112SOL     OW34776   1.669   5.262   8.348  0.2961 -0.3475 -0.2776
11112SOL    HW134777   1.748   5.305   8.381  1.3327 -1.1063 -1.6831
11112SOL    HW234778   1.625   5.329   8.297 -1.0605  0.6868  2.0931
11113SOL     OW34779   6.806   0.038  12.191 -0.3646 -0.8691  0.3276
11113SOL    HW134780   6.803   0.044  12.287 -0.1387  0.9091  0.2497
11113SOL    HW234781   6.846   0.120  12.163 -0.5586 -1.3043 -1.3151
11114SOL     OW34782   0.972   2.881   5.829  0.9177  0.2583 -0.0441
11114SOL    HW134783   1.044   2.825   5.857 -0.3775 -1.1667  0.5705
11114SOL    HW234784   0.920   2.894   5.908 -0.1780  0.2260 -0.7465
11115SOL     OW34785   0.053   0.826   4.176  0.0164  0.3393 -0.2072
11115SOL    HW134786   0.141   0.855   4.201  0.0527  0.3363 -0.3337
11115SOL    HW234787   0.013   0.903   4.134 -0.0363  0.3362 -0.1630
11116SOL     OW34788   4.533   2.610   9.188  0.1694  0.0386  0.5781
11116SOL    HW134789   4.441   2.631   9.175 -0.1217 -0.6383  1.4035
11116SOL    HW234790   4.571   2.689   9.226 -0.5922 -0.3939  2.3259
11117SOL     OW34791   3.274   0.551   4.716  0.3942  0.1682  0.7362
11117SOL    HW134792   3.317   0.469   4.694 -0.4078 -0.0973  0.1178
11117SOL    HW234793   3.332   0.619   4.681  0.2432 -0.1896 -0.2300
11118SOL     OW34794   0.563   4.107   3.977 -0.1034 -0.2222  0.2152
11118SOL    HW134795   0.616   4.059   4.040  0.1222  0.5203  0.6139
11118SOL    HW234796   0.561   4.053   3.899 -1.6041 -1.8882  1.3249
11119SOL     OW34797   6.025   0.562   3.366  0.7099 -1.0293 -0.0764
11119SOL    HW134798   5.966   0.531   3.296  0.8582 -1.4163 -0.0338
11119SOL    HW234799   6.034   0.656   3.349 -1.1973 -0.6239  0.8508
11120SOL     OW34800   6.942   4.350   3.405  0.4917  0.1050 -0.0673
11120SOL    HW134801   6.922   4.281   3.467 -0.7522  0.2979 -0.2342
11120SOL    HW234802   6.943   4.430   3.457 -1.1094  0.3402 -0.3627
11121SOL     OW34803   7.893   3.302  11.997 -0.0814  0.9507 -0.5511
11121SOL    HW134804   7.963   3.312  12.062  0.0113  1.1640 -0.6837
11121SOL    HW234805   7.820   3.353  12.031 -1.0799 -1.2691  0.8589
11122SOL     OW34806   1.336   1.439   9.192 -0.0653 -0.0011 -0.4251
11122SOL    HW134807   1.316   1.496   9.118 -0.8530  1.8925  1.1428
11122SOL    HW234808   1.420   1.471   9.225  0.4155 -1.0101 -0.6340
11123SOL     OW34809   1.779   1.665   0.097  0.3002  0.8179 -0.0483
11123SOL    HW134810   1.799   1.660   0.004 -1.8325  2.9283 -0.7358
11123SOL    HW234811   1.833   1.738   0.129  1.7447 -0.5022  0.6525
11124SOL     OW34812   2.729   7.667   9.057  0.0722  0.1299  0.3072
11124SOL    HW134813   2.811   7.718   9.060  0.4775 -0.1485 -2.6307
11124SOL    HW234814   2.758   7.576   9.059 -0.0774  0.0269 -0.9710
11125SOL     OW34815   2.218   1.168   6.038 -0.1816 -0.2901  0.1871
11125SOL    HW134816   2.280   1.103   6.006 -1.1436 -1.8577  1.4186
11125SOL    HW234817   2.273   1.238   6.074  0.8650 -0.1549 -1.5446
11126SOL     OW34818   6.933   5.780   8.299 -0.0402  0.0518  0.8030
11126SOL    HW134819   6.985   5.860   8.295 -0.3340  0.2187 -1.6936
11126SOL    HW234820   6.993   5.711   8.269 -0.0711 -0.5281  2.0064
11127SOL     OW34821   0.608   6.285   2.906  0.0714 -0.3045 -0.3177
11127SOL    HW134822   0.655   6.201   2.904 -0.3367 -0.5200 -0.9191
11127SOL    HW234823   0.544   6.279   2.835  0.5440  0.8247 -0.8506
11128SOL     OW34824   3.185   3.311  11.112  0.2948  0.1411  0.0402
11128SOL    HW134825   3.158   3.362  11.188 -1.2708  0.1660 -0.4899
11128SOL    HW234826   3.206   3.378  11.046 -1.0734  0.1489 -0.4252
11129SOL     OW34827   1.091   6.217   9.812  0.4442 -0.0727 -0.2003
11129SOL    HW134828   1.146   6.291   9.836 -0.5786  0.6122  0.0979
11129SOL    HW234829   1.148   6.141   9.822  0.4412  0.2411  3.4456
11130SOL     OW34830   2.491   1.230   5.290 -0.3574  0.1700  0.7170
11130SOL    HW134831   2.537   1.168   5.346  0.3249 -0.3281 -0.3846
11130SOL    HW234832   2.398   1.213   5.307 -0.2499 -2.3990 -0.8350
11131SOL     OW34833   2.375   2.802   2.011  0.3000 -0.0305  0.0476
11131SOL    HW134834   2.426   2.794   2.092  1.1961  0.5064 -0.4591
11131SOL    HW234835   2.284   2.808   2.041  0.7498  2.2628  1.1585
11132SOL     OW34836   3.678   1.038   8.899  0.0752  0.0352  0.2898
11132SOL    HW134837   3.690   1.075   8.812 -1.7752  0.2438  0.0823
11132SOL    HW234838   3.736   0.961   8.900  0.6328  0.4111 -0.8571
11133SOL     OW34839   2.433   6.862   0.167 -0.2143 -0.2752  0.0064
11133SOL    HW134840   2.415   6.925   0.097 -0.8448 -1.5528 -1.0386
11133SOL    HW234841   2.459   6.782   0.120 -1.6568 -1.4774  1.1813
11134SOL     OW34842   3.653   0.403   0.514 -0.1134  0.1535 -0.6825
11134SOL    HW134843   3.718   0.351   0.467  1.2239 -0.5212  1.7452
11134SOL    HW234844   3.698   0.485   0.534 -0.2073 -0.0426  0.4096
11135SOL     OW34845   6.010   2.685  12.312  0.2902  0.1979  0.3017
11135SOL    HW134846   6.039   2.603  12.272  0.4747 -0.0549  0.9325
11135SOL    HW234847   6.070   2.698  12.386 -0.7001  0.0823  1.1559
11136SOL     OW34848   2.674   7.156   7.415  0.0386  0.5427  0.3967
11136SOL    HW134849   2.629   7.230   7.456 -0.1146  0.7130 -0.0650
11136SOL    HW234850   2.649   7.162   7.322 -0.6174 -0.5624  0.4906
11137SOL     OW34851   4.987   6.735   5.827  0.1780  0.1729 -0.0834
11137SOL    HW134852   4.992   6.761   5.735 -1.1061  3.4231  0.6275
11137SOL    HW234853   5.046   6.661   5.835  2.2082  1.3268 -3.0384
11138SOL     OW34854   6.561   6.636   3.876 -0.0754  0.7777 -0.4711
11138SOL    HW134855   6.558   6.626   3.971  0.8277 -1.0083 -0.6048
11138SOL    HW234856   6.640   6.590   3.849 -1.2482 -0.3242 -2.2573
11139SOL     OW34857   7.889   2.103  10.205 -0.4587 -0.4994  0.0256
11139SOL    HW134858   7.879   2.076  10.296  1.2428  0.4094  0.5227
11139SOL    HW234859   7.842   2.036  10.155  0.9829 -2.6606  1.4018
11140SOL     OW34860   5.035   3.643   5.090  0.1595  0.2508 -0.5138
11140SOL    HW134861   5.012   3.578   5.156  0.9720  1.9617  1.5513
11140SOL    HW234862   4.976   3.717   5.108 -0.4767  0.3107 -2.5559
11141SOL     OW34863   4.983   0.264  12.015  0.0971  0.0766  0.7144
11141SOL    HW134864   5.056   0.318  11.985 -0.2721  0.3054  0.2309
11141SOL    HW234865   5.022   0.177  12.028  0.6617  0.4123  1.3616
11142SOL     OW34866   6.062   2.380   9.391  0.4169 -0.7024  0.3083
11142SOL    HW134867   6.151   2.347   9.403  0.6109 -1.5169 -2.7363
11142SOL    HW234868   6.020   2.362   9.475  2.0340 -3.9067  0.6261
11143SOL     OW34869   3.322   0.540   6.796  0.2077 -0.1950 -0.0557
11143SOL    HW134870   3.227   0.546   6.781  0.3013  0.6867 -0.3585
11143SOL    HW234871   3.347   0.458   6.754 -0.4988 -0.6738  0.4351
11144SOL     OW34872   3.727   2.057  12.278 -0.6482  0.1669 -0.2718
11144SOL    HW134873   3.783   1.981  12.293 -2.3453 -0.9910  0.5750
11144SOL    HW234874   3.721   2.064  12.183 -1.1188 -1.3228 -0.3816
11145SOL     OW34875   6.699   1.133   2.815  0.7166 -0.3878  0.1999
11145SOL    HW134876   6.691   1.216   2.768 -1.6672 -0.0547  1.0609
11145SOL    HW234877   6.713   1.159   2.906 -1.4460 -0.8246  0.7128
11146SOL     OW34878   2.745   3.061   4.204  0.0305 -0.3658 -0.2557
11146SOL    HW134879   2.808   3.074   4.133 -0.7218 -0.8228 -1.0385
11146SOL    HW234880   2.798   3.035   4.279  0.9929  1.4925 -0.2246
11147SOL     OW34881   5.483   1.358   8.014  0.0478  0.3596  0.1790
11147SOL    HW134882   5.464   1.393   7.927  1.7720 -0.6425 -0.6341
11147SOL    HW234883   5.417   1.291   8.028 -0.4629  0.7789 -0.1797
11148SOL     OW34884   5.338   0.835   8.113  0.3330 -0.1568 -0.3613
11148SOL    HW134885   5.286   0.826   8.032 -0.0996 -2.4615  0.1038
11148SOL    HW234886   5.371   0.747   8.130  0.7398  0.3625  1.7922
11149SOL     OW34887   2.475   2.552   4.293 -0.2523  0.3713 -0.0564
11149SOL    HW134888   2.539   2.624   4.295  1.9138 -1.4590  1.2831
11149SOL    HW234889   2.462   2.529   4.385 -1.9347 -0.1299 -0.3838
11150SOL     OW34890   6.225   2.505   8.070  0.4020  0.1047 -0.5664
11150SOL    HW134891   6.241   2.576   8.132 -0.5073 -1.8932  2.1198
11150SOL    HW234892   6.142   2.529   8.028 -1.3870 -0.6087  2.3532
11151SOL     OW34893   7.392   5.348  10.801  0.3076  0.1972 -0.7561
11151SOL    HW134894   7.402   5.417  10.867  0.0990  0.6229 -1.1621
11151SOL    HW234895   7.474   5.298  10.805 -0.5753 -1.2037  1.4104
11152SOL     OW34896   7.489   1.439   7.413 -0.0823 -0.1927 -0.4370
11152SOL    HW134897   7.402   1.453   7.450  0.0321 -0.0356 -0.2200
11152SOL    HW234898   7.515   1.352   7.445  0.1954  0.1242  0.2245
11153SOL     OW34899   7.581   4.354   0.290 -0.5306 -0.5768 -0.3141
11153SOL    HW134900   7.559   4.443   0.318  1.2359 -0.0788 -0.3432
11153SOL    HW234901   7.599   4.307   0.372 -1.5453 -0.9419 -0.2938
11154SOL     OW34902   0.745   2.952  11.569  0.2997 -0.1037  0.2537
11154SOL    HW134903   0.707   2.883  11.624  0.7224  0.0187  0.7175
11154SOL    HW234904   0.807   2.997  11.628 -0.4066  1.0575  0.1362
11155SOL     OW34905   4.261   4.534  10.906  0.4212 -0.4172  0.1951
11155SOL    HW134906   4.215   4.450  10.896  2.5646 -1.7771  0.9698
11155SOL    HW234907   4.193   4.600  10.894 -1.4069 -2.2536 -0.2235
11156SOL     OW34908   0.707   2.336  10.645  0.3354  0.4674 -0.4231
11156SOL    HW134909   0.768   2.383  10.701 -0.5680 -0.1263  1.1414
11156SOL    HW234910   0.761   2.275  10.595  1.0731  0.2418  0.6257
11157SOL     OW34911   5.155   1.869  11.514 -0.0031 -0.4177 -0.2772
11157SOL    HW134912   5.174   1.775  11.508 -0.6002 -0.5405 -0.2807
11157SOL    HW234913   5.137   1.896  11.424  1.3874 -0.0222 -0.4719
11158SOL     OW34914   1.749   5.387   1.887 -0.1372 -0.5980  0.2186
11158SOL    HW134915   1.811   5.410   1.956 -0.5673 -1.1080  0.7858
11158SOL    HW234916   1.765   5.451   1.818  0.0028  0.1844  0.9671
11159SOL     OW34917   0.262   2.035  12.391  0.8389  0.0860  0.4844
11159SOL    HW134918   0.184   1.982  12.405  0.9457  0.3405  2.2828
11159SOL    HW234919   0.333   1.985  12.431  1.0380  1.2894  1.6805
11160SOL     OW34920   3.289   2.474   4.968 -0.4891 -0.5112  0.3274
11160SOL    HW134921   3.319   2.547   5.022 -1.6527 -0.8590  1.5045
11160SOL    HW234922   3.315   2.396   5.017 -0.7683 -0.8509 -0.0656
11161SOL     OW34923   1.359   2.742   3.823 -0.4966 -0.3051  0.3624
11161SOL    HW134924   1.364   2.836   3.844 -0.4782 -0.1559 -0.2904
11161SOL    HW234925   1.396   2.698   3.900 -0.1928  0.2358  0.5311
11162SOL     OW34926   6.822   2.887  11.407  0.3854 -0.3355 -0.2965
11162SOL    HW134927   6.849   2.810  11.456 -2.4947 -1.1922  0.0849
11162SOL    HW234928   6.769   2.938  11.468  0.1764  0.6740 -1.2841
11163SOL     OW34929   7.292   0.516   0.773 -0.2258 -0.7593  0.6633
11163SOL    HW134930   7.225   0.471   0.722  0.3216 -1.1604  0.2921
11163SOL    HW234931   7.256   0.519   0.862 -0.3410 -1.8074  0.6688
11164SOL     OW34932   7.791   6.880   4.515 -0.0441  0.0915  0.1635
11164SOL    HW134933   7.721   6.838   4.564 -0.7512  1.3840  0.3236
11164SOL    HW234934   7.746   6.934   4.450  0.6571  2.2215  1.3103
11165SOL     OW34935   7.794   1.937   1.161 -0.3605 -0.0785  0.0056
11165SOL    HW134936   7.715   1.883   1.158 -0.3263 -0.1993  0.9970
11165SOL    HW234937   7.866   1.873   1.164 -0.1350  0.0134 -2.0601
11166SOL     OW34938   0.674   2.566  10.931 -0.0572 -0.1962  0.1794
11166SOL    HW134939   0.697   2.591  10.841 -1.0272 -0.1955 -0.0784
11166SOL    HW234940   0.624   2.640  10.964 -1.0399 -0.8411  0.1744
11167SOL     OW34941   1.038   3.134   4.346  0.0834  0.3032  0.0070
11167SOL    HW134942   1.020   3.040   4.356 -0.5987  0.6049  2.2831
11167SOL    HW234943   1.122   3.138   4.301 -0.4820 -1.3678 -1.2816
11168SOL     OW34944   7.973   3.753   3.173 -0.5452 -0.2640 -0.1455
11168SOL    HW134945   8.004   3.775   3.085 -0.7521 -0.3028 -0.2288
11168SOL    HW234946   7.947   3.837   3.210  2.1350  0.2017  0.9207
11169SOL     OW34947   6.862   5.761   9.922 -0.4312  0.0657  0.5668
11169SOL    HW134948   6.927   5.797   9.981 -0.1088 -0.1813  0.3630
11169SOL    HW234949   6.810   5.837   9.895 -1.8186 -0.0691  2.6519
11170SOL     OW34950   4.685   0.836   0.592 -0.0480  0.2368 -0.3258
11170SOL    HW134951   4.665   0.746   0.615 -0.5767 -0.1300 -2.0856
11170SOL    HW234952   4.628   0.889   0.648 -1.4397 -0.6132 -0.8878
11171SOL     OW34953   0.753   4.035   0.641  0.6219 -0.2464 -0.3403
11171SOL    HW134954   0.822   4.040   0.574  1.0456 -0.1141  0.1013
11171SOL    HW234955   0.785   3.971   0.703  0.1131 -0.5507 -0.3883
11172SOL     OW34956   1.143   4.011   1.120 -0.0839  0.1842 -0.2110
11172SOL    HW134957   1.207   3.958   1.071 -0.5731 -0.8310  0.2168
11172SOL    HW234958   1.184   4.025   1.205 -0.3092 -0.2576 -0.0233
11173SOL     OW34959   0.078   4.925   1.289  0.4079  0.3239 -0.0919
11173SOL    HW134960   0.091   4.941   1.195  0.8476 -0.9804 -0.2734
11173SOL    HW234961   0.135   4.851   1.309 -0.1339  0.1979  1.0796
11174SOL     OW34962   2.379   1.635   6.669 -0.2435 -0.7726  0.7475
11174SOL    HW134963   2.403   1.548   6.637  2.6252  0.3043 -0.3268
11174SOL    HW234964   2.342   1.680   6.592  2.7606  0.4296 -0.1446
11175SOL     OW34965   1.962   3.400   4.304 -0.4298  0.5350 -0.6398
11175SOL    HW134966   1.922   3.315   4.323 -2.6234  1.6398 -0.0309
11175SOL    HW234967   2.009   3.423   4.384  0.9906 -0.4639 -1.1289
11176SOL     OW34968   6.139   7.080  11.933 -0.0537 -0.1189 -0.1538
11176SOL    HW134969   6.067   7.130  11.971  0.5638  1.5215 -1.0363
11176SOL    HW234970   6.199   7.064  12.005  0.4417  1.7484 -0.1005
11177SOL     OW34971   5.509   3.931   3.101  0.4153 -0.2984 -0.3466
11177SOL    HW134972   5.516   3.835   3.098 -2.8150 -0.6426 -1.4737
11177SOL    HW234973   5.436   3.947   3.162  1.9341  1.6205  1.1007
11178SOL     OW34974   7.785   5.773   1.588 -0.2491  0.2497  0.0328
11178SOL    HW134975   7.862   5.742   1.541  0.7593  0.5706  1.4249
11178SOL    HW234976   7.733   5.694   1.604 -0.3308  0.0618 -1.0773
11179SOL     OW34977   4.547   5.098   4.742 -0.2646 -0.2802  0.0384
11179SOL    HW134978   4.491   5.029   4.709  0.8255 -1.1504 -0.0354
11179SOL    HW234979   4.542   5.167   4.676  1.1741 -1.6155 -1.5540
11180SOL     OW34980   4.221   7.713   9.640 -0.3848 -0.1816 -0.3830
11180SOL    HW134981   4.176   7.725   9.556 -1.5913 -2.1203 -0.0851
11180SOL    HW234982   4.158   7.743   9.705  0.5348  1.2809 -0.1192
11181SOL     OW34983   1.329   3.571   9.635  0.1240 -0.4444  0.5060
11181SOL    HW134984   1.404   3.601   9.583  0.9189  0.4092  2.0908
11181SOL    HW234985   1.325   3.477   9.618 -0.2751 -0.0826 -1.8608
11182SOL     OW34986   3.446   6.561   8.372  0.0817 -0.0149 -0.1092
11182SOL    HW134987   3.351   6.562   8.366  0.0853  0.9381 -0.1879
11182SOL    HW234988   3.468   6.471   8.395 -0.6903 -0.9463 -2.6578
11183SOL     OW34989   3.444   0.385   3.773  0.1345  0.1609 -0.4239
11183SOL    HW134990   3.507   0.442   3.818  0.9885 -0.9948 -0.0981
11183SOL    HW234991   3.446   0.304   3.823 -3.9155  0.9874  1.4970
11184SOL     OW34992   7.599   1.544   2.583 -0.0610 -0.0698  0.1988
11184SOL    HW134993   7.528   1.524   2.644  0.1293 -1.9263 -0.1324
11184SOL    HW234994   7.563   1.520   2.497  0.5515  0.1381 -0.1213
11185SOL     OW34995   7.889   6.845  12.248  0.1838 -0.1111 -0.3859
11185SOL    HW134996   7.880   6.892  12.166  1.1235 -0.4788 -0.7168
11185SOL    HW234997   7.977   6.807  12.244  0.9243  1.2618  1.5210
11186SOL     OW34998   3.046   3.102   8.689  0.1002 -0.6303 -0.2841
11186SOL    HW134999   3.034   3.031   8.753  0.1312 -0.8772 -0.5528
11186SOL    HW235000   3.028   3.182   8.739  2.1781 -0.6490  0.6267
11187SOL     OW35001   5.003   0.474   4.624 -0.5283 -0.1965  0.3590
11187SOL    HW135002   4.932   0.468   4.560 -2.7582  0.7796  2.5738
11187SOL    HW235003   4.963   0.449   4.707  1.5241  1.0865  1.8330
11188SOL     OW35004   2.887   3.270  10.006  0.3802 -0.1118  0.1315
11188SOL    HW135005   2.966   3.318  10.030  0.2949 -0.3638  0.9479
11188SOL    HW235006   2.853   3.237  10.089  0.2962 -1.3547 -0.3658
11189SOL     OW35007   2.658   7.698   2.949  0.1203 -0.3106  0.0262
11189SOL    HW135008   2.687   7.648   3.024  0.7095 -0.6882 -0.4498
11189SOL    HW235009   2.737   7.741   2.916  0.0212 -0.7658 -0.8378
11190SOL     OW35010   5.078   2.952   9.981 -0.1735 -0.4859  0.4932
11190SOL    HW135011   5.098   3.045   9.992  0.2835 -0.4468 -0.5648
11190SOL    HW235012   5.087   2.937   9.887 -3.7021 -0.8107  0.0985
11191SOL     OW35013   3.795   1.678   5.652  0.4834 -0.0087  0.2320
11191SOL    HW135014   3.857   1.701   5.722  0.9741 -1.1110  0.1823
11191SOL    HW235015   3.729   1.624   5.696 -0.9378  1.8317  0.4541
11192SOL     OW35016   1.973   3.745  10.697 -0.1699  0.0065 -0.5239
11192SOL    HW135017   1.992   3.666  10.747 -1.8081  0.1794  0.4422
11192SOL    HW235018   1.957   3.714  10.608  0.3554 -0.5858 -0.4220
11193SOL     OW35019   5.606   6.629   5.913 -0.4766  0.1829  0.1897
11193SOL    HW135020   5.579   6.646   5.823 -0.2777  0.5480  0.1971
11193SOL    HW235021   5.538   6.669   5.967 -0.2347  0.5806  0.2042
11194SOL     OW35022   5.474   3.801  11.991 -0.0593  0.3435  0.3490
11194SOL    HW135023   5.547   3.839  11.943 -0.8347  1.0883 -0.2799
11194SOL    HW235024   5.472   3.850  12.074  0.1262  0.3485  0.3512
11195SOL     OW35025   6.083   7.580   5.284  0.5293  0.1868  0.2195
11195SOL    HW135026   6.117   7.660   5.324 -0.3948  1.3204 -1.1441
11195SOL    HW235027   6.068   7.521   5.357  1.2824  1.2354  1.2607
11196SOL     OW35028   1.455   6.688   6.782  0.3675 -0.2073  0.8428
11196SOL    HW135029   1.427   6.772   6.747  0.4266 -0.9533 -1.1019
11196SOL    HW235030   1.449   6.698   6.877 -0.7447  1.5889  0.6183
11197SOL     OW35031   3.263   7.032   5.808  0.2046 -0.1145 -0.4120
11197SOL    HW135032   3.339   6.974   5.815 -0.4559 -0.9358  0.1670
11197SOL    HW235033   3.204   6.986   5.748 -0.4528 -0.1837  0.2823
11198SOL     OW35034   1.831   5.309   9.706  0.6067  0.3891  0.1984
11198SOL    HW135035   1.881   5.390   9.709  2.7871 -0.9230  1.5826
11198SOL    HW235036   1.889   5.245   9.664 -0.6082 -0.7409  0.1498
11199SOL     OW35037   4.159   3.936   6.675  0.6426  0.2464 -0.1869
11199SOL    HW135038   4.107   4.016   6.667  1.7262  0.8884 -1.0037
11199SOL    HW235039   4.245   3.959   6.640  0.9466 -1.3002 -0.5366
11200SOL     OW35040   0.996   6.274  11.777  0.6622  0.2749 -0.2446
11200SOL    HW135041   0.975   6.341  11.711  0.6442  0.0788 -0.4382
11200SOL    HW235042   0.959   6.309  11.858 -0.3009  0.0063 -0.5556
11201SOL     OW35043   6.168   0.976  10.872  0.5957  0.1238  0.2517
11201SOL    HW135044   6.147   0.926  10.951 -0.1626  0.3694  0.2192
11201SOL    HW235045   6.212   0.913  10.815 -0.1734 -0.4678  0.2864
11202SOL     OW35046   0.684   6.160   1.328 -0.3984  0.2385  0.3434
11202SOL    HW135047   0.589   6.165   1.314 -0.1361  2.6793 -1.0787
11202SOL    HW235048   0.721   6.172   1.240  1.2630  0.2171  1.0133
11203SOL     OW35049   2.239   2.035  11.881  0.5618  0.5378  0.4542
11203SOL    HW135050   2.217   2.063  11.970 -1.3900 -0.0107  0.1979
11203SOL    HW235051   2.332   2.051  11.873  0.7138  0.9416  2.4827
11204SOL     OW35052   5.038   6.847   7.440  0.0726  0.0739 -0.1255
11204SOL    HW135053   4.943   6.857   7.431  0.1981  0.7272 -0.8502
11204SOL    HW235054   5.071   6.853   7.350  0.8633  0.5471  0.1871
11205SOL     OW35055   0.370   5.776  11.598 -0.4010  0.3044 -0.2366
11205SOL    HW135056   0.307   5.755  11.666 -0.7040 -1.8849 -1.0976
11205SOL    HW235057   0.454   5.782  11.643 -0.7997  0.2979  0.5130
11206SOL     OW35058   3.376   2.041  11.623  0.2498 -0.5756 -0.4965
11206SOL    HW135059   3.430   2.066  11.549 -0.8774  0.6177 -0.9394
11206SOL    HW235060   3.289   2.027  11.586 -1.4598  4.1164  1.0157
11207SOL     OW35061   2.470   6.235   2.385  0.8234 -0.6992 -0.4812
11207SOL    HW135062   2.405   6.211   2.318 -2.2281  0.9615  1.6484
11207SOL    HW235063   2.503   6.320   2.357  0.0751 -0.3318 -0.2729
11208SOL     OW35064   4.463   6.701   9.115 -0.1926 -0.2131 -0.0623
11208SOL    HW135065   4.380   6.730   9.153 -0.8932  0.1414 -1.7582
11208SOL    HW235066   4.492   6.775   9.062  1.4969 -0.1436  0.9070
11209SOL     OW35067   0.270   7.095   7.181 -0.6312  0.2180 -0.0795
11209SOL    HW135068   0.295   7.004   7.197  0.6737  0.8256  1.6375
11209SOL    HW235069   0.350   7.137   7.149 -1.3476  0.6721 -1.3395
11210SOL     OW35070   6.784   5.094   7.476  0.4116 -0.8998  0.6998
11210SOL    HW135071   6.850   5.156   7.507 -0.5611  0.0918  0.8257
11210SOL    HW235072   6.835   5.019   7.444  1.6943  0.5609 -0.8389
11211SOL     OW35073   1.548   1.391   4.997  0.4781 -0.5852 -0.0741
11211SOL    HW135074   1.589   1.432   4.920  0.2128  2.2045  1.1672
11211SOL    HW235075   1.491   1.324   4.960  1.2949 -0.1897 -2.2278
11212SOL     OW35076   2.411   4.792   3.104 -0.3672  0.2274 -0.2019
11212SOL    HW135077   2.503   4.811   3.121 -0.2014  0.0574 -0.8762
11212SOL    HW235078   2.365   4.874   3.124 -0.1805  0.0576  0.9640
11213SOL     OW35079   0.761   0.851   0.180  0.4714  0.1300  0.2965
11213SOL    HW135080   0.853   0.877   0.175  0.5169  0.1566  1.1937
11213SOL    HW235081   0.728   0.892   0.260 -0.4831  0.5916 -0.3150
11214SOL     OW35082   1.999   7.786   7.174 -0.3494 -0.0802 -0.6787
11214SOL    HW135083   1.965   7.778   7.263 -1.3351  0.6865 -0.9603
11214SOL    HW235084   2.077   7.841   7.183 -0.0723 -0.5494 -0.2057
11215SOL     OW35085   2.263   4.056  10.993 -0.4179  0.1813  0.0906
11215SOL    HW135086   2.337   4.038  11.051 -0.3940 -1.1597 -0.3267
11215SOL    HW235087   2.199   3.987  11.013 -0.5189 -0.1570 -1.2661
11216SOL     OW35088   6.698   7.475   2.112 -0.1295 -0.1850 -0.2149
11216SOL    HW135089   6.703   7.566   2.141 -0.3303  0.0337 -0.8353
11216SOL    HW235090   6.734   7.477   2.023  1.2223 -0.9735  0.2822
11217SOL     OW35091   4.744   5.382  11.575 -0.1141 -0.2906  0.2500
11217SOL    HW135092   4.792   5.304  11.550  1.6251  0.9670 -0.5602
11217SOL    HW235093   4.746   5.438  11.497  1.1719  1.6875  1.5918
11218SOL     OW35094   3.032   0.093  11.701 -0.1381  0.2841 -0.3324
11218SOL    HW135095   3.105   0.062  11.647  0.4091  0.3757  0.3297
11218SOL    HW235096   3.054   0.185  11.720 -0.6758  0.4557 -0.5352
11219SOL     OW35097   7.579   0.722   2.209  0.4313 -0.2527 -0.2171
11219SOL    HW135098   7.649   0.761   2.261 -0.0669  1.3115 -0.6440
11219SOL    HW235099   7.511   0.700   2.273  0.3787  0.4037 -0.0343
11220SOL     OW35100   1.581   0.001   5.386 -0.0296 -0.4778 -0.5662
11220SOL    HW135101   1.601   0.025   5.296 -1.4860 -0.0060 -0.7919
11220SOL    HW235102   1.501  -0.051   5.380 -2.1473  2.3307  0.6641
11221SOL     OW35103   3.357   0.945  10.361  0.3561  0.3062  0.6073
11221SOL    HW135104   3.272   0.968  10.324  0.4167  0.0477  0.3011
11221SOL    HW235105   3.362   0.850  10.353  0.4780  0.2705  1.0514
11222SOL     OW35106   3.153   4.674   0.068  1.0077 -0.1785 -0.0659
11222SOL    HW135107   3.190   4.710   0.149  1.4577  1.5152 -0.9644
11222SOL    HW235108   3.227   4.669   0.008  0.4329 -0.1032 -0.7938
11223SOL     OW35109   4.050   4.516  11.291 -0.1438  0.4857  0.3864
11223SOL    HW135110   3.975   4.494  11.346 -1.3404 -0.3879 -1.4532
11223SOL    HW235111   4.014   4.575  11.224  0.5982 -0.5257 -0.9581
11224SOL     OW35112   0.021   2.574   4.698  0.2976  0.4738 -0.0775
11224SOL    HW135113   0.036   2.482   4.721 -0.8352  0.2438 -0.1921
11224SOL    HW235114  -0.054   2.571   4.638 -2.2604  1.7137  2.7912
11225SOL     OW35115   4.502   7.838   4.672 -0.5731  0.4245 -0.0775
11225SOL    HW135116   4.465   7.923   4.650 -0.3415  0.2380 -1.2334
11225SOL    HW235117   4.556   7.855   4.750 -1.4178  1.0952  0.3802
11226SOL     OW35118   6.984   2.238  12.398  0.5000  0.5541  0.8814
11226SOL    HW135119   6.972   2.270  12.308 -1.4883  0.0061  0.9117
11226SOL    HW235120   6.994   2.318  12.450  0.3553  0.9259  0.3488
11227SOL     OW35121   6.419   0.201  12.031 -0.4074  0.1494 -0.7655
11227SOL    HW135122   6.463   0.286  12.030 -1.5747  0.7853 -1.5025
11227SOL    HW235123   6.336   0.218  12.077 -0.9739 -0.3934 -1.5646
11228SOL     OW35124   5.737   4.534   1.856  0.3981  0.0287  0.2480
11228SOL    HW135125   5.749   4.468   1.788 -1.1000  0.6603 -0.6674
11228SOL    HW235126   5.656   4.579   1.833  0.4203  0.9932  1.8560
11229SOL     OW35127   7.100   0.916   2.196 -0.5071 -0.8295 -0.0273
11229SOL    HW135128   7.065   0.974   2.129  0.5687 -0.4961 -0.3266
11229SOL    HW235129   7.177   0.876   2.155  0.1353 -0.6574  0.9728
11230SOL     OW35130   3.893   4.241   5.749  0.1825  0.3916 -0.2477
11230SOL    HW135131   3.933   4.313   5.700  0.5765 -0.3718 -1.0803
11230SOL    HW235132   3.925   4.253   5.839 -1.3526  2.3915  0.1068
11231SOL     OW35133   4.243   7.008   1.411 -0.0880 -0.1527 -0.1017
11231SOL    HW135134   4.234   7.002   1.316 -2.6460  1.2883 -0.0198
11231SOL    HW235135   4.156   7.030   1.443  1.4047  3.3334  2.2351
11232SOL     OW35136   4.545   0.382  10.019  0.4725  0.6302 -0.0140
11232SOL    HW135137   4.573   0.302   9.975 -1.1052 -0.1531  0.2969
11232SOL    HW235138   4.466   0.410   9.971  0.9089  1.9233 -0.0196
11233SOL     OW35139   5.379   1.158   2.083 -0.2091 -0.2139 -0.2305
11233SOL    HW135140   5.381   1.063   2.093 -1.2017 -0.3398 -1.0312
11233SOL    HW235141   5.352   1.191   2.169 -0.6345 -0.7113 -0.1679
11234SOL     OW35142   2.717   1.601  11.222  0.3303 -0.1863  0.2460
11234SOL    HW135143   2.808   1.631  11.219 -0.4323  2.4483  0.9867
11234SOL    HW235144   2.685   1.613  11.133  0.6167 -0.8461  0.0507
11235SOL     OW35145   7.422   6.695  11.576 -0.2430 -0.2750  0.7840
11235SOL    HW135146   7.438   6.646  11.657 -0.3434 -0.6339  0.5861
11235SOL    HW235147   7.507   6.733  11.554  0.0025 -0.9517  0.5459
11236SOL     OW35148   2.454   4.636   0.778  0.1189  0.3231 -0.5315
11236SOL    HW135149   2.512   4.561   0.793 -1.2777 -0.8807 -0.8404
11236SOL    HW235150   2.373   4.597   0.744  0.1061  2.1721 -2.8692
11237SOL     OW35151   4.477   0.221   7.808 -0.1615 -0.0406 -0.4637
11237SOL    HW135152   4.500   0.160   7.878  1.5606  0.9117 -0.1551
11237SOL    HW235153   4.561   0.245   7.768 -0.7588  2.2191 -0.5021
11238SOL     OW35154   4.767   3.185   9.711 -1.1477 -0.4294  0.1272
11238SOL    HW135155   4.740   3.095   9.728  0.3084 -0.7168  1.0730
11238SOL    HW235156   4.859   3.179   9.687 -0.6988  0.8935  1.3718
11239SOL     OW35157   3.100   6.216   0.128  0.1122 -0.2356 -0.7670
11239SOL    HW135158   3.162   6.197   0.198 -1.1350 -1.1927  0.1207
11239SOL    HW235159   3.090   6.133   0.081 -1.0149 -0.3100 -0.4415
11240SOL     OW35160   6.964   5.832   3.092 -0.8810  0.4308  0.4828
11240SOL    HW135161   7.044   5.884   3.084 -0.2601 -0.7524 -1.9646
11240SOL    HW235162   6.899   5.893   3.127 -0.0424  2.7534 -1.6685
11241SOL     OW35163   2.171   3.328   3.163 -0.0082  0.1151  0.0635
11241SOL    HW135164   2.191   3.334   3.256  0.0070  0.1024  0.0611
11241SOL    HW235165   2.241   3.378   3.120 -0.4283  0.7500  0.1067
11242SOL     OW35166   0.439   3.427   1.058  0.0601  0.4422  0.7348
11242SOL    HW135167   0.512   3.441   0.998  1.1007  0.5516  1.9844
11242SOL    HW235168   0.469   3.357   1.116 -1.1007  0.0257  0.8521
11243SOL     OW35169   1.511   0.257  10.597 -0.1036  0.1286 -0.0864
11243SOL    HW135170   1.586   0.259  10.656 -0.7334 -1.3707  0.8365
11243SOL    HW235171   1.549   0.251  10.509  0.8667 -0.6094  0.3700
11244SOL     OW35172   2.409   6.059  11.565 -1.6850  0.0541  0.0201
11244SOL    HW135173   2.393   6.012  11.647 -0.9679 -0.6365 -0.2291
11244SOL    HW235174   2.417   5.990  11.499 -1.2528  0.5630 -0.4646
11245SOL     OW35175   3.750   5.569   6.606  0.0029 -0.1878  0.0388
11245SOL    HW135176   3.661   5.548   6.636 -0.4638  0.6849 -0.6825
11245SOL    HW235177   3.805   5.554   6.682 -0.6600 -1.4182  0.3144
11246SOL     OW35178   1.195   6.125   3.442  0.4160 -0.0048  0.2463
11246SOL    HW135179   1.110   6.082   3.442  0.7724 -0.8220 -1.5511
11246SOL    HW235180   1.251   6.067   3.495  0.5831 -1.1801 -1.1424
11247SOL     OW35181   2.795   6.412   1.293  0.0173 -0.2878  0.3404
11247SOL    HW135182   2.833   6.412   1.380  0.7925  0.7546  0.0335
11247SOL    HW235183   2.710   6.455   1.304 -0.6791 -1.7654  0.8684
11248SOL     OW35184   5.405   0.638   6.998  0.1084  0.2220  0.3075
11248SOL    HW135185   5.332   0.626   7.058  0.1074 -0.2184  0.2224
11248SOL    HW235186   5.394   0.726   6.963 -0.4637  0.0960  0.1767
11249SOL     OW35187   3.921   1.045   7.919  0.4299 -0.2623  0.4356
11249SOL    HW135188   4.002   1.087   7.948  0.9350 -1.5838  1.0383
11249SOL    HW235189   3.914   0.966   7.973 -0.6875 -0.7436 -0.3584
11250SOL     OW35190   4.726   7.163   7.994 -0.3802 -0.5740  0.3621
11250SOL    HW135191   4.633   7.143   7.983 -0.5385  1.0959 -2.5521
11250SOL    HW235192   4.771   7.089   7.954 -0.5423 -0.5481  0.1280
11251SOL     OW35193   1.490   5.906  11.122  0.2568  0.2181 -0.1707
11251SOL    HW135194   1.448   5.849  11.057  2.5522 -1.2506 -0.5189
11251SOL    HW235195   1.575   5.928  11.082  0.3985  1.9687  0.9893
11252SOL     OW35196   6.042   1.031   2.024  0.5686 -0.0593 -0.4965
11252SOL    HW135197   5.990   0.970   1.971 -0.1808  0.2334 -0.1102
11252SOL    HW235198   5.985   1.055   2.097  1.5080 -0.3011  0.3518
11253SOL     OW35199   0.744   6.197   7.683 -0.2014 -0.3169 -0.2351
11253SOL    HW135200   0.837   6.176   7.679 -0.1724 -0.3092  0.2697
11253SOL    HW235201   0.713   6.155   7.764 -0.8185 -1.0209 -0.8185
11254SOL     OW35202   7.757   1.556  12.458 -0.1587 -0.1618 -0.9520
11254SOL    HW135203   7.674   1.585  12.421  0.1692  1.2250 -0.6267
11254SOL    HW235204   7.746   1.563  12.552  0.4304  0.3048 -0.9177
11255SOL     OW35205   0.680   5.041   4.116  0.6530  0.4454 -0.0510
11255SOL    HW135206   0.707   5.029   4.207  0.7813 -2.3361 -0.3714
11255SOL    HW235207   0.585   5.030   4.118  0.6940  0.0378 -0.2875
11256SOL     OW35208   4.552   1.647   4.179  0.1084  0.3584 -0.1699
11256SOL    HW135209   4.464   1.661   4.213 -0.7251 -1.9822 -1.1679
11256SOL    HW235210   4.562   1.552   4.176  3.2340  0.5059  1.2500
11257SOL     OW35211   2.378   1.871   4.655  0.7879  0.1821  0.1458
11257SOL    HW135212   2.425   1.799   4.698  0.4519 -0.0601  0.1134
11257SOL    HW235213   2.326   1.828   4.587  0.5064  0.4483  0.1917
11258SOL     OW35214   1.230   6.906   3.732  0.4318 -0.0716 -0.4215
11258SOL    HW135215   1.219   6.902   3.828 -0.2013  1.3044 -0.4041
11258SOL    HW235216   1.324   6.899   3.718  0.7361  1.6268  0.4708
11259SOL     OW35217   3.683   2.552   1.981 -0.5677 -0.1911 -0.1619
11259SOL    HW135218   3.692   2.589   2.069  0.1106  2.5876 -1.3041
11259SOL    HW235219   3.761   2.581   1.935 -0.3257 -2.5718 -1.4399
11260SOL     OW35220   3.402   1.424   1.545  0.3079  0.1957 -0.4999
11260SOL    HW135221   3.418   1.372   1.624  1.3695  0.3451 -0.6083
11260SOL    HW235222   3.387   1.513   1.578 -4.3302 -0.4997 -0.0424
11261SOL     OW35223   5.686   5.298   5.858 -0.9178 -0.0517  0.1302
11261SOL    HW135224   5.637   5.315   5.938 -0.1673  0.9020  0.4020
11261SOL    HW235225   5.757   5.240   5.885 -1.6222 -1.0760 -0.1784
11262SOL     OW35226   1.483   0.913   2.721  0.8784  0.0511  0.3604
11262SOL    HW135227   1.497   1.006   2.704 -1.3050  0.4174  0.3142
11262SOL    HW235228   1.470   0.874   2.635 -0.9910  0.2362  0.5310
11263SOL     OW35229   3.190   5.838   6.086 -0.2350 -0.1557 -0.2759
11263SOL    HW135230   3.199   5.808   6.176  1.5994  0.1363 -0.3275
11263SOL    HW235231   3.155   5.927   6.094 -1.0734 -0.5137  0.0913
11264SOL     OW35232   5.442   5.077   8.753  0.5494  0.2909  0.4469
11264SOL    HW135233   5.432   5.061   8.659  3.3465  0.3941  0.0485
11264SOL    HW235234   5.415   4.994   8.794 -1.1212  0.3857 -0.3565
11265SOL     OW35235   1.661   1.237   6.757  0.0544  0.3803  0.1149
11265SOL    HW135236   1.733   1.174   6.765  2.0548  2.2111 -2.2996
11265SOL    HW235237   1.619   1.214   6.674 -0.5426  0.9424  0.2594
11266SOL     OW35238   6.810   1.557   6.121  0.1942 -0.6540 -0.7090
11266SOL    HW135239   6.885   1.616   6.124 -1.3884  1.6922 -2.7009
11266SOL    HW235240   6.829   1.496   6.050 -0.1546  0.6006 -1.9175
11267SOL     OW35241   5.521   7.615   7.925  0.2862 -0.1977 -0.6546
11267SOL    HW135242   5.509   7.678   7.997 -2.6880 -0.7910 -0.4752
11267SOL    HW235243   5.515   7.669   7.846 -2.2172 -0.1064 -0.5011
11268SOL     OW35244   1.613   5.736   9.673  0.1458 -0.2228  0.5563
11268SOL    HW135245   1.540   5.675   9.680 -0.0684  0.1261  1.4484
11268SOL    HW235246   1.603   5.776   9.586 -1.7977  1.1778  1.3606
11269SOL     OW35247   6.055   5.289  10.886  0.1355 -0.3602  0.1554
11269SOL    HW135248   6.131   5.345  10.871  0.7414 -1.0042  0.7077
11269SOL    HW235249   6.028   5.262  10.798 -0.3795  1.0393 -0.1405
11270SOL     OW35250   1.839   2.584  12.184  0.3624  0.5460  0.7496
11270SOL    HW135251   1.751   2.580  12.146  0.4514 -0.8148  0.6207
11270SOL    HW235252   1.894   2.617  12.113  0.0772  0.7093  0.6017
11271SOL     OW35253   7.839   4.943   0.499  0.2571  0.2299  0.1545
11271SOL    HW135254   7.898   5.007   0.458  2.6712 -2.1454 -0.3697
11271SOL    HW235255   7.898   4.875   0.533 -2.1483 -1.5824  0.9300
11272SOL     OW35256   4.462   1.309   9.880 -0.0334  0.3010 -0.2386
11272SOL    HW135257   4.380   1.337   9.839  1.1525  0.6710 -2.5096
11272SOL    HW235258   4.452   1.214   9.890 -0.5505  0.2740 -0.9395
11273SOL     OW35259   2.602   0.579   5.470 -0.7400  0.1372 -0.8704
11273SOL    HW135260   2.685   0.620   5.492 -0.1657 -0.3477 -2.0629
11273SOL    HW235261   2.541   0.612   5.537  0.4261  0.3693  0.1244
11274SOL     OW35262   6.659   3.445   8.091  0.3617 -0.4142  0.2858
11274SOL    HW135263   6.631   3.467   8.180  0.5621 -0.8788  0.4696
11274SOL    HW235264   6.753   3.432   8.099  0.1885 -1.7706  0.2842
11275SOL     OW35265   5.719   3.715   1.310  0.0643 -0.2647 -0.5559
11275SOL    HW135266   5.797   3.741   1.360  0.5053 -0.3944 -1.1624
11275SOL    HW235267   5.745   3.726   1.219 -1.2347  1.4595 -0.7740
11276SOL     OW35268   6.331   7.699   6.953 -0.6384 -0.3169 -0.6544
11276SOL    HW135269   6.236   7.684   6.959 -1.2956  2.7903 -1.5945
11276SOL    HW235270   6.345   7.725   6.862  0.7546  1.2949 -0.0155
11277SOL     OW35271   5.343   4.891  12.247  0.1659  0.4086 -0.9012
11277SOL    HW135272   5.379   4.884  12.158 -0.4407  0.1513 -1.1306
11277SOL    HW235273   5.354   4.803  12.284 -0.0556  0.3783 -0.9068
11278SOL     OW35274   5.033   6.164   0.641  0.4340  0.1250  0.1773
11278SOL    HW135275   4.972   6.218   0.691 -0.0247 -0.1621 -0.0511
11278SOL    HW235276   5.049   6.088   0.697 -1.2225 -0.9061 -0.6608
11279SOL     OW35277   1.277   6.274   7.183  0.5043 -0.6634 -0.0014
11279SOL    HW135278   1.189   6.237   7.183 -0.5645  1.6650  0.8307
11279SOL    HW235279   1.303   6.273   7.091 -1.0358 -0.0623 -0.4848
11280SOL     OW35280   5.682   1.555   3.762  0.1055  0.6794 -0.0766
11280SOL    HW135281   5.647   1.562   3.673  0.7151 -1.0156 -0.4965
11280SOL    HW235282   5.712   1.643   3.784  1.6670  0.7836 -2.2960
11281SOL     OW35283   7.454   6.420   3.818  0.7297  0.1629  0.0300
11281SOL    HW135284   7.514   6.364   3.868  0.3381 -0.1446  0.1588
11281SOL    HW235285   7.477   6.404   3.726  1.5861  0.8798  0.1031
11282SOL     OW35286   3.927   7.749  10.297 -0.2970  0.4520 -1.3427
11282SOL    HW135287   3.841   7.770  10.261 -1.1709  1.4572  1.1274
11282SOL    HW235288   3.918   7.660  10.331 -1.6238  1.7605  2.1140
11283SOL     OW35289   0.573   4.192  11.855 -0.2527 -0.6195 -0.1238
11283SOL    HW135290   0.669   4.195  11.864 -0.3485 -1.2538  1.4435
11283SOL    HW235291   0.541   4.175  11.943 -1.8394 -0.3055 -0.6008
11284SOL     OW35292   1.929   3.555  10.477 -0.2245 -0.8102 -0.1951
11284SOL    HW135293   2.002   3.613  10.455 -0.8252  0.7670  1.6024
11284SOL    HW235294   1.924   3.493  10.404  1.8110  0.0825 -1.1764
11285SOL     OW35295   0.811   4.902  10.233  0.4220  0.0185  0.1816
11285SOL    HW135296   0.788   4.814  10.204 -1.5901  0.0233  1.5856
11285SOL    HW235297   0.771   4.960  10.169 -2.1091 -0.0285  1.6151
11286SOL     OW35298   4.185   7.428   0.163  0.4863  0.0300  0.1677
11286SOL    HW135299   4.129   7.465   0.231  0.4530  0.7190 -0.2260
11286SOL    HW235300   4.125   7.385   0.103  0.2406  1.7793 -0.8889
11287SOL     OW35301   4.922   6.431  10.658  0.4947 -0.1886  0.2831
11287SOL    HW135302   4.957   6.486  10.728 -1.0236  1.0979  0.0733
11287SOL    HW235303   4.836   6.404  10.689 -0.3595  0.7063 -1.2160
11288SOL     OW35304   3.010   0.604   2.517 -0.2813  0.6551 -0.1171
11288SOL    HW135305   2.930   0.599   2.569  0.9819  1.9615  2.0798
11288SOL    HW235306   3.067   0.663   2.566  1.5807  0.7718 -2.2591
11289SOL     OW35307   7.168   6.884  11.865  0.2273  0.4275 -0.2661
11289SOL    HW135308   7.098   6.932  11.909  0.9932  0.9979  0.3512
11289SOL    HW235309   7.157   6.905  11.772 -1.5333 -0.9622 -0.4248
11290SOL     OW35310   2.960   5.511   8.968  0.2458 -0.3124 -0.0103
11290SOL    HW135311   2.975   5.575   9.038  0.2819  0.7153 -0.9338
11290SOL    HW235312   3.015   5.436   8.992 -0.1636 -0.2046  1.3383
11291SOL     OW35313   0.204   2.903   4.131 -0.3427  0.1644 -0.0502
11291SOL    HW135314   0.128   2.947   4.169  0.8413  2.4720 -0.1438
11291SOL    HW235315   0.204   2.816   4.172 -2.4066  0.4684  0.7369
11292SOL     OW35316   5.473   3.381   2.847  0.3153 -1.1516 -0.4476
11292SOL    HW135317   5.406   3.312   2.849 -0.1634 -0.7271 -1.2899
11292SOL    HW235318   5.513   3.373   2.760  1.0810 -1.1303 -0.1011
11293SOL     OW35319   2.464   1.373   7.523 -0.1350  0.0210 -0.1841
11293SOL    HW135320   2.459   1.278   7.528 -0.7302  0.0843  0.5019
11293SOL    HW235321   2.377   1.403   7.550  1.0066  0.8697  2.9630
11294SOL     OW35322   7.416   3.857   2.297  0.3133  0.0019 -0.6759
11294SOL    HW135323   7.355   3.794   2.256 -0.0389 -0.5333  0.6221
11294SOL    HW235324   7.457   3.807   2.367  0.2876  1.1349  0.1606
11295SOL     OW35325   6.518   4.664   0.789  0.9922 -0.1158  0.1649
11295SOL    HW135326   6.453   4.596   0.805  1.7394 -0.8237  0.2330
11295SOL    HW235327   6.475   4.745   0.818  0.3043 -0.6313  0.6168
11296SOL     OW35328   6.302   0.434   7.783  0.1413 -0.7712 -0.4773
11296SOL    HW135329   6.371   0.481   7.830 -0.4365  1.5748 -1.8055
11296SOL    HW235330   6.221   0.466   7.823 -0.2429 -2.5047  0.1876
11297SOL     OW35331   1.182   3.143   8.089  0.7632  0.0889 -0.3716
11297SOL    HW135332   1.276   3.133   8.077  0.5238 -1.6361 -1.0870
11297SOL    HW235333   1.168   3.134   8.183  1.5642  3.3847  0.2041
11298SOL     OW35334   0.222   0.927   7.317  0.7590 -0.4955  0.2827
11298SOL    HW135335   0.275   1.001   7.287  1.0256 -0.6406  0.3837
11298SOL    HW235336   0.133   0.961   7.322  0.6092 -0.5963 -1.1375
11299SOL     OW35337   3.844   1.790  12.268 -0.0427 -0.4424 -0.1177
11299SOL    HW135338   3.766   1.736  12.256  0.7183 -1.5982  0.0467
11299SOL    HW235339   3.885   1.757  12.348 -0.8006  1.9426  1.3784
11300SOL     OW35340   6.138   4.906  11.379 -0.3190  0.4796 -0.1548
11300SOL    HW135341   6.120   4.849  11.454 -1.5635 -0.6779 -1.2721
11300SOL    HW235342   6.209   4.862  11.333  1.3678  1.8771  0.9879
11301SOL     OW35343   0.023   7.884   0.629  0.5988  0.2617  0.3519
11301SOL    HW135344  -0.033   7.858   0.556  0.9773 -0.4215  0.2959
11301SOL    HW235345  -0.038   7.916   0.696  0.1559 -0.2826  0.2179
11302SOL     OW35346   7.163   4.844   6.199 -0.0007  0.5346 -0.4286
11302SOL    HW135347   7.216   4.833   6.278  2.8323 -1.5907 -2.4345
11302SOL    HW235348   7.146   4.939   6.195  3.6083  1.3700  0.4563
11303SOL     OW35349   7.150   1.628   3.085 -0.4621 -0.1826  0.1335
11303SOL    HW135350   7.095   1.656   3.158 -0.4148 -0.2738  0.2057
11303SOL    HW235351   7.225   1.688   3.086 -0.9729  0.4848 -0.4986
11304SOL     OW35352   3.853   6.496   2.444  0.2083 -0.8102  0.3648
11304SOL    HW135353   3.798   6.426   2.479  0.0164 -0.0721  1.6069
11304SOL    HW235354   3.816   6.577   2.480  1.4977 -0.2122  0.4261
11305SOL     OW35355   6.479   6.545   9.803 -0.0766 -0.1838  0.0196
11305SOL    HW135356   6.451   6.627   9.763 -0.1199  0.5611  1.5247
11305SOL    HW235357   6.400   6.509   9.844 -0.0735 -1.0291 -0.6756
11306SOL     OW35358   3.823   0.642   1.158 -0.1765 -0.0528  1.2306
11306SOL    HW135359   3.735   0.666   1.129 -0.6888 -1.2051  1.7795
11306SOL    HW235360   3.865   0.726   1.179 -0.0379  0.8135 -1.9798
11307SOL     OW35361   4.073   5.547   9.359 -0.2662 -0.3318  0.6685
11307SOL    HW135362   3.978   5.542   9.361 -0.2459 -2.2046 -0.3360
11307SOL    HW235363   4.093   5.641   9.359 -2.2175  0.1950 -1.9403
11308SOL     OW35364   2.741   7.390  10.965  0.7753  0.0862  0.2936
11308SOL    HW135365   2.724   7.483  10.984 -0.8662 -0.4159  1.5631
11308SOL    HW235366   2.787   7.358  11.043  1.3042 -0.1891 -0.1246
11309SOL     OW35367   1.332   6.156   8.518  0.3948  0.1610 -0.0816
11309SOL    HW135368   1.300   6.085   8.575  1.6146 -0.1959  0.2023
11309SOL    HW235369   1.391   6.112   8.457  2.3706  1.1063  1.0723
11310SOL     OW35370   5.314   7.956   6.227 -0.1556 -0.0181  0.1153
11310SOL    HW135371   5.384   7.927   6.285  0.9266  1.6229 -0.3037
11310SOL    HW235372   5.238   7.966   6.285  0.6980  0.8464  1.1249
11311SOL     OW35373   4.945   5.150   3.277  0.2507  0.0381 -0.3457
11311SOL    HW135374   4.872   5.182   3.329 -0.4946 -1.5552 -0.3434
11311SOL    HW235375   4.980   5.076   3.328  0.0577 -1.0058 -1.6671
11312SOL     OW35376   3.987   1.444   6.594  0.0654  0.8275 -0.2137
11312SOL    HW135377   3.915   1.384   6.609  0.0828  0.4232 -1.5698
11312SOL    HW235378   4.011   1.430   6.502  3.2166 -0.5409  0.6904
11313SOL     OW35379   6.133   2.875   6.945 -0.3865  0.5178  0.4860
11313SOL    HW135380   6.087   2.912   7.021 -2.5510  1.8238 -1.3247
11313SOL    HW235381   6.168   2.951   6.898 -0.5247 -0.1084 -0.6735
11314SOL     OW35382   7.010   4.063   2.547 -0.3907  0.5874 -0.0858
11314SOL    HW135383   7.075   4.101   2.488 -0.0529 -0.0990 -0.1679
11314SOL    HW235384   6.932   4.118   2.536  0.1328  1.3361 -0.0797
11315SOL     OW35385   3.878   5.348  12.391  0.5663  0.5010  0.5084
11315SOL    HW135386   3.783   5.340  12.389  0.6846 -1.1339  0.0307
11315SOL    HW235387   3.900   5.352  12.484  0.0381  0.9421  0.6180
11316SOL     OW35388   2.450   5.022   1.348  0.2105  0.1658  0.1048
11316SOL    HW135389   2.426   5.114   1.357 -2.1237 -0.5354  2.6131
11316SOL    HW235390   2.391   4.988   1.281  1.1323  0.4618 -0.8853
11317SOL     OW35391   0.149   1.809  10.243 -0.8201 -0.0092  0.0028
11317SOL    HW135392   0.185   1.897  10.232 -4.0645  1.5050  0.1420
11317SOL    HW235393   0.121   1.805  10.335 -1.2002 -0.9753 -0.1394
11318SOL     OW35394   2.131   4.535   1.203 -0.0233  0.4804 -0.2284
11318SOL    HW135395   2.171   4.453   1.232 -1.3951 -0.2812 -0.3908
11318SOL    HW235396   2.127   4.589   1.282 -0.8833 -0.3807  0.3466
11319SOL     OW35397   4.532   5.546  11.299  0.1866 -0.0291  0.5168
11319SOL    HW135398   4.562   5.550  11.208 -1.2406  0.0416  0.0228
11319SOL    HW235399   4.556   5.458  11.328  0.5768 -0.0831  0.0544
11320SOL     OW35400   1.890   7.136   8.523 -0.3323  0.1366  0.0683
11320SOL    HW135401   1.842   7.210   8.486  0.4709  0.6912  0.1159
11320SOL    HW235402   1.904   7.161   8.615 -0.3523 -0.2314  0.1731
11321SOL     OW35403   3.280   5.479   5.364 -0.3555  0.1425 -0.0337
11321SOL    HW135404   3.354   5.515   5.315  0.1723 -3.1021 -1.9653
11321SOL    HW235405   3.315   5.461   5.451  0.1509  1.5528  0.0724
11322SOL     OW35406   5.684   2.116   4.316 -0.1161  0.1596  1.2392
11322SOL    HW135407   5.609   2.057   4.314  2.2898 -3.1809  1.6894
11322SOL    HW235408   5.749   2.072   4.372  4.1776  0.0695 -3.1252
11323SOL     OW35409   5.774   6.920   3.733 -0.5614 -0.6003  0.0954
11323SOL    HW135410   5.788   6.826   3.722  0.1873 -0.5650  0.6540
11323SOL    HW235411   5.682   6.934   3.709 -0.7596 -1.5212  0.2777
11324SOL     OW35412   6.978   5.839  11.726  0.3332  0.1778 -0.2026
11324SOL    HW135413   6.889   5.863  11.702  0.3589 -0.8899 -1.4898
11324SOL    HW235414   6.980   5.843  11.822 -1.3358 -0.5880 -0.1133
11325SOL     OW35415   3.413   0.957   3.005  0.5715  0.3077 -0.4122
11325SOL    HW135416   3.395   0.896   2.933 -2.3426 -0.7507  1.0320
11325SOL    HW235417   3.338   1.016   3.007  1.2857  1.2421  0.8569
11326SOL     OW35418   1.425   7.831  11.968  0.0513 -0.0813  0.2018
11326SOL    HW135419   1.480   7.800  12.040 -0.1082 -1.7883 -0.3673
11326SOL    HW235420   1.390   7.915  11.999 -0.5869 -1.0793  2.4251
11327SOL     OW35421   1.631   1.512  11.880  0.4084 -0.4509 -0.0403
11327SOL    HW135422   1.662   1.575  11.945 -0.8571 -0.2365  0.3851
11327SOL    HW235423   1.592   1.566  11.811 -2.1395 -0.7179  1.0671
11328SOL     OW35424   0.063   5.948   1.161  0.0743 -0.0261 -0.3838
11328SOL    HW135425   0.061   6.043   1.149 -0.4200  0.2469  1.5302
11328SOL    HW235426   0.153   5.923   1.142  0.1404  0.7869 -1.1651
11329SOL     OW35427   5.930   2.120   6.595 -0.3927 -0.3946  0.2232
11329SOL    HW135428   5.859   2.094   6.654 -0.1688  0.1910  0.7507
11329SOL    HW235429   5.905   2.082   6.511 -2.0072  0.9108  0.0720
11330SOL     OW35430   5.404   7.879   0.823 -0.3387 -0.7811  0.0547
11330SOL    HW135431   5.441   7.833   0.748  1.4812 -0.9128  0.9573
11330SOL    HW235432   5.452   7.843   0.898 -4.1109 -2.8953  1.7636
11331SOL     OW35433   7.040   0.959  10.865 -0.4329  0.3890  0.1910
11331SOL    HW135434   7.010   0.868  10.864  1.3445 -0.2612  1.5874
11331SOL    HW235435   6.992   1.000  10.793 -0.8847 -1.7751 -0.8401
11332SOL     OW35436   6.212   5.161  11.392  0.1711  0.2276 -0.2862
11332SOL    HW135437   6.137   5.219  11.400 -0.9999 -0.5713 -3.6123
11332SOL    HW235438   6.174   5.073  11.397  0.9644 -0.1844 -1.2150
11333SOL     OW35439   0.906   4.870   4.053  0.5732  0.2210  0.7008
11333SOL    HW135440   0.824   4.919   4.050  1.0998  1.2167 -3.2382
11333SOL    HW235441   0.906   4.818   3.972  2.7907 -1.6017  1.7482
11334SOL     OW35442   0.031   7.721   9.945  0.5435 -0.2276 -0.2954
11334SOL    HW135443  -0.053   7.698   9.983  0.0888  1.8920  0.1143
11334SOL    HW235444   0.095   7.698  10.013  0.0069  0.7769  0.5795
11335SOL     OW35445   0.821   5.923   7.781 -0.0193  0.2481 -0.7059
11335SOL    HW135446   0.907   5.925   7.739  0.1174 -1.0807 -0.5212
11335SOL    HW235447   0.837   5.957   7.869  0.2849  0.1536 -0.7226
11336SOL     OW35448   5.447   1.236   0.181  0.8210 -0.1473  0.4574
11336SOL    HW135449   5.402   1.215   0.263 -1.5747 -0.3821 -0.8080
11336SOL    HW235450   5.416   1.170   0.119  2.3175  0.2126 -0.7313
11337SOL     OW35451   3.158   2.551   5.597 -0.1885  0.3426 -0.0698
11337SOL    HW135452   3.090   2.617   5.582 -1.4281 -0.7938  0.2948
11337SOL    HW235453   3.226   2.597   5.647 -0.9703  1.3632  0.0882
11338SOL     OW35454   0.970   2.777   8.416  0.0563 -0.8403 -0.2428
11338SOL    HW135455   0.949   2.829   8.338  1.5955  0.4977  0.1745
11338SOL    HW235456   1.055   2.738   8.396 -0.0831 -1.4488  0.3142
11339SOL     OW35457   0.890   4.299   0.529  0.5984 -0.5656 -0.3620
11339SOL    HW135458   0.936   4.335   0.453  0.6492  0.1464 -0.0019
11339SOL    HW235459   0.871   4.375   0.584 -2.4465 -0.5661 -1.2413
11340SOL     OW35460   4.539   7.721   9.101  0.3864 -0.3767  0.5185
11340SOL    HW135461   4.525   7.719   9.196  1.0292 -0.8367  0.6077
11340SOL    HW235462   4.625   7.682   9.089  0.4573  0.0016 -0.2299
11341SOL     OW35463   1.869   5.838   9.737 -0.2137 -0.2236  0.0042
11341SOL    HW135464   1.864   5.934   9.741  0.8733 -0.1700  2.6778
11341SOL    HW235465   1.777   5.810   9.736 -0.5503  0.8253 -1.4032
11342SOL     OW35466   5.957   6.083   8.325  0.9012  0.3330  0.2783
11342SOL    HW135467   5.996   6.012   8.273 -1.7814  0.6153 -2.3980
11342SOL    HW235468   6.022   6.153   8.322  1.7267 -0.4349 -0.9049
11343SOL     OW35469   6.585   6.165  11.667 -0.2217  1.0396  0.5714
11343SOL    HW135470   6.492   6.186  11.657 -0.2597  1.9900  2.5468
11343SOL    HW235471   6.624   6.245  11.700  1.5544  0.9937 -1.2358
11344SOL     OW35472   7.817   2.948  12.036 -0.1362 -0.2228 -0.2155
11344SOL    HW135473   7.814   2.930  12.130  2.8054  2.4563  0.5604
11344SOL    HW235474   7.770   3.031  12.026  2.1801  1.1357 -0.4834
11345SOL     OW35475   2.634   7.528   4.940 -0.4734  0.2748 -0.4138
11345SOL    HW135476   2.670   7.606   4.897  0.7211  0.0661  0.1739
11345SOL    HW235477   2.569   7.495   4.878  0.0336  0.9267 -1.3234
11346SOL     OW35478   6.452   2.594   9.723 -0.8466 -0.2469 -0.6921
11346SOL    HW135479   6.496   2.532   9.664  1.3034 -0.0412  0.5643
11346SOL    HW235480   6.523   2.649   9.756 -2.4500  1.7029 -0.3439
11347SOL     OW35481   5.714   0.306   4.612  0.4552  0.0940  0.0316
11347SOL    HW135482   5.677   0.389   4.584 -0.7942  0.2468  1.9480
11347SOL    HW235483   5.796   0.298   4.563 -0.2276  1.6207 -1.4360
11348SOL     OW35484   0.784   5.966   1.788 -0.2957  0.0070 -0.3655
11348SOL    HW135485   0.793   6.004   1.875 -0.8813 -1.5003  0.3927
11348SOL    HW235486   0.750   6.037   1.734  0.3709  1.0500  0.5497
11349SOL     OW35487   0.364   2.459   6.233  0.7368 -0.2760  0.3494
11349SOL    HW135488   0.357   2.524   6.163 -0.0770 -2.0235 -1.2890
11349SOL    HW235489   0.454   2.428   6.227  0.8783  0.0921  0.5625
11350SOL     OW35490   6.299   4.618   2.059 -0.2296 -0.2802 -0.0121
11350SOL    HW135491   6.250   4.671   1.996  0.1997 -1.9900 -1.9056
11350SOL    HW235492   6.240   4.547   2.082  0.7318 -1.4887 -1.1066
11351SOL     OW35493   7.622   5.384   7.503  0.3226 -0.0654 -0.3898
11351SOL    HW135494   7.656   5.295   7.515 -0.5129 -0.5426 -1.3653
11351SOL    HW235495   7.612   5.392   7.408  0.2530  1.0252 -0.2938
11352SOL     OW35496   4.685   1.251   5.228  0.3289 -0.3698 -0.5046
11352SOL    HW135497   4.737   1.317   5.182 -1.5802 -0.3175 -2.7820
11352SOL    HW235498   4.717   1.168   5.194 -0.0715 -0.3938 -0.8397
11353SOL     OW35499   4.917   1.632   9.312  0.2163 -0.0326  0.5253
11353SOL    HW135500   4.980   1.596   9.250 -0.7053  1.1828 -1.2085
11353SOL    HW235501   4.968   1.688   9.370  1.0848 -1.1207  0.8364
11354SOL     OW35502   6.171   5.463   5.569  0.2012  0.3866 -0.5265
11354SOL    HW135503   6.091   5.413   5.585  0.5086 -0.0611 -0.3545
11354SOL    HW235504   6.143   5.555   5.569 -0.2363  0.2559 -0.0198
11355SOL     OW35505   2.928   7.140   1.693 -0.0287 -0.1364  0.2232
11355SOL    HW135506   2.952   7.154   1.602 -0.2637  0.9896  0.3268
11355SOL    HW235507   2.833   7.133   1.692 -0.0185 -0.3125  0.3616
11356SOL     OW35508   0.057   4.134   7.459 -0.2200 -0.2135 -0.5617
11356SOL    HW135509   0.041   4.227   7.480 -1.6917 -0.9459  2.0223
11356SOL    HW235510   0.147   4.119   7.488 -0.4910  0.0683  0.4725
11357SOL     OW35511   7.003   6.540   1.933 -0.0952  0.1342  0.2043
11357SOL    HW135512   7.024   6.466   1.990  0.9152  1.7701  2.1227
11357SOL    HW235513   6.947   6.595   1.987  0.3219  1.4192 -0.6363
11358SOL     OW35514   6.089   6.351   2.256 -0.6465  0.1770 -0.6067
11358SOL    HW135515   6.112   6.444   2.259  1.4673 -0.3166  0.3499
11358SOL    HW235516   6.066   6.335   2.164 -2.4654  1.8949 -0.5274
11359SOL     OW35517   1.712   5.251  11.907 -0.3092 -0.2812 -0.2755
11359SOL    HW135518   1.672   5.197  11.976 -1.2240  0.3055 -0.3239
11359SOL    HW235519   1.639   5.271  11.849  0.2372  0.1637 -0.8064
11360SOL     OW35520   2.507   2.564   3.826  0.2902 -0.0681  0.4436
11360SOL    HW135521   2.583   2.559   3.884 -0.3249 -1.0372  1.1920
11360SOL    HW235522   2.539   2.532   3.742  0.1283 -2.9731  1.3985
11361SOL     OW35523   0.219   2.682   4.264 -0.3353 -1.2404 -0.1031
11361SOL    HW135524   0.186   2.614   4.206 -1.6428 -1.5147  0.9069
11361SOL    HW235525   0.228   2.638   4.349 -1.4182 -0.1466  0.6180
11362SOL     OW35526   5.984   3.946  10.530 -0.8003 -0.2470 -0.1566
11362SOL    HW135527   5.997   3.971  10.621  0.1045 -1.1593 -0.0168
11362SOL    HW235528   5.903   3.990  10.504 -1.3026 -0.3220  1.2080
11363SOL     OW35529   1.816   4.961   8.617 -0.3523  0.0788 -0.1406
11363SOL    HW135530   1.837   5.046   8.655 -1.1242  0.1832  0.0727
11363SOL    HW235531   1.771   4.982   8.535  1.6111 -0.1462 -1.3263
11364SOL     OW35532   6.579   0.948   1.831  0.0974 -0.0996 -0.2481
11364SOL    HW135533   6.543   1.036   1.835  0.8236  0.2488 -1.1704
11364SOL    HW235534   6.659   0.952   1.884  0.4279 -0.0534 -0.7478
11365SOL     OW35535   7.799   1.874  11.764 -0.0535  0.3325 -0.2656
11365SOL    HW135536   7.775   1.899  11.853 -0.7639 -1.3131  0.0346
11365SOL    HW235537   7.825   1.957  11.723  2.4113  0.8543  2.0659
11366SOL     OW35538   6.825   1.587   3.400  0.1608  0.0519  0.4075
11366SOL    HW135539   6.903   1.531   3.391  0.3496  0.5428 -1.2949
11366SOL    HW235540   6.856   1.663   3.450  0.1744 -0.8246  1.7737
11367SOL     OW35541   5.121   4.761   2.867 -0.6751  0.0967  0.3705
11367SOL    HW135542   5.175   4.743   2.790  0.2483  1.0650  0.7738
11367SOL    HW235543   5.032   4.770   2.832 -0.1629  1.2793 -0.6984
11368SOL     OW35544   3.260   0.718   8.311 -0.2389  0.1806  0.1527
11368SOL    HW135545   3.278   0.697   8.402  0.6482  0.6774  0.1037
11368SOL    HW235546   3.168   0.746   8.310  0.1909  1.7763  1.2037
11369SOL     OW35547   0.952   1.478  12.388 -0.1663 -0.5398 -0.4613
11369SOL    HW135548   0.876   1.481  12.447 -0.2919  2.8351 -0.5846
11369SOL    HW235549   0.923   1.424  12.315 -2.6392  0.8130 -0.6085
11370SOL     OW35550   1.213   3.646   7.643  0.4507 -0.7808 -0.1016
11370SOL    HW135551   1.270   3.649   7.566  0.2284  0.8798 -0.2384
11370SOL    HW235552   1.143   3.585   7.618 -0.3892  0.7826 -1.8085
11371SOL     OW35553   0.650   2.018   1.582  0.1908  0.0048  0.2701
11371SOL    HW135554   0.608   1.933   1.592  1.8152 -1.0404 -1.2296
11371SOL    HW235555   0.580   2.076   1.552 -0.1205 -1.8747 -3.0487
11372SOL     OW35556   2.107   1.073   4.566 -0.0414 -0.1613 -0.0513
11372SOL    HW135557   2.124   0.979   4.574  0.9832 -0.2257 -2.2991
11372SOL    HW235558   2.126   1.109   4.653 -1.5069 -2.1379  1.1703
11373SOL     OW35559   3.078   4.090   8.925  0.0455  0.2821  0.5189
11373SOL    HW135560   3.063   4.164   8.866 -3.3671 -0.2731  0.4671
11373SOL    HW235561   3.130   4.127   8.997 -0.4711  2.4143 -0.1270
11374SOL     OW35562   7.224   6.954   5.208 -0.0458  0.5674 -0.1563
11374SOL    HW135563   7.218   7.011   5.284 -0.9856 -1.5107  1.4106
11374SOL    HW235564   7.317   6.933   5.200  0.1801  1.5492 -0.2023
11375SOL     OW35565   5.680   3.779  10.371 -0.0604 -0.0445  0.1367
11375SOL    HW135566   5.722   3.841  10.311  0.6199  0.5298  1.1766
11375SOL    HW235567   5.695   3.693  10.331 -0.7078  0.4088 -1.1412
11376SOL     OW35568   5.471   1.792   0.286  0.3855 -0.2036 -0.0641
11376SOL    HW135569   5.404   1.853   0.255  0.9009  0.8335  0.7953
11376SOL    HW235570   5.495   1.825   0.373  2.4928 -0.1091 -0.6253
11377SOL     OW35571   6.398   7.043   9.910  0.2986 -0.1099  0.5719
11377SOL    HW135572   6.401   7.043  10.006 -2.0761 -1.5220  0.7138
11377SOL    HW235573   6.358   7.127   9.888 -0.3056 -0.3049  0.8984
11378SOL     OW35574   4.139   0.308   4.311  0.0737  0.1548  0.1486
11378SOL    HW135575   4.106   0.336   4.225 -0.7659  0.2438  0.4925
11378SOL    HW235576   4.065   0.262   4.351 -0.1018  1.5744  1.5094
11379SOL     OW35577   7.855   0.080   9.207  0.4086 -0.7877  0.2973
11379SOL    HW135578   7.909   0.078   9.286 -0.1143  0.0119  0.6996
11379SOL    HW235579   7.899   0.142   9.149 -0.2093  0.1092  0.7524
11380SOL     OW35580   3.849   6.228  10.224  0.2996  0.2296 -0.2862
11380SOL    HW135581   3.827   6.158  10.286  2.0690  0.2057  0.3685
11380SOL    HW235582   3.944   6.225  10.217  0.3216  1.8471 -1.1247
11381SOL     OW35583   3.981   2.827   6.161  0.4221  0.3154  0.3991
11381SOL    HW135584   4.075   2.833   6.142  0.1324  1.6571 -0.7793
11381SOL    HW235585   3.943   2.905   6.120 -0.7778  1.6466  3.7353
11382SOL     OW35586   4.148   4.534   4.084 -0.3887 -0.4975 -0.0811
11382SOL    HW135587   4.242   4.515   4.074 -0.2460 -0.0133  0.3127
11382SOL    HW235588   4.144   4.599   4.155 -0.8659  1.0450 -1.4687
11383SOL     OW35589   5.515   3.079  12.340 -0.0863  0.3079 -0.0756
11383SOL    HW135590   5.432   3.126  12.353 -0.7881 -1.5693  3.7472
11383SOL    HW235591   5.492   3.005  12.283 -1.0234 -0.0437  0.7246
11384SOL     OW35592   3.553   2.234   6.757  0.3828 -0.6325  0.0811
11384SOL    HW135593   3.492   2.171   6.719  0.5408 -0.6543 -0.1409
11384SOL    HW235594   3.640   2.202   6.733  0.4382  0.5690 -1.5285
11385SOL     OW35595   7.667   2.655   3.003  0.0791  0.3380  0.0588
11385SOL    HW135596   7.639   2.592   3.070 -0.9347 -2.1100 -2.4850
11385SOL    HW235597   7.590   2.710   2.990 -1.0643 -1.5051 -1.5218
11386SOL     OW35598   3.055   2.976   9.906  0.4620 -0.0217  0.1852
11386SOL    HW135599   2.993   2.905   9.893  0.3289  0.2720 -0.7986
11386SOL    HW235600   3.029   3.016   9.989 -1.4319  0.8552 -0.7824
11387SOL     OW35601   5.076   3.277  12.006  0.0539  0.1899  0.0400
11387SOL    HW135602   5.110   3.188  12.016  0.7867  0.5000  0.3729
11387SOL    HW235603   5.106   3.305  11.920  0.4616  0.3853  0.2446
11388SOL     OW35604   0.120   1.786   2.854  0.3266 -0.0206 -0.2689
11388SOL    HW135605   0.146   1.830   2.773  1.2967  0.0166  0.0445
11388SOL    HW235606   0.101   1.857   2.915  1.4759 -0.0150  0.1071
11389SOL     OW35607   1.417   6.679   7.080  0.4461  0.6583 -0.0125
11389SOL    HW135608   1.497   6.727   7.103  0.8695 -0.6306  1.2967
11389SOL    HW235609   1.381   6.650   7.163 -2.3116  2.5411 -0.4216
11390SOL     OW35610   4.992   1.567   8.978  0.2301  0.7757  0.3605
11390SOL    HW135611   5.000   1.488   8.925 -1.0698  1.9533 -1.7010
11390SOL    HW235612   5.060   1.558   9.045  1.7989 -0.8813 -1.3603
11391SOL     OW35613   0.104   5.917   4.658  0.2534  0.5376 -0.0722
11391SOL    HW135614   0.030   5.883   4.607  1.2589  0.1035 -1.2781
11391SOL    HW235615   0.117   5.852   4.727  0.2831 -0.0095 -0.5894
11392SOL     OW35616   2.552   3.699   7.035 -0.1609 -0.4228  0.3518
11392SOL    HW135617   2.574   3.792   7.025  1.3279 -0.2063  4.2260
11392SOL    HW235618   2.465   3.699   7.073 -1.0059 -0.7920 -1.4529
11393SOL     OW35619   1.663   5.008   9.992 -0.2380 -0.5373 -0.2658
11393SOL    HW135620   1.576   4.994   9.955 -0.5559 -0.2586  0.3498
11393SOL    HW235621   1.723   4.991   9.920 -0.8167 -0.4421 -0.7816
11394SOL     OW35622   3.819   1.847   9.347 -0.0893 -0.0354 -0.2992
11394SOL    HW135623   3.807   1.785   9.419 -0.4994  0.6351  0.2226
11394SOL    HW235624   3.889   1.905   9.377 -0.6003  0.5503 -0.2217
11395SOL     OW35625   4.836   4.648   7.535  0.1047 -0.4440  0.1898
11395SOL    HW135626   4.836   4.552   7.540 -2.9153 -0.6365 -1.3229
11395SOL    HW235627   4.898   4.668   7.464 -0.7860 -1.4560 -0.9143
11396SOL     OW35628   0.272   0.319   3.403 -0.2135  0.6957 -0.6857
11396SOL    HW135629   0.234   0.359   3.481  0.4588 -0.2321  0.1513
11396SOL    HW235630   0.341   0.380   3.377  0.4095  0.4141  0.2243
11397SOL     OW35631   3.686   7.914  11.858 -0.2158 -0.4176 -0.7592
11397SOL    HW135632   3.652   7.875  11.778 -0.0317 -1.9953 -0.0910
11397SOL    HW235633   3.607   7.940  11.907 -0.3694 -0.8314 -0.7833
11398SOL     OW35634   6.645   5.057   2.322 -0.0083  0.1511  0.1593
11398SOL    HW135635   6.563   5.030   2.362 -1.2042  2.5936 -0.4303
11398SOL    HW235636   6.627   5.144   2.287  2.1615 -0.1741 -2.0644
11399SOL     OW35637   7.372   3.415   5.999  0.1759  0.1951  0.4429
11399SOL    HW135638   7.425   3.335   6.004  0.6830  0.4296 -0.8911
11399SOL    HW235639   7.404   3.468   6.072  2.0468  0.4585 -0.5019
11400SOL     OW35640   2.211   0.481   8.293 -0.0892 -0.2964  0.0994
11400SOL    HW135641   2.168   0.404   8.255 -2.4334  0.0566  1.8139
11400SOL    HW235642   2.166   0.555   8.253  0.1431  0.1270  0.6109
11401SOL     OW35643   4.281   5.911   1.218 -0.4375  0.0256 -0.0195
11401SOL    HW135644   4.363   5.933   1.263 -1.1300  1.9029  0.4030
11401SOL    HW235645   4.278   5.970   1.143 -1.3853 -0.0751 -0.0733
11402SOL     OW35646   6.118   3.517   3.348  0.1800  0.0537 -0.3982
11402SOL    HW135647   6.045   3.455   3.338 -1.0778  1.3053  0.6756
11402SOL    HW235648   6.080   3.602   3.325  1.3647  0.7030 -0.0192
11403SOL     OW35649   4.106   6.113   9.424  0.4226 -0.1111 -0.4529
11403SOL    HW135650   4.113   6.198   9.467 -0.6838 -0.5531  0.6741
11403SOL    HW235651   4.013   6.092   9.428  0.9150 -2.3009  1.1878
11404SOL     OW35652   3.834   6.647   9.222  0.3988 -0.0094 -0.0902
11404SOL    HW135653   3.826   6.553   9.209 -0.1795  0.1778 -1.2195
11404SOL    HW235654   3.747   6.682   9.200  0.7674  0.8468 -0.2451
11405SOL     OW35655   0.489   4.387   3.898 -0.2808  0.2664 -0.5933
11405SOL    HW135656   0.583   4.399   3.912 -0.1091 -1.5036 -0.0376
11405SOL    HW235657   0.471   4.297   3.926 -1.9901  0.2732 -1.5253
11406SOL     OW35658   2.896   7.747   8.078 -0.0747  0.0656  0.1462
11406SOL    HW135659   2.983   7.728   8.043 -0.6839 -2.0235 -0.3847
11406SOL    HW235660   2.910   7.761   8.172  1.0134  1.3855 -0.1843
11407SOL     OW35661   7.598   7.903   4.037  0.3637  0.5324  0.8416
11407SOL    HW135662   7.641   7.985   4.013  1.2054  0.3932  1.8266
11407SOL    HW235663   7.660   7.859   4.095 -0.2924 -0.5723  0.7356
11408SOL     OW35664   7.710   2.458  12.006  0.1851  0.5677  0.2297
11408SOL    HW135665   7.740   2.494  12.089  1.1544  0.6530 -0.1513
11408SOL    HW235666   7.660   2.529  11.966  0.2812  0.7528  0.4336
11409SOL     OW35667   1.841   4.770   0.783  0.2712  0.3134  0.0261
11409SOL    HW135668   1.764   4.734   0.828 -0.4152  0.1927 -1.2123
11409SOL    HW235669   1.852   4.857   0.821 -0.3552  0.2558  0.3585
11410SOL     OW35670   3.201   1.620   4.825 -0.7826 -0.6844 -0.0661
11410SOL    HW135671   3.269   1.571   4.870 -0.3719 -1.2789 -1.2953
11410SOL    HW235672   3.192   1.701   4.875  0.1659 -1.0093  0.6413
11411SOL     OW35673   6.547   1.894   3.708  0.1915  0.0361  0.3112
11411SOL    HW135674   6.611   1.919   3.642 -1.3485  1.6248 -0.6850
11411SOL    HW235675   6.462   1.903   3.664 -0.7532 -3.4025  1.1001
11412SOL     OW35676   6.722   7.262   5.364  0.1217  0.0180  0.0564
11412SOL    HW135677   6.678   7.300   5.288 -0.2217  0.1357  0.3087
11412SOL    HW235678   6.771   7.335   5.402  0.0163  0.0454  0.1421
11413SOL     OW35679   7.552   7.204   3.149 -0.8520 -0.4727 -0.2057
11413SOL    HW135680   7.623   7.141   3.135  1.5426  1.8490  0.6970
11413SOL    HW235681   7.482   7.152   3.190  1.6035 -2.3292  2.0173
11414SOL     OW35682   2.831   6.006   0.797  0.2191 -0.0930 -0.3827
11414SOL    HW135683   2.824   5.916   0.766  0.2417  0.0979 -0.9556
11414SOL    HW235684   2.906   6.042   0.749 -0.4437  0.5510 -0.9757
11415SOL     OW35685   7.310   5.657  12.271  0.0423 -0.3569  0.2789
11415SOL    HW135686   7.332   5.630  12.360 -0.2645 -0.6365  0.2710
11415SOL    HW235687   7.255   5.586  12.238 -0.3051  0.0127  0.0604
11416SOL     OW35688   0.576   7.256   1.041 -0.1696  0.2963 -0.4041
11416SOL    HW135689   0.528   7.323   1.090  0.3591 -1.0676  2.1710
11416SOL    HW235690   0.667   7.268   1.067  0.0107 -1.0032 -0.3717
11417SOL     OW35691   5.296   6.340   2.334 -0.1541 -0.1615  0.0431
11417SOL    HW135692   5.349   6.263   2.314  0.6253 -0.0757  1.6092
11417SOL    HW235693   5.360   6.411   2.340 -0.5356  0.1100  1.0811
11418SOL     OW35694   0.342   2.364   4.346  0.3491  0.3933 -0.2549
11418SOL    HW135695   0.289   2.296   4.387  1.5627 -0.3287  0.1737
11418SOL    HW235696   0.321   2.443   4.395  0.6463 -0.1513  0.7833
11419SOL     OW35697   7.587   6.205   1.783  0.0735 -0.5651  0.3783
11419SOL    HW135698   7.628   6.289   1.803 -0.4880 -0.4134  0.9322
11419SOL    HW235699   7.623   6.180   1.698 -0.0826  0.4531 -0.0054
11420SOL     OW35700   1.917   4.347   2.394 -0.1724 -0.0121 -0.5096
11420SOL    HW135701   1.996   4.383   2.353 -2.0874  3.5993 -1.4869
11420SOL    HW235702   1.894   4.411   2.461 -1.4303 -1.8522  0.9204
11421SOL     OW35703   1.984   6.222   6.363 -0.3733 -0.6174  0.6861
11421SOL    HW135704   1.986   6.189   6.453 -1.6287  1.9852  1.7913
11421SOL    HW235705   1.891   6.227   6.342 -0.0798 -2.4656 -1.3475
11422SOL     OW35706   7.368   2.365   1.474 -0.3393  0.7845  0.4353
11422SOL    HW135707   7.441   2.422   1.450 -1.3955  2.1178  0.2634
11422SOL    HW235708   7.367   2.296   1.407  0.9605  0.5345  0.6524
11423SOL     OW35709   4.644   6.315   5.532  0.2119 -0.0040 -0.4188
11423SOL    HW135710   4.606   6.237   5.491 -0.3809  0.5289 -0.9177
11423SOL    HW235711   4.576   6.346   5.592 -1.1571  2.1886 -2.8753
11424SOL     OW35712   0.955   2.020   9.682  0.6353 -0.4753 -0.2610
11424SOL    HW135713   0.912   1.987   9.761 -1.2557  0.3067 -0.9108
11424SOL    HW235714   1.046   1.992   9.691  0.2587 -1.2329  1.7250
11425SOL     OW35715   3.920   0.944   6.654  0.2229  0.5088 -0.0312
11425SOL    HW135716   3.975   0.989   6.718  1.2368 -0.7696  0.0276
11425SOL    HW235717   3.831   0.960   6.684  0.6485  0.7171  1.1727
11426SOL     OW35718   7.313   3.481   2.555 -0.2318 -0.5148 -0.4897
11426SOL    HW135719   7.350   3.411   2.501  1.6608 -0.2052  0.3187
11426SOL    HW235720   7.382   3.547   2.559 -1.4868  0.8246 -0.1614
11427SOL     OW35721   1.884   2.702   9.780 -0.4583 -0.0524  0.0846
11427SOL    HW135722   1.807   2.645   9.772 -0.1740 -0.2770 -1.3432
11427SOL    HW235723   1.954   2.643   9.809  0.0540 -0.6892 -2.2508
11428SOL     OW35724   6.133   2.623  10.717 -0.4799  0.3699 -0.1658
11428SOL    HW135725   6.220   2.584  10.719  0.1927  1.8215  0.5653
11428SOL    HW235726   6.074   2.552  10.741  0.6424 -0.3133  0.6575
11429SOL     OW35727   4.558   6.863  11.730 -0.6408 -0.2275 -0.1187
11429SOL    HW135728   4.497   6.806  11.778  1.3600 -2.4030  0.0058
11429SOL    HW235729   4.538   6.846  11.638 -1.6050  0.7082 -0.1070
11430SOL     OW35730   5.618   7.596  12.007 -0.3953  0.2999 -0.0798
11430SOL    HW135731   5.577   7.513  12.031  0.5267 -0.4075 -0.9008
11430SOL    HW235732   5.545   7.651  11.978 -0.8763 -0.6220 -0.6507
11431SOL     OW35733   2.536   0.642   8.880  0.3796  0.3614  0.6798
11431SOL    HW135734   2.619   0.648   8.927  0.5410  1.8588  0.2635
11431SOL    HW235735   2.502   0.555   8.900 -0.1408  1.2872  4.5454
11432SOL     OW35736   7.410   5.223   3.462 -0.4081  0.3675  0.3585
11432SOL    HW135737   7.358   5.278   3.521  0.3406  0.3008  1.0976
11432SOL    HW235738   7.469   5.284   3.418  0.4662  0.1876  1.2240
11433SOL     OW35739   6.720   3.091   4.804  0.5149 -0.5330  0.3211
11433SOL    HW135740   6.778   3.147   4.857  1.3199 -0.6532 -0.4101
11433SOL    HW235741   6.752   3.101   4.714 -2.1543  1.3696 -0.5571
11434SOL     OW35742   7.229   1.607  11.797 -0.4044  0.1023 -0.5830
11434SOL    HW135743   7.238   1.603  11.892 -0.5998  0.1966 -0.5580
11434SOL    HW235744   7.153   1.552  11.778  0.5557 -1.1634 -0.8416
11435SOL     OW35745   2.788   5.302   9.709  0.2864 -0.2949  0.0065
11435SOL    HW135746   2.758   5.354   9.783 -1.5062  0.2803 -1.0564
11435SOL    HW235747   2.789   5.212   9.741  1.7964  0.1554  1.3663
11436SOL     OW35748   4.974   0.933   8.770 -0.0568 -0.0670  0.6092
11436SOL    HW135749   4.961   0.997   8.840 -0.3165 -0.1390  0.6285
11436SOL    HW235750   5.055   0.959   8.728  0.5479 -0.4918  1.4583
11437SOL     OW35751   6.191   5.819   5.952 -0.0487  0.3051 -0.1820
11437SOL    HW135752   6.163   5.762   5.880 -0.8808  0.6899 -0.1620
11437SOL    HW235753   6.280   5.789   5.972  0.2559  0.2749 -1.4585
11438SOL     OW35754   2.275   5.037   4.903 -0.8670 -0.4201  0.1070
11438SOL    HW135755   2.185   5.045   4.871 -0.6332  0.7217 -0.2762
11438SOL    HW235756   2.329   5.076   4.835 -0.1113 -0.6265  0.5712
11439SOL     OW35757   1.611   3.701  10.480 -0.0233 -0.3484 -0.1178
11439SOL    HW135758   1.684   3.759  10.502  0.1437 -0.5565 -0.1163
11439SOL    HW235759   1.627   3.622  10.532  0.4808 -0.9233 -1.1100
11440SOL     OW35760   4.199   6.126   5.760 -0.7887  0.0585 -0.4024
11440SOL    HW135761   4.226   6.218   5.768  0.2544 -0.2443 -0.3491
11440SOL    HW235762   4.173   6.117   5.668  0.1514  0.1409 -0.6844
11441SOL     OW35763   6.301   0.246  10.512  0.3828  0.2303  0.0240
11441SOL    HW135764   6.361   0.173  10.529  0.2533  0.1925  0.3191
11441SOL    HW235765   6.358   0.316  10.479  0.2871 -0.5731 -1.9750
11442SOL     OW35766   6.339   0.052   1.489  0.8675 -0.1407  0.4661
11442SOL    HW135767   6.380  -0.031   1.465  1.2669  0.4305 -0.8939
11442SOL    HW235768   6.312   0.090   1.406 -0.4739  0.5117  1.1772
11443SOL     OW35769   6.237   1.844   4.614 -0.4461 -0.3385  0.2825
11443SOL    HW135770   6.298   1.772   4.627  0.1152  0.3846  2.0125
11443SOL    HW235771   6.260   1.907   4.682 -0.7233  1.6116 -1.3269
11444SOL     OW35772   2.564   3.367   4.532  0.1539  0.7015  0.5957
11444SOL    HW135773   2.480   3.402   4.562  1.4281  2.6301  2.1992
11444SOL    HW235774   2.554   3.359   4.437 -1.8266  0.8828  0.7424
11445SOL     OW35775   0.549   7.824   7.986 -0.8304  0.0666 -0.3151
11445SOL    HW135776   0.464   7.853   8.020 -0.0967  1.3096  0.5702
11445SOL    HW235777   0.594   7.789   8.063  0.0044  0.8198 -0.4455
11446SOL     OW35778   5.888   2.904  11.984 -0.4810 -0.5958 -0.0118
11446SOL    HW135779   5.979   2.892  12.013 -0.5562 -0.0880  0.4502
11446SOL    HW235780   5.892   2.897  11.889 -0.0435 -1.1309  0.0447
11447SOL     OW35781   4.527   3.975  11.426 -0.3439  0.3184 -0.2065
11447SOL    HW135782   4.473   4.046  11.392 -0.5018  0.8615  1.1043
11447SOL    HW235783   4.550   3.923  11.349 -1.0624  1.2156 -1.0551
11448SOL     OW35784   5.071   1.008   4.600  0.3257  0.0947  0.0068
11448SOL    HW135785   5.100   1.099   4.589 -0.8578  0.5504  0.4323
11448SOL    HW235786   4.989   1.004   4.551  0.9980 -1.1185 -1.0830
11449SOL     OW35787   7.975   0.625   5.232 -0.2168  0.3432  0.2780
11449SOL    HW135788   7.938   0.707   5.264  0.2281  0.6409  0.0405
11449SOL    HW235789   7.968   0.565   5.306  2.4941  1.5364  1.6676
11450SOL     OW35790   6.730   3.818   2.507  0.2779 -0.0367 -0.0722
11450SOL    HW135791   6.765   3.739   2.547  1.9928  0.0554 -1.2669
11450SOL    HW235792   6.727   3.882   2.579  1.2422 -0.4811  0.3865
11451SOL     OW35793   1.962   2.185   2.801 -0.1671 -0.1809 -0.0462
11451SOL    HW135794   2.047   2.140   2.809 -0.1176 -0.3491 -1.2988
11451SOL    HW235795   1.966   2.227   2.716 -2.1683 -1.9637 -1.1235
11452SOL     OW35796   5.581   0.298   2.735 -0.4691 -0.3881 -0.2705
11452SOL    HW135797   5.518   0.346   2.788  0.1245  0.8017 -0.6211
11452SOL    HW235798   5.561   0.323   2.645  1.4516  1.2544 -0.3109
11453SOL     OW35799   7.378   2.511   4.420  0.2658  0.7475 -0.2169
11453SOL    HW135800   7.458   2.459   4.429  0.1315  0.7558  1.2980
11453SOL    HW235801   7.348   2.523   4.510 -0.8037  1.7439 -0.6944
11454SOL     OW35802   3.607   0.588   7.430  0.3621 -0.0171 -0.2564
11454SOL    HW135803   3.570   0.634   7.506 -1.3837 -0.8758 -0.5335
11454SOL    HW235804   3.552   0.615   7.356  1.4768  0.1107 -1.0514
11455SOL     OW35805   5.286   7.877   7.421 -0.1003  0.3266  0.1441
11455SOL    HW135806   5.238   7.906   7.343 -1.1322 -0.8091  0.3177
11455SOL    HW235807   5.253   7.788   7.438  3.2895 -1.2475 -0.7084
11456SOL     OW35808   0.222   0.212   9.963 -0.2389  0.0679 -0.3437
11456SOL    HW135809   0.236   0.306   9.974 -0.4494  0.1984 -1.0777
11456SOL    HW235810   0.309   0.174   9.970 -0.4133 -0.0092  2.5284
11457SOL     OW35811   3.670   2.468   3.949 -0.2977  0.4151 -0.6515
11457SOL    HW135812   3.650   2.471   4.042 -0.2638  2.6399 -0.6823
11457SOL    HW235813   3.702   2.378   3.934 -2.1695 -0.5875  1.0425
11458SOL     OW35814   5.623   4.344   4.033 -0.2731  0.1353 -0.4230
11458SOL    HW135815   5.630   4.254   4.066  3.6201  1.2069  2.4564
11458SOL    HW235816   5.673   4.344   3.951 -1.0448 -0.4521 -0.9044
11459SOL     OW35817   2.481   2.962   8.218 -0.3762 -0.6059 -0.4444
11459SOL    HW135818   2.536   2.891   8.184  1.0388  1.2711 -2.2946
11459SOL    HW235819   2.418   2.980   8.148  0.3165  0.9819 -0.7018
11460SOL     OW35820   5.001   2.951   2.092  0.4019 -0.0480  0.1470
11460SOL    HW135821   4.985   2.906   2.009 -2.0083  0.8212  0.0537
11460SOL    HW235822   5.083   2.915   2.124  0.1308 -2.2215 -1.4176
11461SOL     OW35823   2.871   5.528   1.984 -0.0295  0.0575  0.5818
11461SOL    HW135824   2.922   5.579   2.047  1.4732 -0.5224 -0.1132
11461SOL    HW235825   2.842   5.451   2.033  0.7158 -0.1514  0.7076
11462SOL     OW35826   4.132   5.952   7.099  0.1709  0.1627  0.2370
11462SOL    HW135827   4.158   5.869   7.141  0.0854  0.9631  1.9752
11462SOL    HW235828   4.206   6.011   7.114 -0.4788  0.9085  0.5705
11463SOL     OW35829   7.732   1.827   0.172 -0.4678 -0.0291  0.5033
11463SOL    HW135830   7.749   1.836   0.078  0.0665 -1.8957  0.3879
11463SOL    HW235831   7.691   1.910   0.196 -0.0740  0.7324 -1.2473
11464SOL     OW35832   7.691   4.043  11.691  0.5415  0.0864 -0.2559
11464SOL    HW135833   7.645   3.997  11.761  0.1062  1.2439  0.2483
11464SOL    HW235834   7.665   3.997  11.611 -0.4361 -0.1044  0.1590
11465SOL     OW35835   7.692   0.081  10.154 -0.1351  0.0893  0.3054
11465SOL    HW135836   7.652   0.117  10.075 -0.1429 -0.1880  0.1829
11465SOL    HW235837   7.786   0.090  10.140 -0.0701 -1.5067 -0.4806
11466SOL     OW35838   2.301   0.233   7.949 -0.1936 -0.0056  0.1943
11466SOL    HW135839   2.215   0.259   7.981 -0.2939  1.1275 -0.9486
11466SOL    HW235840   2.311   0.142   7.978 -1.4566  0.0785  0.9511
11467SOL     OW35841   2.707   7.767   9.818  0.0632 -0.5405  0.4740
11467SOL    HW135842   2.647   7.841   9.820 -0.0537 -0.6253  0.1540
11467SOL    HW235843   2.766   7.781   9.892  1.5993  1.1770 -0.9807
11468SOL     OW35844   4.009   4.939  11.694  0.0405  0.5865  0.1722
11468SOL    HW135845   3.951   4.974  11.762 -0.8333  0.7091 -0.6097
11468SOL    HW235846   4.069   5.011  11.674 -0.9351  1.2193 -0.5338
11469SOL     OW35847   0.837   7.393   2.463  0.0190  0.0921  0.1831
11469SOL    HW135848   0.840   7.431   2.551  1.9360 -2.7539  1.4890
11469SOL    HW235849   0.918   7.424   2.421 -0.1094  0.1755 -0.0051
11470SOL     OW35850   5.605   4.665  12.301  0.4120  0.0818  0.6480
11470SOL    HW135851   5.629   4.581  12.341 -2.7743 -0.6194  1.3230
11470SOL    HW235852   5.510   4.663  12.295  0.4082  1.8594 -3.3943
11471SOL     OW35853   3.144   6.381   4.845 -0.2315  0.6630  0.1521
11471SOL    HW135854   3.158   6.397   4.939 -0.4009 -0.3324  0.3534
11471SOL    HW235855   3.168   6.290   4.833 -2.9933 -0.0912 -0.2057
11472SOL     OW35856   0.196   1.089  11.546  0.2149 -0.3402 -0.3967
11472SOL    HW135857   0.236   1.103  11.460  1.9943  0.5604  0.5213
11472SOL    HW235858   0.105   1.068  11.527  0.5399 -0.0583 -2.4943
11473SOL     OW35859   5.044   4.229   4.178  0.4383  0.1746 -0.7419
11473SOL    HW135860   5.001   4.191   4.254  1.4831 -1.2282 -0.7963
11473SOL    HW235861   5.006   4.182   4.103  0.1946  0.7800 -1.0050
11474SOL     OW35862   1.944   2.606   7.996 -0.0202  0.0873  0.3419
11474SOL    HW135863   1.939   2.654   7.914 -2.7580 -0.2583  0.2114
11474SOL    HW235864   1.987   2.524   7.974  2.2883  1.3070  0.0185
11475SOL     OW35865   1.802   6.131   2.891 -0.4784  0.3925  0.1992
11475SOL    HW135866   1.722   6.154   2.938 -0.4578  0.3764  0.2422
11475SOL    HW235867   1.810   6.197   2.822  0.7661  1.8480  1.6706
11476SOL     OW35868   1.234   0.153   0.839  0.0920  0.7364  0.2602
11476SOL    HW135869   1.174   0.086   0.871  0.9697  0.4125  1.2860
11476SOL    HW235870   1.274   0.114   0.762 -0.7150  0.7991 -0.1998
11477SOL     OW35871   3.677   7.415   3.319  0.5307  0.5213 -0.0462
11477SOL    HW135872   3.592   7.458   3.309  0.2808  0.4119  1.3631
11477SOL    HW235873   3.734   7.458   3.255  0.0492  2.3274  0.6777
11478SOL     OW35874   3.535   1.196   6.459 -0.6620 -0.0187  0.0107
11478SOL    HW135875   3.491   1.218   6.541 -0.7851 -1.4534  0.3378
11478SOL    HW235876   3.505   1.108   6.438 -0.3964  0.2101 -1.4256
11479SOL     OW35877   5.768   4.064  11.113 -0.4769 -0.0207 -0.4646
11479SOL    HW135878   5.762   3.999  11.043 -1.2316 -0.5759  0.0929
11479SOL    HW235879   5.731   4.144  11.075 -1.6937 -0.5523 -0.4429
11480SOL     OW35880   2.203   7.488   4.791 -0.2050 -0.4212 -1.0066
11480SOL    HW135881   2.154   7.486   4.709 -1.2889 -3.2193 -0.4230
11480SOL    HW235882   2.136   7.482   4.859  0.5686  2.9858  0.2751
11481SOL     OW35883   1.848   4.638   4.620  0.4311 -0.9964  0.0781
11481SOL    HW135884   1.779   4.618   4.557 -2.7097  0.5584  2.7127
11481SOL    HW235885   1.907   4.697   4.573 -0.4749 -1.6662 -2.0231
11482SOL     OW35886   1.017   0.948   0.177 -0.1273  0.3347  0.1553
11482SOL    HW135887   1.042   1.024   0.229  1.0857 -0.9126  1.4887
11482SOL    HW235888   1.099   0.901   0.163 -0.7079 -0.2897 -1.4182
11483SOL     OW35889   6.726   0.716   1.234 -0.2997  0.0901  0.0923
11483SOL    HW135890   6.696   0.711   1.324  1.9545 -0.0537  0.9076
11483SOL    HW235891   6.800   0.655   1.230  0.6312  1.2284 -1.4339
11484SOL     OW35892   1.990   5.318   3.346 -0.4718 -0.2295  0.4530
11484SOL    HW135893   2.053   5.344   3.414  0.0291 -0.4331  0.0795
11484SOL    HW235894   1.932   5.256   3.389 -1.0536  0.7206  1.0841
11485SOL     OW35895   7.466   5.931   8.709  0.0287  0.4541 -0.0241
11485SOL    HW135896   7.485   5.846   8.747  1.2673  1.6076  2.0692
11485SOL    HW235897   7.405   5.912   8.638  0.4225 -2.1768  0.2585
11486SOL     OW35898   6.239   6.294  11.177  0.4527  0.1044  0.0335
11486SOL    HW135899   6.259   6.206  11.208 -1.2492 -0.6217 -0.8424
11486SOL    HW235900   6.298   6.350  11.228  0.4081 -1.3681  1.8299
11487SOL     OW35901   2.785   5.821   9.307 -0.1420  0.2092  0.6520
11487SOL    HW135902   2.752   5.797   9.393  1.3821 -1.6909  0.7822
11487SOL    HW235903   2.819   5.909   9.317 -0.0438  0.0314  1.9690
11488SOL     OW35904   7.326   5.259   0.176 -0.2213 -0.0287 -0.5444
11488SOL    HW135905   7.255   5.207   0.139 -0.9192  0.8131 -0.4077
11488SOL    HW235906   7.304   5.268   0.268  0.4265 -0.3327 -0.3491
11489SOL     OW35907   6.960   4.870   1.927  0.0774 -0.0346 -0.2427
11489SOL    HW135908   6.955   4.963   1.907  0.4609 -0.0028 -0.1932
11489SOL    HW235909   7.017   4.834   1.859  0.4299 -0.1269  0.0969
11490SOL     OW35910   5.278   5.351   4.778 -0.0975 -0.0292  0.1988
11490SOL    HW135911   5.193   5.317   4.807  0.6874 -2.9237 -0.6061
11490SOL    HW235912   5.311   5.399   4.854 -1.4484 -0.8320  1.3493
11491SOL     OW35913   5.644   2.184   1.660 -0.5878  0.0950 -0.8722
11491SOL    HW135914   5.713   2.208   1.599  1.0533 -0.1515  0.7797
11491SOL    HW235915   5.628   2.264   1.710 -1.4284  0.1182 -1.1711
11492SOL     OW35916   5.112   6.956   5.297  0.7424  0.2995 -0.2048
11492SOL    HW135917   5.108   6.883   5.236  0.1230  0.4391 -0.3393
11492SOL    HW235918   5.034   7.008   5.278  1.3628  1.2022 -0.3626
11493SOL     OW35919   7.747   7.488   5.970 -0.4468 -0.4621 -0.5572
11493SOL    HW135920   7.797   7.561   5.933  0.6816 -1.0143 -0.1484
11493SOL    HW235921   7.680   7.470   5.904 -1.4893  1.6495 -0.1879
11494SOL     OW35922   6.082   2.749   1.440  0.6413 -0.3588 -0.4643
11494SOL    HW135923   6.075   2.761   1.534 -0.5069 -1.0867 -0.4307
11494SOL    HW235924   6.079   2.837   1.404  0.8094 -0.0925  0.1647
11495SOL     OW35925   0.421   5.832   9.411  0.0181  0.0728 -0.1492
11495SOL    HW135926   0.402   5.883   9.331 -0.1959 -1.1077 -0.8764
11495SOL    HW235927   0.343   5.778   9.423  0.3410 -0.2591  0.4662
11496SOL     OW35928   0.692   2.534   4.007  0.1146 -0.4980 -0.0514
11496SOL    HW135929   0.770   2.574   3.968  0.5106 -0.8641  0.3492
11496SOL    HW235930   0.719   2.512   4.096 -0.7749  0.3210  0.4345
11497SOL     OW35931   1.647   3.106  11.672  0.2105 -1.0378  0.1982
11497SOL    HW135932   1.622   3.077  11.760 -2.1813  0.0963 -0.0219
11497SOL    HW235933   1.570   3.089  11.618  1.0571 -0.2527 -1.3229
11498SOL     OW35934   0.420   5.892   7.847 -0.6696  0.0528  0.5600
11498SOL    HW135935   0.476   5.913   7.772 -0.9723  0.3923  0.4313
11498SOL    HW235936   0.337   5.936   7.829 -1.3142 -1.2256  0.2930
11499SOL     OW35937   0.915   2.092   1.606 -0.6537 -0.5390 -0.1643
11499SOL    HW135938   0.953   2.083   1.518 -1.1454 -0.1258 -0.4225
11499SOL    HW235939   0.821   2.098   1.591 -0.7401 -0.4444  0.3936
11500SOL     OW35940   0.385   5.080   0.625 -0.4396 -0.7811 -0.8823
11500SOL    HW135941   0.321   5.105   0.558 -2.3164 -1.2861  0.6152
11500SOL    HW235942   0.437   5.011   0.584 -0.7834 -0.2930 -2.1912
11501SOL     OW35943   6.244   6.653   1.515 -0.2731 -0.0321 -0.2037
11501SOL    HW135944   6.309   6.584   1.524 -0.8823 -0.6923 -0.7903
11501SOL    HW235945   6.188   6.625   1.443 -1.9596 -0.0696  1.0572
11502SOL     OW35946   2.456   5.290   6.708 -0.0430  0.0377  0.2274
11502SOL    HW135947   2.383   5.267   6.651  0.5631 -0.2512 -0.4581
11502SOL    HW235948   2.534   5.271   6.655  0.5209  0.5980  0.8399
11503SOL     OW35949   0.173   0.344   9.664 -0.2855  0.3550 -0.1843
11503SOL    HW135950   0.145   0.435   9.660 -0.3578  0.3623  0.3938
11503SOL    HW235951   0.098   0.297   9.701 -0.4859 -0.0504 -1.0621
11504SOL     OW35952   4.325   2.702   9.459 -0.3408 -0.0727 -0.9353
11504SOL    HW135953   4.285   2.733   9.378  0.8574 -0.6447 -1.7778
11504SOL    HW235954   4.310   2.772   9.522 -0.5144  0.7810 -1.9037
11505SOL     OW35955   2.358   5.295   1.266 -0.3143  0.0138 -0.1567
11505SOL    HW135956   2.329   5.324   1.180 -2.4166  0.3844  0.6251
11505SOL    HW235957   2.277   5.275   1.314  0.7961 -0.3236  1.6891
11506SOL     OW35958   2.699   5.533  12.252 -0.2885  0.2781 -0.0480
11506SOL    HW135959   2.633   5.557  12.187 -1.2112 -1.1900  0.2908
11506SOL    HW235960   2.760   5.477  12.205 -0.1889  0.3201  0.0300
11507SOL     OW35961   4.917   6.255   2.322 -0.2090 -0.1090  0.1579
11507SOL    HW135962   4.843   6.198   2.342  0.2414 -0.9714 -0.5141
11507SOL    HW235963   4.985   6.228   2.384 -0.2683  0.2983  0.4051
11508SOL     OW35964   6.815   7.739   3.032  0.5363 -0.4640  0.5363
11508SOL    HW135965   6.797   7.801   2.961  0.7917 -0.0185  0.8577
11508SOL    HW235966   6.768   7.659   3.007 -1.3038  0.4186  0.9925
11509SOL     OW35967   7.829   0.583   2.433  0.5829 -0.0538  0.1490
11509SOL    HW135968   7.852   0.552   2.346  0.8028  2.4351 -0.7591
11509SOL    HW235969   7.881   0.529   2.493  2.2583 -0.2361 -1.3985
11510SOL     OW35970   7.402   1.311  10.266  0.8836 -0.7436 -0.0145
11510SOL    HW135971   7.365   1.225  10.249  0.7521 -0.7449  0.2724
11510SOL    HW235972   7.384   1.327  10.359 -0.2921  0.1655 -0.3739
11511SOL     OW35973   0.959   1.463   8.169  0.5828 -0.1686  0.5048
11511SOL    HW135974   0.934   1.525   8.100  3.1728 -0.8361 -1.2136
11511SOL    HW235975   0.892   1.394   8.165  0.7263 -0.2805 -1.5473
11512SOL     OW35976   0.964   7.830   6.756  0.0348 -0.0041 -0.2153
11512SOL    HW135977   0.946   7.749   6.709 -1.7672  0.1725  0.1154
11512SOL    HW235978   0.907   7.895   6.716  1.9901  1.3537 -0.9946
11513SOL     OW35979   5.043   6.960   0.044  0.6364  0.2408  0.1295
11513SOL    HW135980   4.972   6.909   0.083  0.0951  1.0347  0.1994
11513SOL    HW235981   5.084   6.900  -0.018  0.7228 -0.6428  1.0134
11514SOL     OW35982   7.499   4.306   6.617 -0.0988 -0.4477  0.5955
11514SOL    HW135983   7.475   4.242   6.550 -1.7859  0.3052  0.4286
11514SOL    HW235984   7.484   4.391   6.576 -0.0336  0.0329  1.5355
11515SOL     OW35985   6.948   1.422   2.658 -0.2630 -0.3247  0.5832
11515SOL    HW135986   6.981   1.458   2.740  1.1989 -0.1213 -0.0697
11515SOL    HW235987   7.024   1.419   2.600 -1.3324 -0.1055 -0.8998
11516SOL     OW35988   0.198   1.117   0.572  0.5882 -0.9603  0.3168
11516SOL    HW135989   0.205   1.205   0.609 -0.4292 -0.2110 -1.1808
11516SOL    HW235990   0.150   1.129   0.490  1.6214 -2.7218 -0.6113
11517SOL     OW35991   0.431   4.664   3.869  0.2670 -0.2439  0.5144
11517SOL    HW135992   0.466   4.576   3.885  1.7179  0.0807 -0.6893
11517SOL    HW235993   0.364   4.651   3.802  2.7303 -0.1411 -2.1871
11518SOL     OW35994   2.697   5.695   8.378  0.0144 -0.0827 -0.3883
11518SOL    HW135995   2.671   5.689   8.286 -0.3871 -2.5745 -0.1999
11518SOL    HW235996   2.615   5.692   8.426  0.2924 -0.3092  0.0796
11519SOL     OW35997   7.970   0.948   9.987 -0.2524  0.3600  0.1810
11519SOL    HW135998   7.882   0.984   9.978 -0.2234  0.6724  1.0750
11519SOL    HW235999   7.998   0.975  10.074  0.6430  0.0696 -0.0104
11520SOL     OW36000   0.678   6.543   4.275 -0.4005  0.0856  0.1672
11520SOL    HW136001   0.610   6.477   4.258  1.3088 -1.3211 -1.6951
11520SOL    HW236002   0.695   6.582   4.189 -0.1194  1.7422  0.9344
11521SOL     OW36003   0.877   4.635   8.656 -0.0109 -0.1745  0.9949
11521SOL    HW136004   0.804   4.688   8.685  0.0769  0.7446 -0.3398
11521SOL    HW236005   0.876   4.644   8.560  1.0539 -1.1938  0.8665
11522SOL     OW36006   3.585   7.439   6.635  0.1663  0.2197  0.7339
11522SOL    HW136007   3.490   7.443   6.626  0.2660  2.8680  0.0407
11522SOL    HW236008   3.601   7.460   6.727  0.1036  1.4842  0.4738
11523SOL     OW36009   5.108   6.778   0.965  0.6579  0.2387 -0.2806
11523SOL    HW136010   5.057   6.853   0.937  0.0532  0.1957  0.6331
11523SOL    HW236011   5.171   6.814   1.028  0.0834 -0.0660  0.4837
11524SOL     OW36012   6.877   7.892   8.090 -0.1447 -0.4228  0.4644
11524SOL    HW136013   6.913   7.845   8.016 -0.3627 -1.8918  1.2630
11524SOL    HW236014   6.946   7.890   8.156  0.2096  1.2330  0.2059
11525SOL     OW36015   2.425   5.703  11.025  0.3118 -0.1780 -0.0265
11525SOL    HW136016   2.495   5.703  10.959 -0.0343 -1.1214 -0.4210
11525SOL    HW236017   2.430   5.616  11.065 -0.7170 -0.3270 -0.1757
11526SOL     OW36018   6.481   2.010   6.282  0.0722  0.6206  0.7167
11526SOL    HW136019   6.418   2.071   6.320 -0.7607 -0.0068  0.3651
11526SOL    HW236020   6.428   1.950   6.230  0.9036 -0.2777  0.8813
11527SOL     OW36021   5.295   1.688   7.651  0.1140  0.3908  0.0827
11527SOL    HW136022   5.226   1.718   7.710 -0.7677 -0.0536 -0.6966
11527SOL    HW236023   5.374   1.689   7.705 -0.6596 -0.0010  1.2761
11528SOL     OW36024   4.564   5.341   5.016 -0.2657  0.0712  0.4808
11528SOL    HW136025   4.625   5.280   5.056  0.7252  0.8373  0.1864
11528SOL    HW236026   4.480   5.295   5.015  0.7552 -1.8953 -1.1555
11529SOL     OW36027   1.718   0.419   0.627  0.3839  0.7883 -0.2930
11529SOL    HW136028   1.786   0.437   0.693  0.3751 -1.8099  0.5329
11529SOL    HW236029   1.762   0.366   0.561 -0.4668  0.3794 -0.5455
11530SOL     OW36030   7.296   3.293   4.704  0.5341  0.1892 -0.1864
11530SOL    HW136031   7.241   3.217   4.683  1.5213 -0.4095 -0.7086
11530SOL    HW236032   7.335   3.317   4.620 -0.3630  1.7863 -0.1805
11531SOL     OW36033   2.983   4.090   5.348  0.2093 -0.7688 -0.4321
11531SOL    HW136034   3.030   4.110   5.268 -1.2688  0.8723 -0.9598
11531SOL    HW236035   3.031   4.136   5.417 -0.4883  0.7592 -0.9372
11532SOL     OW36036   6.046   2.638   4.985  0.3039  0.5107 -0.3023
11532SOL    HW136037   6.039   2.542   4.977 -1.6566  0.5750  0.1218
11532SOL    HW236038   6.032   2.656   5.078 -0.7768  1.2813 -0.5956
11533SOL     OW36039   5.817   0.930   8.296 -0.2339 -0.2808  0.5990
11533SOL    HW136040   5.892   0.948   8.352  0.1607 -0.2730  0.0839
11533SOL    HW236041   5.815   1.003   8.234 -1.2884  0.2485  1.2429
11534SOL     OW36042   3.858   2.867   9.613 -0.3643 -0.6444  0.2237
11534SOL    HW136043   3.898   2.792   9.659 -0.4063 -1.4233 -0.9772
11534SOL    HW236044   3.891   2.861   9.524 -1.6442 -0.1678 -0.3035
11535SOL     OW36045   5.213   4.685   4.320 -0.0331 -0.3604  0.1134
11535SOL    HW136046   5.295   4.708   4.365 -0.4344  0.5855  0.3882
11535SOL    HW236047   5.147   4.687   4.389 -0.2285 -1.5260 -0.0355
11536SOL     OW36048   5.887   0.911   3.270 -0.0926  0.4830 -0.0166
11536SOL    HW136049   5.850   0.999   3.262 -1.2744  0.1142  0.9479
11536SOL    HW236050   5.828   0.866   3.331 -1.7699 -2.1577 -3.2308
11537SOL     OW36051   0.207   4.014  10.755  0.4222  0.4006  0.9927
11537SOL    HW136052   0.112   4.022  10.741  0.3960  0.2491  1.0897
11537SOL    HW236053   0.236   4.104  10.774  0.9686  1.3526 -3.2666
11538SOL     OW36054   6.738   5.399   4.734 -0.0942 -0.5174 -0.0145
11538SOL    HW136055   6.751   5.342   4.658  0.8343 -1.4630  0.8120
11538SOL    HW236056   6.704   5.480   4.698  2.4686 -0.0890 -1.7280
11539SOL     OW36057   3.614   7.289   1.876  0.1050  0.7041 -0.1070
11539SOL    HW136058   3.703   7.323   1.886  0.2229  1.1096 -2.0528
11539SOL    HW236059   3.625   7.206   1.830 -0.5120  0.9406 -0.7128
11540SOL     OW36060   4.151   0.595   9.168 -0.8597 -0.6354  0.3863
11540SOL    HW136061   4.210   0.641   9.229 -1.6262 -1.3856  1.7457
11540SOL    HW236062   4.205   0.577   9.092 -0.0920  1.0866  0.4738
11541SOL     OW36063   6.622   6.949   2.433  0.1537 -0.2308  0.1813
11541SOL    HW136064   6.571   6.885   2.482  0.4132  0.9105  2.0180
11541SOL    HW236065   6.705   6.906   2.415 -0.5856 -1.2877 -0.8553
11542SOL     OW36066   7.792   3.781   1.719 -0.7208  0.1985 -0.3784
11542SOL    HW136067   7.846   3.803   1.644 -0.8481 -1.8599 -1.1268
11542SOL    HW236068   7.841   3.814   1.795 -0.1277  1.4243 -1.2743
11543SOL     OW36069   0.538   7.800  10.210  0.7786 -0.5475  0.4072
11543SOL    HW136070   0.484   7.808  10.131 -1.9569 -0.7399  2.1372
11543SOL    HW236071   0.620   7.845  10.188 -0.1525  0.0057 -2.2724
11544SOL     OW36072   4.479   2.668   2.144  0.0458 -0.1452  0.6330
11544SOL    HW136073   4.424   2.708   2.211  0.6578  1.1281  0.3980
11544SOL    HW236074   4.561   2.718   2.146  0.4818 -0.7828 -0.3235
11545SOL     OW36075   3.328   3.649  10.157  0.1368 -0.3010 -0.4655
11545SOL    HW136076   3.261   3.650  10.089  0.1217  0.7190 -0.4476
11545SOL    HW236077   3.288   3.599  10.228  0.3614 -1.8360 -1.3832
11546SOL     OW36078   7.943   5.576   2.473  0.8415  0.0641  0.0642
11546SOL    HW136079   7.871   5.517   2.490 -0.3502  1.5354  0.3140
11546SOL    HW236080   7.967   5.559   2.381  0.8665 -1.1091  0.2693
11547SOL     OW36081   0.983   5.390   1.347  0.4079  0.3013 -0.0564
11547SOL    HW136082   0.930   5.428   1.277 -0.3932 -1.4596 -0.4536
11547SOL    HW236083   1.053   5.343   1.302 -0.2228 -1.0030  0.2960
11548SOL     OW36084   6.521   4.302   0.014  0.0666 -0.0705 -0.3094
11548SOL    HW136085   6.533   4.212   0.046  0.6506  0.4242  0.9441
11548SOL    HW236086   6.509   4.354   0.093 -0.8979  0.8810 -1.0553
11549SOL     OW36087   1.472   0.848   7.729  0.8190  0.8403  0.3035
11549SOL    HW136088   1.468   0.944   7.729 -0.5835  0.8059  0.0417
11549SOL    HW236089   1.495   0.824   7.640  2.8150  0.9414  0.7405
11550SOL     OW36090   1.862   5.970   3.551  0.0580 -0.4675 -0.2181
11550SOL    HW136091   1.865   6.018   3.468  1.0354  1.0761  0.6667
11550SOL    HW236092   1.777   5.993   3.589  0.1903 -0.0685 -0.1615
11551SOL     OW36093   7.110   2.532   3.657 -0.0516  0.0652  0.3158
11551SOL    HW136094   7.088   2.614   3.614 -0.8265 -0.2699  0.0523
11551SOL    HW236095   7.149   2.558   3.741  1.6495  0.7238 -0.6319
11552SOL     OW36096   4.571   2.315   9.359  0.2186 -0.8962 -0.5832
11552SOL    HW136097   4.601   2.315   9.450  0.7923 -3.1367 -0.7163
11552SOL    HW236098   4.479   2.343   9.364  1.3495  3.4458  0.1193
11553SOL     OW36099   2.572   1.104   8.154 -0.3685 -0.1141 -0.1587
11553SOL    HW136100   2.595   1.021   8.197 -1.0823  0.4111  1.3326
11553SOL    HW236101   2.495   1.083   8.101 -2.4975  0.0906  2.5558
11554SOL     OW36102   4.729   5.004   3.160 -0.0263  0.4496  1.0477
11554SOL    HW136103   4.644   4.996   3.203  0.1914  0.7742  1.5597
11554SOL    HW236104   4.780   5.059   3.220  0.6419 -0.0025  0.9004
11555SOL     OW36105   4.809   1.237   3.510  0.3749  0.4597  0.3900
11555SOL    HW136106   4.787   1.150   3.545  0.7841  0.2701  0.1806
11555SOL    HW236107   4.760   1.298   3.566 -1.2321  0.0190 -0.4798
11556SOL     OW36108   6.816   6.467   0.440 -0.1872 -0.4206  0.0102
11556SOL    HW136109   6.868   6.514   0.505 -1.2420  0.0687  0.5323
11556SOL    HW236110   6.775   6.536   0.388  0.1723 -0.8063 -0.8000
11557SOL     OW36111   4.076   2.667   7.585 -0.9072  0.3993 -1.2443
11557SOL    HW136112   4.033   2.582   7.595  0.4461 -0.1436  0.7954
11557SOL    HW236113   4.024   2.727   7.638 -0.3778  0.1893 -0.4510
11558SOL     OW36114   4.124   2.517   4.314  0.1536  0.4578  0.0017
11558SOL    HW136115   4.150   2.436   4.358 -1.4590  0.5374  1.1910
11558SOL    HW236116   4.155   2.587   4.371  0.3258  0.6562 -0.3263
11559SOL     OW36117   4.667   2.800   7.026  0.5142 -0.0048  0.7710
11559SOL    HW136118   4.658   2.795   7.121 -1.5705  1.1543  0.6914
11559SOL    HW236119   4.749   2.754   7.007  1.8190  1.0890  3.2694
11560SOL     OW36120   7.728   3.590  11.143 -0.1140 -0.2975 -0.4522
11560SOL    HW136121   7.783   3.657  11.103  1.5588 -1.6906 -0.6047
11560SOL    HW236122   7.720   3.522  11.076 -1.0698 -0.6525 -0.0066
11561SOL     OW36123   2.616   2.969   0.770  0.2479  0.4802 -0.7469
11561SOL    HW136124   2.622   3.007   0.858 -0.6923 -2.1570  0.5861
11561SOL    HW236125   2.550   3.022   0.725  0.5339  1.7081  0.2363
11562SOL     OW36126   2.848   3.289   8.826 -0.6882  0.1164  0.3845
11562SOL    HW136127   2.849   3.237   8.907  1.9991 -1.3359 -0.4725
11562SOL    HW236128   2.930   3.338   8.828 -0.5611  0.0364 -1.4492
11563SOL     OW36129   6.144   1.626   9.773  0.1501 -0.3779 -0.1946
11563SOL    HW136130   6.116   1.687   9.704  1.4900 -1.0586 -1.3912
11563SOL    HW236131   6.226   1.663   9.805 -0.4151 -0.1227  0.9959
11564SOL     OW36132   2.435   4.788   0.145  0.3192 -0.1705 -1.1182
11564SOL    HW136133   2.377   4.856   0.110  0.3854  0.6046  0.1910
11564SOL    HW236134   2.397   4.765   0.230  0.1457 -2.0163 -1.6632
11565SOL     OW36135   3.964   5.531   6.790 -0.0008 -0.1887 -0.6550
11565SOL    HW136136   4.026   5.463   6.763  0.3368  0.8360 -2.6580
11565SOL    HW236137   4.012   5.613   6.780 -0.4491  0.4075  1.5704
11566SOL     OW36138   4.997   5.235   0.012  0.2132  0.5022 -0.2255
11566SOL    HW136139   5.030   5.244  -0.077  1.1961  0.5862  0.1245
11566SOL    HW236140   4.921   5.293   0.017  1.5511  2.3636 -0.3458
11567SOL     OW36141   7.642   2.914   5.252 -0.2564  0.4434  0.3159
11567SOL    HW136142   7.735   2.891   5.261 -0.9475 -2.0151  1.9873
11567SOL    HW236143   7.640   3.008   5.272  2.0099  0.9095 -1.1905
11568SOL     OW36144   5.500   1.168   5.161 -0.0004  0.4340 -0.1393
11568SOL    HW136145   5.579   1.163   5.216  0.0525  1.0295 -0.1586
11568SOL    HW236146   5.447   1.236   5.202  0.4117  1.4843 -1.3029
11569SOL     OW36147   4.575   3.471   6.403  0.0397 -0.3814  0.2660
11569SOL    HW136148   4.514   3.455   6.476  0.3938 -0.8468  0.4664
11569SOL    HW236149   4.565   3.394   6.347 -0.1572 -0.0700 -0.1274
11570SOL     OW36150   3.915   1.676   8.025 -0.4766  0.1923 -0.0987
11570SOL    HW136151   3.925   1.669   7.930 -0.2790  0.9275 -0.1376
11570SOL    HW236152   3.821   1.682   8.039 -0.4683  0.9891 -0.3272
11571SOL     OW36153   5.118   2.986   2.731 -0.2733 -0.2688  0.2567
11571SOL    HW136154   5.184   2.991   2.662 -0.2288  1.4302  0.3887
11571SOL    HW236155   5.058   2.918   2.701  0.0590  0.0296 -1.1728
11572SOL     OW36156   4.317   7.487  11.511 -0.0304  0.1802  0.4080
11572SOL    HW136157   4.379   7.504  11.440  0.6295  0.6427  1.0885
11572SOL    HW236158   4.312   7.569  11.559 -1.1898  0.1527  0.3675
11573SOL     OW36159   7.822   6.823   4.826  0.1939  0.1448 -0.2980
11573SOL    HW136160   7.819   6.878   4.748 -1.8264  0.2332 -0.2176
11573SOL    HW236161   7.855   6.739   4.796  1.8322  0.9152 -0.7277
11574SOL     OW36162   0.704   4.703  10.038 -0.5399  0.6822 -0.9244
11574SOL    HW136163   0.654   4.624  10.060  2.8851 -1.5366 -0.2983
11574SOL    HW236164   0.675   4.727   9.950 -0.7784 -2.1261 -1.6964
11575SOL     OW36165   7.298   1.321   4.081 -0.4694  0.9313  0.2346
11575SOL    HW136166   7.205   1.343   4.075 -0.2168  2.5497  1.5886
11575SOL    HW236167   7.303   1.256   4.151 -0.4313  2.0297  1.2777
11576SOL     OW36168   1.681   3.126   6.261 -0.2881  0.0480 -0.0607
11576SOL    HW136169   1.629   3.106   6.183  2.9246 -0.9935 -2.1268
11576SOL    HW236170   1.671   3.049   6.317 -0.7560 -0.2363 -0.5294
11577SOL     OW36171   0.522   1.086  12.427  0.1352  0.3435 -0.1883
11577SOL    HW136172   0.463   1.046  12.490  0.2717  0.4068 -0.0192
11577SOL    HW236173   0.549   1.015  12.370  1.8748 -0.2191  1.2545
11578SOL     OW36174   0.634   7.629   5.529  0.2529  0.1213  0.4605
11578SOL    HW136175   0.673   7.694   5.588 -0.2003  0.4509  0.4063
11578SOL    HW236176   0.691   7.629   5.452  1.5555 -1.2092  1.3856
11579SOL     OW36177   1.152   3.091  12.176 -0.2844  0.6843 -0.0687
11579SOL    HW136178   1.162   3.162  12.239 -1.5529  0.5720  0.2822
11579SOL    HW236179   1.057   3.075  12.172  0.0101 -1.8125  0.8052
11580SOL     OW36180   4.451   6.791   8.589 -0.0036 -0.5494  0.9298
11580SOL    HW136181   4.416   6.820   8.674 -0.0789  1.0962  0.3710
11580SOL    HW236182   4.374   6.774   8.536 -0.0272  1.6152  0.1805
11581SOL     OW36183   1.288   2.315   3.887  0.5311  0.4443  0.2503
11581SOL    HW136184   1.378   2.329   3.915  0.7709 -0.3475 -0.1154
11581SOL    HW236185   1.284   2.223   3.861  0.2471  1.0146 -2.0017
11582SOL     OW36186   2.802   5.813   7.888 -0.3855 -0.6722  0.1152
11582SOL    HW136187   2.754   5.863   7.823  1.0133 -0.1030 -0.5047
11582SOL    HW236188   2.842   5.741   7.839  2.0893  0.7251 -0.0371
11583SOL     OW36189   2.274   6.764  10.287  0.1950  0.5489  0.1634
11583SOL    HW136190   2.333   6.819  10.338  0.4184  1.7496 -1.3213
11583SOL    HW236191   2.233   6.824  10.225  0.5137 -0.9719 -1.5855
11584SOL     OW36192   5.280   0.484   1.628 -0.4034 -0.5226  0.8235
11584SOL    HW136193   5.214   0.416   1.639 -1.8797  0.4584 -1.2468
11584SOL    HW236194   5.330   0.457   1.551  2.0639 -1.5139  2.6481
11585SOL     OW36195   0.751   0.358  10.893  0.0639 -0.3546 -0.0775
11585SOL    HW136196   0.715   0.271  10.874 -0.1101 -0.2278 -0.3471
11585SOL    HW236197   0.779   0.353  10.984  0.0698 -0.6991 -0.0964
11586SOL     OW36198   6.463   4.155   7.194  0.0113  0.3777  0.1646
11586SOL    HW136199   6.444   4.213   7.268 -0.0419 -1.7744  1.9578
11586SOL    HW236200   6.538   4.103   7.223 -1.6514 -2.3870 -0.1088
11587SOL     OW36201   0.179   3.466   1.008 -0.2697 -0.1132 -0.0061
11587SOL    HW136202   0.271   3.436   1.005 -0.1985  0.1261 -0.2954
11587SOL    HW236203   0.185   3.559   1.028 -0.4029  0.0998 -0.9086
11588SOL     OW36204   7.885   0.124   2.593  0.2530 -0.1430 -0.6808
11588SOL    HW136205   7.902   0.044   2.643 -2.7892  0.0067  0.7894
11588SOL    HW236206   7.849   0.092   2.510  0.2200 -0.3073 -0.6049
11589SOL     OW36207   3.488   5.801   2.373  0.3161  0.4478 -0.4656
11589SOL    HW136208   3.447   5.755   2.446 -0.1660 -0.1819 -1.1158
11589SOL    HW236209   3.452   5.759   2.295  1.5881  0.4260 -1.0696
11590SOL     OW36210   1.907   6.735   2.910  0.2646 -0.1704 -0.4899
11590SOL    HW136211   1.866   6.648   2.913  1.0200 -0.5316 -0.3422
11590SOL    HW236212   1.916   6.754   2.817 -1.5141  0.5469 -0.5570
11591SOL     OW36213   1.496   3.211   3.659  0.2706 -0.3389 -0.1179
11591SOL    HW136214   1.557   3.278   3.691  0.9679 -0.2507 -1.5729
11591SOL    HW236215   1.418   3.260   3.631 -0.9955 -0.5313  2.7124
11592SOL     OW36216   3.432   2.003   7.531  0.1283  0.5035 -0.1443
11592SOL    HW136217   3.412   1.933   7.593  0.9563 -0.5346 -0.9964
11592SOL    HW236218   3.527   2.004   7.526  0.0843  0.6801 -1.2491
11593SOL     OW36219   2.222   2.955   3.830 -0.2521  0.1480 -0.2877
11593SOL    HW136220   2.234   2.961   3.925  2.5345  0.0931 -0.5349
11593SOL    HW236221   2.254   2.868   3.807 -2.0648 -0.3327 -1.1920
11594SOL     OW36222   7.779   2.465   8.450 -0.2051 -0.1025 -0.0343
11594SOL    HW136223   7.779   2.552   8.411 -2.0494 -0.5837 -1.2458
11594SOL    HW236224   7.705   2.420   8.409  1.0816 -2.4723  0.0374
11595SOL     OW36225   7.628   1.747   6.644  0.2366  0.7614  0.1465
11595SOL    HW136226   7.606   1.686   6.573  0.0345  0.6266  0.3259
11595SOL    HW236227   7.559   1.736   6.708 -0.9372  2.6414 -0.7129
11596SOL     OW36228   1.523   1.352   7.452  0.0815 -0.1199  0.1384
11596SOL    HW136229   1.547   1.377   7.363 -0.6741 -3.2984 -1.0917
11596SOL    HW236230   1.432   1.323   7.445 -0.4904  0.9408  2.3151
11597SOL     OW36231   6.345   4.671   4.684 -0.1941  0.2238 -0.3555
11597SOL    HW136232   6.306   4.753   4.656  2.9223  1.5716 -1.0941
11597SOL    HW236233   6.284   4.604   4.655 -2.3102  2.1815 -0.6589
11598SOL     OW36234   3.675   1.404   9.293  0.3454  0.3193  0.1604
11598SOL    HW136235   3.768   1.425   9.290  0.8946 -1.7707  0.8469
11598SOL    HW236236   3.664   1.335   9.228 -0.7566  0.5949  0.0416
11599SOL     OW36237   2.818   0.030   9.638  0.0848  0.2318 -0.2685
11599SOL    HW136238   2.827  -0.030   9.565  3.0283 -0.8360  0.8585
11599SOL    HW236239   2.819   0.117   9.598  0.2883 -0.3511 -1.5647
11600SOL     OW36240   6.522   0.995   0.180  0.2480 -0.2269  0.7627
11600SOL    HW136241   6.595   0.955   0.133 -1.0596  2.0981 -3.7944
11600SOL    HW236242   6.453   0.928   0.178 -0.1075  0.1028 -1.8246
11601SOL     OW36243   6.562   1.089   9.056  0.0974 -0.0150 -0.0679
11601SOL    HW136244   6.617   1.023   9.098  0.6011 -0.2252 -1.0340
11601SOL    HW236245   6.541   1.051   8.970  1.9140  1.8101 -1.4118
11602SOL     OW36246   6.374   0.006   2.447 -0.0903  0.5513 -0.5820
11602SOL    HW136247   6.414   0.090   2.470 -0.6080  0.4455  0.8231
11602SOL    HW236248   6.292   0.005   2.496  1.0418 -1.7985  1.5033
11603SOL     OW36249   0.383   6.720   1.209  0.4219  0.2321 -0.1414
11603SOL    HW136250   0.435   6.672   1.272  1.1642 -0.1932 -1.0471
11603SOL    HW236251   0.427   6.704   1.125 -1.2341 -0.2319 -0.9537
11604SOL     OW36252   3.560   2.131   6.180  0.2736 -0.2412  0.2980
11604SOL    HW136253   3.646   2.115   6.219  0.8487  2.2569  0.1825
11604SOL    HW236254   3.510   2.172   6.250 -0.6325 -1.0885  0.1599
11605SOL     OW36255   7.895   7.369   7.543 -0.5431 -0.2040  0.9173
11605SOL    HW136256   7.920   7.322   7.464 -1.6984  0.0443  0.3893
11605SOL    HW236257   7.954   7.336   7.610  1.2589  0.4184 -0.2788
11606SOL     OW36258   7.394   4.564   2.178  0.1974  0.3256  0.2739
11606SOL    HW136259   7.422   4.654   2.190  2.5170 -0.1128 -1.1359
11606SOL    HW236260   7.394   4.551   2.083  1.1869 -1.4734  0.4667
11607SOL     OW36261   7.301   5.802   5.197  0.1678  0.5897  0.2698
11607SOL    HW136262   7.361   5.819   5.124 -1.8406  1.3948 -1.2859
11607SOL    HW236263   7.328   5.716   5.231  2.6684  1.2835  0.1768
11608SOL     OW36264   0.346   5.205   6.510 -0.3449 -0.6942 -0.1535
11608SOL    HW136265   0.425   5.248   6.477 -1.4691  0.7193 -1.0876
11608SOL    HW236266   0.317   5.261   6.582 -1.0979 -0.5870 -0.5302
11609SOL     OW36267   0.891   1.032   6.531  0.0942  0.2756 -0.0738
11609SOL    HW136268   0.928   1.113   6.496 -0.5711  0.2432 -0.8566
11609SOL    HW236269   0.803   1.027   6.494 -0.5328  0.0798  1.3499
11610SOL     OW36270   1.569   5.191   1.931  0.1477  0.3866 -0.6434
11610SOL    HW136271   1.490   5.235   1.900 -0.2602 -0.8671 -1.5019
11610SOL    HW236272   1.638   5.256   1.923 -0.8952  1.7413  0.8035
11611SOL     OW36273   0.446   5.564   5.344  0.2538 -0.4654  0.3439
11611SOL    HW136274   0.444   5.616   5.264 -0.2502  0.5067  0.9702
11611SOL    HW236275   0.522   5.506   5.333  2.4572  2.1554  0.7005
11612SOL     OW36276   7.546   7.829   2.408 -0.0966 -0.2026 -0.0201
11612SOL    HW136277   7.565   7.891   2.337  1.2078 -0.2333  0.2682
11612SOL    HW236278   7.495   7.879   2.471  0.5045  0.4388 -0.0319
11613SOL     OW36279   7.910   7.083   3.603  0.2168  0.5259  0.9581
11613SOL    HW136280   8.005   7.097   3.612  0.0505  2.4495  0.0889
11613SOL    HW236281   7.871   7.168   3.623 -1.2643  0.0613  0.1485
11614SOL     OW36282   3.759   1.368   4.073  0.3484  0.4118  0.0042
11614SOL    HW136283   3.811   1.326   4.004  0.5725  0.3164  0.2278
11614SOL    HW236284   3.727   1.449   4.034 -0.0268  0.0681 -0.4097
11615SOL     OW36285   2.815   6.227  11.852  0.1537 -0.5675  0.1626
11615SOL    HW136286   2.873   6.297  11.881  1.1441 -2.1843  2.3640
11615SOL    HW236287   2.822   6.228  11.757  1.2778  1.3603  0.2174
11616SOL     OW36288   0.681   3.034   3.760 -0.6735  0.2296  0.0320
11616SOL    HW136289   0.756   3.092   3.774 -0.1129  0.0684 -2.0407
11616SOL    HW236290   0.718   2.954   3.723 -1.4736 -1.4457  2.5722
11617SOL     OW36291   2.928   5.705   3.121 -0.6812  0.4224 -0.1164
11617SOL    HW136292   2.844   5.748   3.103 -0.3963  0.9764 -0.1275
11617SOL    HW236293   2.904   5.616   3.148 -1.2833  0.6288  0.0443
11618SOL     OW36294   1.033   6.943   5.423 -0.1016 -0.0429 -0.6226
11618SOL    HW136295   0.959   6.884   5.409 -0.7640  0.5991  0.0970
11618SOL    HW236296   1.017   6.983   5.509  0.3383  1.1558 -1.0722
11619SOL     OW36297   4.604   0.826  12.208 -0.2179 -0.0373 -0.2905
11619SOL    HW136298   4.625   0.777  12.287  1.9101  0.6433 -0.3901
11619SOL    HW236299   4.670   0.800  12.144  0.5845  2.4052 -0.5633
11620SOL     OW36300   6.750   4.090   7.182 -0.5544  0.0418  0.0898
11620SOL    HW136301   6.832   4.062   7.222 -0.1422  0.7037 -0.2699
11620SOL    HW236302   6.776   4.131   7.099 -1.0863  1.8255  0.7714
11621SOL     OW36303   1.869   1.508   5.116 -0.4439  0.3745 -0.4750
11621SOL    HW136304   1.876   1.558   5.034  1.0924 -0.6866 -1.0460
11621SOL    HW236305   1.954   1.521   5.158 -0.5604 -0.5862  0.0637
11622SOL     OW36306   7.824   7.855   4.965 -0.5631  0.0674  0.4082
11622SOL    HW136307   7.831   7.870   4.871  0.5059  1.4894  0.6842
11622SOL    HW236308   7.858   7.766   4.978 -0.9503 -0.2330 -0.5639
11623SOL     OW36309   5.300   2.011  10.937  0.5531 -0.2138 -0.2215
11623SOL    HW136310   5.308   2.077  11.005 -1.4388 -0.6545  0.5099
11623SOL    HW236311   5.386   2.008  10.896  1.5497  0.7182  1.6731
11624SOL     OW36312   1.753   5.804   1.551  0.3535 -0.4242 -0.1740
11624SOL    HW136313   1.688   5.855   1.501 -1.1879 -0.9282  1.2250
11624SOL    HW236314   1.741   5.832   1.642  1.8524 -0.8254  0.1766
11625SOL     OW36315   5.401   4.827  10.930 -0.4423 -0.4547  0.3873
11625SOL    HW136316   5.430   4.912  10.964 -0.1840 -1.0225  1.6294
11625SOL    HW236317   5.469   4.802  10.868 -0.6513  0.3551 -0.1890
11626SOL     OW36318   1.230   3.401   8.740 -0.6412  0.4145  0.4371
11626SOL    HW136319   1.178   3.370   8.814 -1.0543  1.4062  0.5822
11626SOL    HW236320   1.281   3.474   8.775  0.7461 -0.4469  0.2512
11627SOL     OW36321   7.210   1.156  11.569  0.7519 -0.1262  0.4771
11627SOL    HW136322   7.220   1.078  11.515  2.3534  0.7763 -0.6079
11627SOL    HW236323   7.140   1.134  11.631  0.8828 -2.2482 -0.0682
11628SOL     OW36324   7.635   1.656  11.253 -0.0263 -0.4698  0.3367
11628SOL    HW136325   7.724   1.690  11.260 -0.1368 -0.2408  0.6856
11628SOL    HW236326   7.632   1.610  11.169  0.5305 -0.8066  0.5000
11629SOL     OW36327   0.227   4.527   9.886 -0.1943 -0.7758  0.9561
11629SOL    HW136328   0.290   4.555   9.952 -0.1273 -1.6667  1.2806
11629SOL    HW236329   0.141   4.546   9.924 -0.1414 -0.3213  0.8542
11630SOL     OW36330   5.807   5.306  11.000 -0.2301 -0.7711  0.0477
11630SOL    HW136331   5.884   5.277  10.951 -0.0238  1.0789 -0.8112
11630SOL    HW236332   5.841   5.366  11.066 -0.9265  0.4065 -0.6212
11631SOL     OW36333   0.787   7.728   0.742  0.2466  0.1074  0.3116
11631SOL    HW136334   0.854   7.666   0.769  1.8969  0.7491 -1.9954
11631SOL    HW236335   0.836   7.797   0.697 -1.9037  1.0206 -0.7410
11632SOL     OW36336   7.887   6.461   2.309 -0.4739 -0.2380 -0.1688
11632SOL    HW136337   7.896   6.367   2.291 -2.2536 -0.2401 -1.3276
11632SOL    HW236338   7.895   6.503   2.223 -0.7948  0.5494  0.1754
11633SOL     OW36339   6.284   7.324   7.121 -0.1458 -0.0759  0.0452
11633SOL    HW136340   6.195   7.315   7.155 -0.9269  2.0364 -1.2791
11633SOL    HW236341   6.338   7.329   7.200 -1.4096  0.5084  0.9181
11634SOL     OW36342   3.102   0.033   6.863  0.1316 -0.2165 -0.0685
11634SOL    HW136343   3.090  -0.059   6.889 -1.3864 -0.1020 -0.2775
11634SOL    HW236344   3.191   0.036   6.828  1.0292 -1.1169  1.9391
11635SOL     OW36345   3.182   1.113   5.793 -0.7902  0.3712 -0.0160
11635SOL    HW136346   3.114   1.085   5.855 -0.8814 -1.7697 -1.0298
11635SOL    HW236347   3.134   1.133   5.713 -0.2204 -1.5166 -0.8538
11636SOL     OW36348   4.142   1.127   9.171  0.4277  0.4146 -0.3894
11636SOL    HW136349   4.060   1.084   9.147 -0.1146  2.1931 -1.9266
11636SOL    HW236350   4.153   1.108   9.264 -1.1775 -0.7268 -0.4032
11637SOL     OW36351   3.702   6.377   4.665  0.2024 -0.3714 -0.3265
11637SOL    HW136352   3.690   6.451   4.725 -2.3162  0.2776 -1.4778
11637SOL    HW236353   3.710   6.301   4.722 -1.8156  0.2629  0.9296
11638SOL     OW36354   0.050   2.673   9.781 -0.4072  0.0236  0.4905
11638SOL    HW136355   0.145   2.667   9.786 -0.3962  0.4433  0.8444
11638SOL    HW236356   0.027   2.622   9.704 -0.0558 -1.6606  1.4572
11639SOL     OW36357   2.200   3.123  12.453 -0.1672 -0.2181 -0.0164
11639SOL    HW136358   2.126   3.148  12.398 -0.2022 -0.6548 -0.1703
11639SOL    HW236359   2.228   3.205  12.494  1.0213  0.4681 -2.0646
11640SOL     OW36360   4.550   4.848   9.772 -0.0500 -0.1125 -0.1147
11640SOL    HW136361   4.590   4.769   9.808 -1.6027 -0.9781 -0.1912
11640SOL    HW236362   4.456   4.827   9.767 -0.4047  1.4881 -0.7824
11641SOL     OW36363   6.073   4.545   9.811 -0.0259 -0.0720 -0.2109
11641SOL    HW136364   6.039   4.529   9.899  0.0641 -1.0542 -0.3503
11641SOL    HW236365   6.158   4.501   9.810 -0.7672 -1.5366 -1.3250
11642SOL     OW36366   4.850   0.674   8.801  0.0330 -0.7475 -0.2421
11642SOL    HW136367   4.909   0.746   8.821 -0.3026 -0.3258 -0.7293
11642SOL    HW236368   4.904   0.611   8.753 -0.0398 -0.0689 -1.2622
11643SOL     OW36369   3.476   3.998   5.556 -0.4245  0.2726 -0.2823
11643SOL    HW136370   3.550   3.985   5.497 -1.3087  0.3971 -1.4478
11643SOL    HW236371   3.417   3.925   5.537 -1.2317  0.9314 -0.3646
11644SOL     OW36372   4.460   0.982   5.971  0.1813  0.9168 -0.3776
11644SOL    HW136373   4.480   0.947   6.058  2.5402  0.3155 -1.0790
11644SOL    HW236374   4.544   0.978   5.924 -0.6060  2.9281 -2.1024
11645SOL     OW36375   6.132   5.000   2.591  0.0372  0.0470  0.5499
11645SOL    HW136376   6.039   4.975   2.588  0.1947 -1.0548  2.5056
11645SOL    HW236377   6.179   4.919   2.570  0.5407  0.2139  1.0126
11646SOL     OW36378   5.596   1.967   2.603 -0.3951  0.6522 -0.6980
11646SOL    HW136379   5.619   2.026   2.674  0.2198 -0.4720  0.0692
11646SOL    HW236380   5.678   1.921   2.583 -1.0510 -0.5641 -0.6649
11647SOL     OW36381   1.848   7.138   1.704  0.6705 -0.2416  0.1099
11647SOL    HW136382   1.920   7.174   1.755  0.8780  1.3788 -1.2088
11647SOL    HW236383   1.878   7.145   1.613 -0.2564 -1.6458 -0.3332
11648SOL     OW36384   3.608   2.176  10.891  0.3741 -0.9619 -0.1371
11648SOL    HW136385   3.544   2.195  10.822  0.4728 -3.5276 -1.0448
11648SOL    HW236386   3.687   2.223  10.864 -0.0226 -0.7708 -1.0002
11649SOL     OW36387   0.559   0.027   8.965  0.1931 -0.0310 -0.4297
11649SOL    HW136388   0.634  -0.015   9.009 -0.9321 -0.1083  1.5246
11649SOL    HW236389   0.598   0.102   8.920  1.2681  1.0486  2.0826
11650SOL     OW36390   0.326   0.436  10.192  0.1691  0.2150 -0.0890
11650SOL    HW136391   0.385   0.503  10.226  0.6641 -0.8752  1.2887
11650SOL    HW236392   0.337   0.440  10.097  2.1951  0.2827  0.1135
11651SOL     OW36393   5.214   3.518   1.649 -0.5561  0.1142 -0.2044
11651SOL    HW136394   5.139   3.491   1.597 -1.7275  1.4507  0.6929
11651SOL    HW236395   5.290   3.504   1.592 -1.5008 -1.0194 -1.2329
11652SOL     OW36396   5.227   1.153   1.471  0.5611 -0.5990 -0.2636
11652SOL    HW136397   5.281   1.224   1.506  0.1782 -0.1266 -0.6158
11652SOL    HW236398   5.262   1.138   1.383 -0.0290 -0.1154 -0.5927
11653SOL     OW36399   2.187   2.788   7.639  0.1589 -0.1323  0.0440
11653SOL    HW136400   2.266   2.809   7.689  0.1341  1.8544 -0.6808
11653SOL    HW236401   2.166   2.868   7.592 -2.3112 -0.6017  0.2044
11654SOL     OW36402   3.583   7.379  10.458 -0.1981 -0.0001  0.1465
11654SOL    HW136403   3.606   7.293  10.425 -0.6209 -0.2366  0.4664
11654SOL    HW236404   3.634   7.389  10.538 -0.1289  0.0618  0.0951
11655SOL     OW36405   1.904   1.841  11.265  0.2885  0.2569 -0.3074
11655SOL    HW136406   1.830   1.795  11.224  1.4624  0.2330 -2.5353
11655SOL    HW236407   1.958   1.772  11.301  0.1776  0.1385 -0.3662
11656SOL     OW36408   6.144   2.332  12.293  0.4868 -0.0153 -0.1084
11656SOL    HW136409   6.141   2.388  12.371 -0.1585 -2.2677  1.5851
11656SOL    HW236410   6.237   2.322  12.274  0.6490  3.2845 -1.8454
11657SOL     OW36411   7.796   0.188   0.513  0.2698 -0.2934  0.0824
11657SOL    HW136412   7.748   0.232   0.583 -0.8439  1.1534 -1.5135
11657SOL    HW236413   7.840   0.259   0.467  2.9289 -1.4404  0.6634
11658SOL     OW36414   6.201   1.133   7.316  0.2172 -0.3831 -0.0755
11658SOL    HW136415   6.113   1.101   7.335 -0.3504  1.7127  1.1526
11658SOL    HW236416   6.238   1.153   7.402  2.0538 -1.5560 -0.5493
11659SOL     OW36417   1.762   0.154   9.775 -0.2993 -0.4442 -0.2765
11659SOL    HW136418   1.747   0.113   9.690 -0.1772  0.2878 -0.6648
11659SOL    HW236419   1.756   0.248   9.757 -2.0392 -0.2999  0.8428
11660SOL     OW36420   4.706   0.739   9.338  0.2613 -0.3657  0.2373
11660SOL    HW136421   4.799   0.738   9.360  0.5016  0.1133 -0.7007
11660SOL    HW236422   4.703   0.761   9.245 -0.8411  0.9704  0.5483
11661SOL     OW36423   6.340   3.241   1.792  0.3093 -0.3141  0.0748
11661SOL    HW136424   6.333   3.244   1.887  0.2816  0.6844  0.0503
11661SOL    HW236425   6.276   3.175   1.765  0.4896 -0.7831  0.7502
11662SOL     OW36426   4.997   2.711   7.971 -1.0113  0.1401  0.6103
11662SOL    HW136427   5.017   2.796   8.010  0.4722 -0.1108  0.4789
11662SOL    HW236428   5.025   2.719   7.880 -2.5193  0.0608  0.1112
11663SOL     OW36429   2.298   1.244  10.732 -0.2102 -0.2817  0.0562
11663SOL    HW136430   2.276   1.311  10.798  1.3210 -0.3249  0.6563
11663SOL    HW236431   2.232   1.254  10.664  0.1139  2.0251  0.0143
11664SOL     OW36432   0.580   2.263   5.617  0.1294 -0.2209  0.0691
11664SOL    HW136433   0.601   2.183   5.665  0.6946 -0.2371 -0.1974
11664SOL    HW236434   0.544   2.232   5.534 -1.2284 -0.1951  0.6203
11665SOL     OW36435   7.188   1.046   3.194  0.3874 -0.2644  0.3063
11665SOL    HW136436   7.188   1.111   3.123 -0.3073 -1.2607 -0.6471
11665SOL    HW236437   7.276   1.049   3.230  1.1222 -0.5197 -1.3796
11666SOL     OW36438   7.947   4.773  10.642  0.0742  0.3398  0.1449
11666SOL    HW136439   7.947   4.815  10.728  2.2387 -0.8830  0.8274
11666SOL    HW236440   7.883   4.702  10.650  0.8690 -0.3085  1.0842
11667SOL     OW36441   7.342   0.655   0.301 -0.3292 -0.3446  0.1586
11667SOL    HW136442   7.308   0.691   0.383 -1.5411 -0.9129 -0.0829
11667SOL    HW236443   7.395   0.580   0.328 -1.3306 -0.9836  0.3923
11668SOL     OW36444   3.380   5.275   3.108  0.3651  0.5334 -0.2993
11668SOL    HW136445   3.324   5.253   3.182  0.2892  0.3031 -0.4238
11668SOL    HW236446   3.464   5.233   3.127  0.2130  0.1143 -0.5480
11669SOL     OW36447   0.280   6.598   6.639  0.0294  0.4683  0.7254
11669SOL    HW136448   0.309   6.658   6.571 -1.6151  0.5500  0.0549
11669SOL    HW236449   0.254   6.654   6.712 -3.2725  0.8255 -0.5608
11670SOL     OW36450   4.841   7.353   9.024 -0.1378 -0.1566  0.4997
11670SOL    HW136451   4.814   7.437   8.986 -0.8800 -0.5012  0.2359
11670SOL    HW236452   4.923   7.372   9.069  0.5749  0.3438 -0.9559
11671SOL     OW36453   2.424   4.842   2.827 -0.5789 -0.3408  0.5230
11671SOL    HW136454   2.405   4.777   2.760  2.6748 -2.0737  1.0526
11671SOL    HW236455   2.383   4.807   2.906 -2.2021  0.3692  0.0301
11672SOL     OW36456   7.841   5.886   5.230  0.4276 -0.2016  0.6316
11672SOL    HW136457   7.792   5.899   5.311 -1.2445  2.2832 -0.6449
11672SOL    HW236458   7.906   5.956   5.230  0.2311  0.0023 -0.2595
11673SOL     OW36459   1.305   5.590   5.149 -0.1939  0.0603 -0.0765
11673SOL    HW136460   1.246   5.545   5.210 -0.2159 -0.7859 -0.6928
11673SOL    HW236461   1.256   5.594   5.067  0.4653 -0.3656 -0.5077
11674SOL     OW36462   1.493   7.776   0.049  0.2755  0.0427  0.2852
11674SOL    HW136463   1.448   7.707   0.098  0.3285 -0.0102  0.2589
11674SOL    HW236464   1.441   7.855   0.066 -0.4646 -0.2220 -0.6143
11675SOL     OW36465   5.815   6.112   4.104 -0.2807  0.0416 -0.3972
11675SOL    HW136466   5.834   6.168   4.180  1.7007 -2.8410  1.4212
11675SOL    HW236467   5.901   6.092   4.067 -0.8879 -1.9927 -0.8004
11676SOL     OW36468   6.088   0.487  10.954 -0.5320  0.3560 -0.1254
11676SOL    HW136469   6.020   0.432  10.915 -2.1411  1.0967  1.4973
11676SOL    HW236470   6.059   0.577  10.937  0.9581  0.7272 -0.8898
11677SOL     OW36471   7.563   4.012   5.351 -0.0890  0.2093 -0.0430
11677SOL    HW136472   7.547   4.088   5.407  0.4943  0.2199  0.1190
11677SOL    HW236473   7.592   3.944   5.412  0.6131  0.2388 -0.3394
11678SOL     OW36474   1.528   7.555  10.319  0.1273 -0.4235  0.5993
11678SOL    HW136475   1.436   7.579  10.322 -0.1547 -0.7922 -2.2248
11678SOL    HW236476   1.572   7.620  10.373 -1.8026 -0.5731  2.4525
11679SOL     OW36477   3.547   1.480  11.026 -0.2753 -0.1547  0.0235
11679SOL    HW136478   3.527   1.491  10.933  0.9243  0.8627 -0.1402
11679SOL    HW236479   3.561   1.570  11.058  1.5686 -0.6376  0.6533
11680SOL     OW36480   6.239   5.334   3.000 -0.3003 -0.3960  0.1130
11680SOL    HW136481   6.298   5.385   2.945 -1.5370  0.6096 -0.3126
11680SOL    HW236482   6.294   5.306   3.074  0.6176  0.8135 -0.0793
11681SOL     OW36483   3.851   5.178   6.127  0.3139 -0.1080 -1.1367
11681SOL    HW136484   3.835   5.157   6.035 -1.5141  1.3558 -1.1952
11681SOL    HW236485   3.772   5.222   6.156  0.8242 -0.5853  1.1883
11682SOL     OW36486   6.793   2.187  11.486  0.1876  0.3770 -0.0418
11682SOL    HW136487   6.840   2.192  11.569  1.3730 -2.1030 -0.4754
11682SOL    HW236488   6.854   2.222  11.421  0.3611 -0.2639 -0.2298
11683SOL     OW36489   6.502   3.073   9.181  0.5234  0.2839 -0.4094
11683SOL    HW136490   6.473   3.156   9.144  1.1289  0.6161 -0.1580
11683SOL    HW236491   6.422   3.022   9.191  0.1694  0.7567 -0.7567
11684SOL     OW36492   1.757   6.775   1.473  0.0664 -0.0154 -0.2381
11684SOL    HW136493   1.789   6.685   1.470  0.3435  0.0138  0.9925
11684SOL    HW236494   1.822   6.822   1.526 -2.1833 -0.0822  2.8871
11685SOL     OW36495   2.508   5.575  10.363 -0.0113 -0.1504  0.4318
11685SOL    HW136496   2.455   5.563  10.284 -1.0480  0.0051  1.0820
11685SOL    HW236497   2.451   5.549  10.435  0.0005  2.0930  1.3532
11686SOL     OW36498   7.410   6.383   4.675  0.0410 -0.3712 -0.0174
11686SOL    HW136499   7.479   6.389   4.742 -0.1290 -0.4644  0.1683
11686SOL    HW236500   7.354   6.458   4.692 -0.3592 -0.7460  0.3513
11687SOL     OW36501   3.817   1.339   8.117 -0.3979 -0.1313  0.2241
11687SOL    HW136502   3.744   1.292   8.079  0.4149 -0.7353 -0.6374
11687SOL    HW236503   3.861   1.381   8.043 -0.5882  1.2908  0.8683
11688SOL     OW36504   2.919   1.663   9.799 -0.1505 -0.7026 -0.3701
11688SOL    HW136505   2.982   1.686   9.730 -0.6347  0.6357 -0.3982
11688SOL    HW236506   2.839   1.707   9.773 -0.4074 -0.3685  0.9418
11689SOL     OW36507   4.212   6.211   4.315 -0.0611  0.2350 -0.0635
11689SOL    HW136508   4.260   6.137   4.351  1.3361  0.9973 -0.2840
11689SOL    HW236509   4.173   6.178   4.234  1.6152  0.0319 -0.8421
11690SOL     OW36510   3.752   6.305   8.172 -0.0162  0.6766 -0.0368
11690SOL    HW136511   3.776   6.376   8.232 -0.8019 -0.0983  1.2530
11690SOL    HW236512   3.751   6.227   8.227 -3.2658  0.3031 -0.4078
11691SOL     OW36513   3.161   3.033   9.647 -0.2137  0.5413 -0.3551
11691SOL    HW136514   3.138   3.003   9.735  1.6031 -1.4076 -0.4727
11691SOL    HW236515   3.190   3.123   9.659 -1.3707  0.7988  0.7794
11692SOL     OW36516   5.141   4.772   1.586  0.5200  0.1870  0.9421
11692SOL    HW136517   5.204   4.815   1.528 -0.4030 -0.9118 -0.9457
11692SOL    HW236518   5.095   4.844   1.629  0.6975  1.0513 -0.2656
11693SOL     OW36519   5.381   2.172  11.137  0.2950 -0.3274  0.0299
11693SOL    HW136520   5.422   2.163  11.223 -0.4788 -1.8763  0.2752
11693SOL    HW236521   5.383   2.266  11.119 -1.4954  0.3326  2.7226
11694SOL     OW36522   4.771   0.621  10.400  0.0372 -0.7416 -0.2062
11694SOL    HW136523   4.804   0.619  10.490  0.3891  0.9337 -0.2599
11694SOL    HW236524   4.708   0.549  10.396 -1.3757  0.2678  1.9305
11695SOL     OW36525   3.826   2.132   6.682 -0.2501  0.2497  0.4138
11695SOL    HW136526   3.843   2.198   6.749  0.5024 -0.7795  1.2622
11695SOL    HW236527   3.826   2.049   6.729 -0.8236 -0.4059 -0.6926
11696SOL     OW36528   2.097   5.047  10.889 -0.5391 -0.1575  0.5315
11696SOL    HW136529   2.011   5.006  10.903 -0.0232 -1.3151  0.4486
11696SOL    HW236530   2.092   5.084  10.801 -0.7815 -0.6975  0.3101
11697SOL     OW36531   0.300   5.229   0.417 -0.3030 -0.0892  0.0061
11697SOL    HW136532   0.337   5.304   0.464  0.6268  0.2938 -1.2759
11697SOL    HW236533   0.315   5.249   0.324  0.7293 -2.2407 -0.3476
11698SOL     OW36534   0.880   2.431   3.415 -0.2043 -0.5323  0.3667
11698SOL    HW136535   0.891   2.522   3.388 -0.1621 -0.4546  0.6419
11698SOL    HW236536   0.869   2.382   3.333 -1.7674 -0.0696  0.2626
11699SOL     OW36537   3.717   1.592   1.819 -0.4171  0.5063 -0.0899
11699SOL    HW136538   3.643   1.637   1.859 -0.4733  0.9610 -0.6919
11699SOL    HW236539   3.779   1.662   1.798  0.6347  0.0405  1.3094
11700SOL     OW36540   3.989   5.319   0.160  0.4403  0.6121  0.0467
11700SOL    HW136541   3.982   5.350   0.250 -0.8530  0.0369  0.1741
11700SOL    HW236542   4.002   5.224   0.168 -2.1698  0.1351 -0.3158
11701SOL     OW36543   1.639   4.412   3.078 -0.0634 -0.3337 -0.5916
11701SOL    HW136544   1.729   4.409   3.109 -0.9708 -0.7509  2.3366
11701SOL    HW236545   1.604   4.494   3.113 -1.6638 -1.6872  1.2672
11702SOL     OW36546   7.087   6.100   0.937 -0.4809  0.0872 -0.3383
11702SOL    HW136547   7.055   6.011   0.953 -1.2308  0.4797  0.4355
11702SOL    HW236548   7.041   6.128   0.857 -0.2252 -0.2243 -0.5966
11703SOL     OW36549   2.652   6.698   0.047  0.4768  0.0258 -0.6703
11703SOL    HW136550   2.691   6.741   0.123  0.1134  1.2387 -1.1379
11703SOL    HW236551   2.690   6.611   0.046  1.0087  0.2288  0.5036
11704SOL     OW36552   3.389   1.702   8.455  0.4449  0.3842  0.1124
11704SOL    HW136553   3.344   1.662   8.529 -0.3494 -0.3725 -0.7490
11704SOL    HW236554   3.461   1.642   8.435  0.3379  0.3122 -0.0588
11705SOL     OW36555   4.710   5.823   1.510  0.2080 -0.5983  0.2321
11705SOL    HW136556   4.715   5.818   1.415  2.2108  2.0386  0.0554
11705SOL    HW236557   4.688   5.735   1.538 -0.8714 -1.3676 -2.6715
11706SOL     OW36558   6.987   4.092   8.169 -0.3185 -0.2110 -0.2307
11706SOL    HW136559   6.948   4.006   8.157 -0.1341 -0.2988 -0.2074
11706SOL    HW236560   6.979   4.109   8.263  1.3072 -1.0204  0.1084
11707SOL     OW36561   3.258   4.612   3.917 -0.5409  0.2955  0.4565
11707SOL    HW136562   3.290   4.670   3.849  1.7516  0.2734  1.4192
11707SOL    HW236563   3.281   4.524   3.887  0.8618  0.3123  1.3696
11708SOL     OW36564   0.974   5.645   4.061 -0.2826  0.1323 -0.2153
11708SOL    HW136565   1.022   5.602   3.991  1.3776  0.3648  0.7231
11708SOL    HW236566   0.882   5.633   4.039  0.1942 -0.8063 -1.7983
11709SOL     OW36567   7.266   2.047  11.088 -0.2058 -0.2341  0.1105
11709SOL    HW136568   7.319   1.971  11.115 -0.4718 -0.2340  0.6547
11709SOL    HW236569   7.294   2.065  10.998 -0.0800 -0.9263  0.0044
11710SOL     OW36570   1.164   7.255  12.362  0.4999  0.5627  0.3904
11710SOL    HW136571   1.099   7.187  12.344 -0.2026  0.1695  3.7829
11710SOL    HW236572   1.122   7.337  12.334 -0.5105  0.0703  0.4477
11711SOL     OW36573   0.837   5.372   6.798  0.6134 -0.1586  0.2036
11711SOL    HW136574   0.837   5.315   6.721  0.2106  0.6327 -0.3908
11711SOL    HW236575   0.745   5.384   6.819  0.6515  1.0913 -0.2942
11712SOL     OW36576   2.723   4.333   3.781 -0.7965  0.1900  0.0687
11712SOL    HW136577   2.812   4.336   3.746 -0.5452 -0.4762  0.6360
11712SOL    HW236578   2.684   4.256   3.739 -0.3498 -0.8868  1.5335
11713SOL     OW36579   1.681   6.504   2.645 -0.1721  0.6227 -0.0965
11713SOL    HW136580   1.608   6.491   2.706 -0.0175 -1.6335 -0.3156
11713SOL    HW236581   1.653   6.463   2.564  1.1505  0.1337 -0.3317
11714SOL     OW36582   2.243   0.145   5.056 -0.4077  0.0981  0.2620
11714SOL    HW136583   2.291   0.175   4.978 -0.7988 -2.4565 -1.0837
11714SOL    HW236584   2.170   0.094   5.021 -0.5678 -1.1954  2.3156
11715SOL     OW36585   0.464   4.908   7.551 -0.1280  0.6831  0.0975
11715SOL    HW136586   0.469   4.814   7.567  0.4736  0.6750 -0.0990
11715SOL    HW236587   0.446   4.947   7.636 -0.8124  0.3626  0.1071
11716SOL     OW36588   7.241   7.064   4.624  0.0404 -0.2054 -0.2982
11716SOL    HW136589   7.152   7.044   4.596  0.1045  0.5790 -1.1151
11716SOL    HW236590   7.281   6.979   4.642  0.5596 -0.9977 -4.3859
11717SOL     OW36591   6.318   3.464   2.505 -0.3804 -0.1358  0.6126
11717SOL    HW136592   6.310   3.541   2.561  0.9384  1.4781 -1.2801
11717SOL    HW236593   6.412   3.448   2.499 -0.5677 -0.9932 -0.1710
11718SOL     OW36594   6.711   5.721   6.988 -0.6105  0.4837  0.1004
11718SOL    HW136595   6.779   5.691   6.927 -2.2764 -0.7089 -1.2659
11718SOL    HW236596   6.642   5.655   6.980 -1.5302  1.1429  2.1736
11719SOL     OW36597   0.059   2.020   2.981  0.1210  0.6173  0.2230
11719SOL    HW136598  -0.004   2.022   3.053 -1.3497 -1.6423 -0.8904
11719SOL    HW236599   0.005   2.014   2.902  1.7243  0.4688 -0.9051
11720SOL     OW36600   5.085   7.922   5.341  0.1481  0.4524  0.2827
11720SOL    HW136601   5.114   7.964   5.422  1.7730 -0.0523 -0.0099
11720SOL    HW236602   5.051   7.837   5.368 -0.8100  0.9149  0.5896
11721SOL     OW36603   5.217   1.754   4.118  0.3706  0.1210 -0.0404
11721SOL    HW136604   5.158   1.829   4.109  1.0153  0.5537 -0.9259
11721SOL    HW236605   5.168   1.690   4.169  0.1641  1.5218  1.6115
11722SOL     OW36606   2.572   7.978   1.346 -0.2191 -0.2226  0.0007
11722SOL    HW136607   2.493   7.927   1.359 -0.6285  0.0487 -1.2521
11722SOL    HW236608   2.639   7.934   1.398 -1.2735 -0.2255  1.3947
11723SOL     OW36609   4.897   0.452   0.046  0.4310 -0.0795 -0.1727
11723SOL    HW136610   4.986   0.475   0.071  0.9417 -2.1643  0.1325
11723SOL    HW236611   4.887   0.486  -0.043  1.3035  0.6974  0.0129
11724SOL     OW36612   6.526   5.342   5.777  0.0206 -0.4841  0.3251
11724SOL    HW136613   6.587   5.401   5.822  0.1596 -0.8594  0.6336
11724SOL    HW236614   6.504   5.388   5.696  1.0083 -0.5201  0.0249
11725SOL     OW36615   6.303   0.409   0.714  0.0251 -0.1164 -0.1054
11725SOL    HW136616   6.349   0.332   0.680  2.2861  1.2531 -0.3390
11725SOL    HW236617   6.211   0.394   0.692  0.2609 -3.0686  0.5246
11726SOL     OW36618   5.611   0.820   0.139  0.0402  0.4375  0.3561
11726SOL    HW136619   5.588   0.860   0.055 -0.0231 -1.0573 -0.3734
11726SOL    HW236620   5.706   0.832   0.145  0.1916 -0.2473 -0.3995
11727SOL     OW36621   4.099   4.209  11.160 -0.5082  0.0985 -0.3335
11727SOL    HW136622   4.049   4.146  11.212  1.7771 -1.8659 -0.3195
11727SOL    HW236623   4.104   4.287  11.214 -3.1315  0.2371 -0.1840
11728SOL     OW36624   2.550   1.768   7.499  0.7318  0.1059  0.0471
11728SOL    HW136625   2.581   1.858   7.494  0.9971  0.0296  0.2583
11728SOL    HW236626   2.578   1.739   7.586 -1.0670  0.4535  0.7867
11729SOL     OW36627   2.771   4.636  11.777 -0.2171  0.1324  0.2086
11729SOL    HW136628   2.690   4.680  11.802 -0.6371  0.0323 -0.9077
11729SOL    HW236629   2.805   4.599  11.858  0.1614  2.5105  1.2042
11730SOL     OW36630   0.986   0.226   1.183  0.5439 -0.3840 -0.0214
11730SOL    HW136631   1.002   0.132   1.180 -3.6200 -1.3686  1.6486
11730SOL    HW236632   0.929   0.243   1.109  0.5121  0.6530  0.2267
11731SOL     OW36633   6.570   1.879   6.554 -0.1826  0.2290 -0.0440
11731SOL    HW136634   6.494   1.867   6.610 -0.5632  0.1094 -0.5835
11731SOL    HW236635   6.546   1.951   6.495  1.4827  2.7916  2.1487
11732SOL     OW36636   3.664   2.738   1.328 -0.1716 -0.1083 -0.5298
11732SOL    HW136637   3.716   2.666   1.293 -0.0607 -1.0901  1.4585
11732SOL    HW236638   3.579   2.730   1.284  0.7065  0.3496 -2.4087
11733SOL     OW36639   5.345   7.185   5.355  0.1263  0.2117 -0.8484
11733SOL    HW136640   5.332   7.209   5.263  0.1706 -0.4266 -1.0264
11733SOL    HW236641   5.375   7.265   5.397  0.0368  0.5253 -1.3789
11734SOL     OW36642   7.739   7.436   8.114  0.3637 -0.0423 -0.2864
11734SOL    HW136643   7.789   7.389   8.181 -0.5374 -0.7345 -0.0640
11734SOL    HW236644   7.761   7.391   8.032 -0.3022 -0.7174 -0.1098
11735SOL     OW36645   6.902   0.796   9.676  0.4170  0.0224  0.3908
11735SOL    HW136646   6.922   0.884   9.646 -2.9873  0.5473 -0.7593
11735SOL    HW236647   6.812   0.801   9.709 -0.8307 -3.4461 -1.9250
11736SOL     OW36648   1.275   3.977   4.839 -0.2276  0.0918  0.1295
11736SOL    HW136649   1.315   3.926   4.769  1.6687  1.8468 -0.1755
11736SOL    HW236650   1.274   3.918   4.914  0.2282 -0.9451 -0.6549
11737SOL     OW36651   4.854   2.363  12.230  0.1594 -0.7026 -0.1158
11737SOL    HW136652   4.921   2.365  12.298  1.8770 -0.7169 -1.7359
11737SOL    HW236653   4.785   2.421  12.263  0.2895 -1.7664  2.2147
11738SOL     OW36654   4.941   5.928  11.880  0.3701  0.2440  0.3997
11738SOL    HW136655   4.997   5.983  11.825 -0.9354  0.2403 -0.9997
11738SOL    HW236656   4.919   5.983  11.955  0.4280  1.0284 -0.1551
11739SOL     OW36657   5.366   2.168   4.532 -0.2795 -0.0890 -0.3140
11739SOL    HW136658   5.452   2.210   4.533 -0.1423 -0.3450  1.1404
11739SOL    HW236659   5.336   2.174   4.623  0.1763 -3.9625  0.2719
11740SOL     OW36660   1.341   5.412   4.683  0.1213 -0.0229 -0.0133
11740SOL    HW136661   1.351   5.319   4.701  1.0467  0.0951  0.1237
11740SOL    HW236662   1.324   5.416   4.588 -2.5510 -0.4863  0.3734
11741SOL     OW36663   6.976   4.128   8.433  0.1019 -0.2800  0.5004
11741SOL    HW136664   6.988   4.207   8.486  2.1584 -0.1411 -0.0795
11741SOL    HW236665   7.029   4.061   8.478 -1.7096 -1.4055  1.0556
11742SOL     OW36666   7.366   0.524   5.582  0.0204  0.1656  0.2971
11742SOL    HW136667   7.404   0.470   5.514 -0.2843  0.9978 -0.5581
11742SOL    HW236668   7.273   0.500   5.584  0.4533 -1.6180  2.1459
11743SOL     OW36669   7.769   1.350   6.603 -0.1206  0.4177 -0.0081
11743SOL    HW136670   7.832   1.399   6.551 -0.1701  1.0211  0.4865
11743SOL    HW236671   7.779   1.259   6.574  0.1028  0.6890 -0.8053
11744SOL     OW36672   4.642   3.491   7.363  0.1332 -0.1973 -0.4279
11744SOL    HW136673   4.605   3.404   7.356  1.2998 -1.0578  2.6938
11744SOL    HW236674   4.583   3.539   7.421 -0.3356  1.0715 -1.8594
11745SOL     OW36675   4.452   0.243   1.715 -0.4855 -0.2217  0.4233
11745SOL    HW136676   4.500   0.197   1.784 -0.5094  1.0893  1.3612
11745SOL    HW236677   4.367   0.262   1.755 -1.3681 -1.4477 -0.7964
11746SOL     OW36678   7.014   2.536   5.169  0.2944 -0.4779 -0.2249
11746SOL    HW136679   7.104   2.566   5.184 -0.2395  0.3246  1.6109
11746SOL    HW236680   7.016   2.498   5.081  2.1165  0.6878 -0.7398
11747SOL     OW36681   5.332   2.035   2.630 -0.5220 -0.3332 -0.5319
11747SOL    HW136682   5.422   2.006   2.644 -1.6052 -3.6673  0.3202
11747SOL    HW236683   5.308   2.078   2.713  0.1686  0.3918 -0.6904
11748SOL     OW36684   1.279   4.013   6.573  0.3687  0.1001 -0.0225
11748SOL    HW136685   1.253   3.983   6.486 -0.8769  0.1569  0.3152
11748SOL    HW236686   1.367   4.049   6.560  1.6895 -3.0196 -0.5746
11749SOL     OW36687   6.351   1.738   7.428  0.4346  0.0594 -0.4012
11749SOL    HW136688   6.387   1.782   7.351  1.6809 -0.2930 -0.0507
11749SOL    HW236689   6.428   1.705   7.474 -0.3584 -0.7315  0.3932
11750SOL     OW36690   1.360   2.559  10.922 -0.0211 -0.4349  0.0539
11750SOL    HW136691   1.284   2.525  10.970  2.0755 -2.9668  1.8863
11750SOL    HW236692   1.358   2.515  10.838 -2.8617  2.8632 -1.8628
11751SOL     OW36693   3.924   4.491   5.656  0.4387  0.5142 -0.0343
11751SOL    HW136694   3.853   4.534   5.704 -0.3341 -0.3050 -0.4072
11751SOL    HW236695   3.983   4.562   5.632  0.0115  1.1438  0.7364
11752SOL     OW36696   4.695   2.311   7.819  0.1925  0.5604  0.1959
11752SOL    HW136697   4.736   2.385   7.864  1.1474 -0.5099  1.1432
11752SOL    HW236698   4.643   2.351   7.749 -0.8591  2.2305  1.8630
11753SOL     OW36699   3.441   3.046   0.266 -0.1289 -0.2340  0.1852
11753SOL    HW136700   3.372   3.112   0.255 -0.0415  0.1601  1.8101
11753SOL    HW236701   3.448   3.004   0.180 -1.1907  0.8906 -0.4779
11754SOL     OW36702   6.398   0.852   8.373  0.1240 -0.2834  0.0401
11754SOL    HW136703   6.422   0.816   8.288 -1.6107  0.1948 -0.6871
11754SOL    HW236704   6.482   0.875   8.413  0.9895 -0.7312 -1.4286
11755SOL     OW36705   4.248   0.662   3.157 -0.2147 -0.2181 -0.2351
11755SOL    HW136706   4.227   0.720   3.231  1.7851  1.2107 -0.7027
11755SOL    HW236707   4.326   0.615   3.185 -0.1551 -0.5798 -0.9915
11756SOL     OW36708   1.034   3.627   0.315  1.0552 -0.2817  0.1635
11756SOL    HW136709   0.972   3.586   0.376 -0.4799  1.6100 -0.0411
11756SOL    HW236710   1.103   3.662   0.371 -0.2476  1.2810  0.8608
11757SOL     OW36711   7.860   1.176   4.473  0.6244 -0.6909  0.8516
11757SOL    HW136712   7.821   1.107   4.418  1.2394 -0.3903  0.0194
11757SOL    HW236713   7.917   1.225   4.414 -0.5845  1.2090  1.1562
11758SOL     OW36714   5.950   1.986  10.655  0.0149 -0.7404  0.1352
11758SOL    HW136715   5.913   2.068  10.686 -0.2717 -0.6762 -0.3695
11758SOL    HW236716   6.002   1.954  10.728  1.7388  0.8631 -0.3279
11759SOL     OW36717   0.415   1.996   1.835  0.2469 -0.1769  1.0080
11759SOL    HW136718   0.359   1.959   1.767 -0.0140  1.3060  0.3913
11759SOL    HW236719   0.437   1.921   1.891  0.1260 -1.3400 -0.4474
11760SOL     OW36720   1.476   3.352   1.567 -0.2648 -0.0885  0.6294
11760SOL    HW136721   1.429   3.351   1.484 -0.4225  0.5340  0.7070
11760SOL    HW236722   1.511   3.263   1.576 -0.8215 -0.3521  0.2296
11761SOL     OW36723   2.810   7.129   7.754  0.5251  0.2922  0.2011
11761SOL    HW136724   2.744   7.075   7.711  0.4388 -1.8321  2.6937
11761SOL    HW236725   2.779   7.219   7.745 -0.7753 -0.3158 -1.7781
11762SOL     OW36726   2.591   7.757  11.263  0.5122 -0.5059  0.1463
11762SOL    HW136727   2.598   7.669  11.302  2.1438  0.3632  2.0300
11762SOL    HW236728   2.592   7.816  11.339 -0.8981  1.1560 -1.0569
11763SOL     OW36729   6.642   7.624   1.785  0.5170  0.2705 -0.2755
11763SOL    HW136730   6.714   7.564   1.802  1.0029  1.0408  0.4558
11763SOL    HW236731   6.684   7.701   1.747 -0.1252  0.0723 -1.4564
11764SOL     OW36732   5.890   6.840   3.412  0.0620 -0.5909 -0.0114
11764SOL    HW136733   5.928   6.793   3.338  0.1345  0.5349 -0.7143
11764SOL    HW236734   5.938   6.923   3.416 -1.5155  0.3749 -0.2163
11765SOL     OW36735   0.906   0.658   5.052 -0.5801  0.1874  0.0749
11765SOL    HW136736   0.873   0.649   4.963  0.2373 -1.2773 -0.1144
11765SOL    HW236737   0.988   0.609   5.052  0.9779  2.5963  0.8623
11766SOL     OW36738   5.191   4.050  10.475  0.0731  0.0012 -0.2305
11766SOL    HW136739   5.144   3.967  10.460  3.0431 -1.8621 -0.0005
11766SOL    HW236740   5.250   4.058  10.400 -0.5686  2.3046 -0.5573
11767SOL     OW36741   7.921   7.697   5.457 -0.3479  0.6278  0.0449
11767SOL    HW136742   7.970   7.772   5.492 -0.4027  1.6731 -1.9554
11767SOL    HW236743   7.900   7.723   5.367 -2.0076 -1.0456 -0.0919
11768SOL     OW36744   4.430   1.408   1.727  0.2745 -0.1078 -0.1317
11768SOL    HW136745   4.472   1.360   1.798  0.9300  0.3679 -0.1832
11768SOL    HW236746   4.434   1.500   1.754  0.3234  0.0558 -0.6800
11769SOL     OW36747   2.344   0.550   8.527  0.8751  0.2867 -0.4656
11769SOL    HW136748   2.381   0.464   8.549 -0.7635 -0.2542  0.3160
11769SOL    HW236749   2.290   0.534   8.449  0.4593  0.5734 -0.2403
11770SOL     OW36750   1.548   7.199   8.796 -0.0939 -0.7825 -0.0497
11770SOL    HW136751   1.613   7.217   8.864 -0.6412 -0.8774  0.5047
11770SOL    HW236752   1.578   7.118   8.755  0.9882 -0.0163 -0.8565
11771SOL     OW36753   5.553   2.796   5.847  0.0174 -0.3387  0.3354
11771SOL    HW136754   5.489   2.860   5.879 -1.7549 -1.7329 -0.2090
11771SOL    HW236755   5.625   2.849   5.812 -0.9249  1.3132  0.7777
11772SOL     OW36756   1.448   2.033   3.727 -0.0112 -0.3371  0.2593
11772SOL    HW136757   1.513   1.980   3.681  1.3653  0.8366  0.7700
11772SOL    HW236758   1.412   2.091   3.659 -0.8524 -1.2548 -0.1067
11773SOL     OW36759   1.033   4.310   0.813  0.3347  0.3249 -0.6445
11773SOL    HW136760   0.953   4.360   0.799  1.3212  2.1135 -0.1946
11773SOL    HW236761   1.003   4.225   0.845 -1.3608  1.4239  0.9113
11774SOL     OW36762   0.294   7.080   3.604 -0.6632 -0.1816  0.4063
11774SOL    HW136763   0.249   7.007   3.561 -0.0477  1.1567 -2.7787
11774SOL    HW236764   0.382   7.048   3.619 -1.0444 -0.8649  1.2627
11775SOL     OW36765   7.942   0.387   9.412  0.7060 -0.5202  0.2352
11775SOL    HW136766   7.878   0.406   9.481 -1.1365 -0.3209 -1.4385
11775SOL    HW236767   8.017   0.351   9.459 -0.2712  0.0399  2.3802
11776SOL     OW36768   2.305   3.729  12.294  0.5823 -0.0641 -0.4180
11776SOL    HW136769   2.225   3.780  12.283  1.3405  1.0035 -1.1878
11776SOL    HW236770   2.334   3.748  12.383  0.7600  0.7385 -0.6343
11777SOL     OW36771   2.014   3.879   6.542  0.2174  0.2116  0.2971
11777SOL    HW136772   1.979   3.792   6.523 -2.8039  1.5424 -0.7629
11777SOL    HW236773   2.096   3.883   6.493 -0.2895 -1.5315 -0.7791
11778SOL     OW36774   4.969   6.945   2.667  0.5491 -0.2188  0.1854
11778SOL    HW136775   5.029   6.943   2.741  2.8954 -0.3887 -1.5909
11778SOL    HW236776   4.999   7.020   2.614 -0.1782 -0.8961 -1.2454
11779SOL     OW36777   1.850   2.184   0.278 -0.4027  0.9763 -0.5823
11779SOL    HW136778   1.755   2.178   0.269 -0.1930 -1.2019 -2.3121
11779SOL    HW236779   1.870   2.139   0.360 -0.7815 -0.3134 -1.1626
11780SOL     OW36780   5.693   7.221   5.377 -0.1183  0.2458  0.0112
11780SOL    HW136781   5.653   7.169   5.307  1.7173 -0.5460 -0.5107
11780SOL    HW236782   5.704   7.159   5.449  0.7150  0.2798 -0.0780
11781SOL     OW36783   2.114   4.127  12.448 -0.5382  0.0801 -0.2368
11781SOL    HW136784   2.205   4.114  12.421 -0.7748  2.6835 -2.6579
11781SOL    HW236785   2.087   4.041  12.482  3.3062 -0.3304  2.4322
11782SOL     OW36786   1.940   7.440   1.492 -0.1199 -0.2026  0.2656
11782SOL    HW136787   2.025   7.484   1.500 -0.7623  1.7512 -2.5347
11782SOL    HW236788   1.881   7.493   1.545 -0.2530  0.4830 -0.5522
11783SOL     OW36789   3.980   4.269   8.447  0.6221 -0.4359  0.1253
11783SOL    HW136790   4.057   4.230   8.406 -0.4393  0.3313 -2.8082
11783SOL    HW236791   3.905   4.232   8.400 -0.6169  1.7800  0.2085
11784SOL     OW36792   5.707   7.241   2.639 -0.4484  0.6024  0.0967
11784SOL    HW136793   5.725   7.309   2.704 -1.9433  1.4813 -0.3609
11784SOL    HW236794   5.612   7.245   2.626 -0.1098  1.1723 -2.8880
11785SOL     OW36795   7.633   1.880   3.278 -0.0168 -0.1761  0.7744
11785SOL    HW136796   7.565   1.923   3.330 -0.1671  0.6688 -0.0853
11785SOL    HW236797   7.607   1.787   3.278 -1.3951  0.1700  0.1872
11786SOL     OW36798   1.559   1.374   5.479  0.7262 -0.6881 -1.0236
11786SOL    HW136799   1.485   1.407   5.426  0.0648  1.6151  1.1247
11786SOL    HW236800   1.525   1.296   5.522 -0.9621  0.8812  0.7114
11787SOL     OW36801   2.278   2.528   7.511 -0.0756 -0.1294 -0.0853
11787SOL    HW136802   2.347   2.514   7.576 -0.3011 -2.2577 -0.2266
11787SOL    HW236803   2.223   2.597   7.549  0.2190 -0.7853  1.6398
11788SOL     OW36804   2.618   1.038   6.683  0.1959  0.0243  0.0538
11788SOL    HW136805   2.634   1.131   6.665 -0.5345 -0.0090 -0.8638
11788SOL    HW236806   2.529   1.035   6.718 -1.0304 -0.5707 -2.7725
11789SOL     OW36807   1.081   2.989  10.218 -0.0986  0.1152  0.1293
11789SOL    HW136808   1.021   3.058  10.247  1.1378  1.3140 -0.0523
11789SOL    HW236809   1.168   3.028  10.226  0.7292 -1.7721  0.9388
11790SOL     OW36810   6.217   0.850   3.060 -0.3043  0.1107  0.0654
11790SOL    HW136811   6.311   0.861   3.044 -0.1038 -0.2074  0.9529
11790SOL    HW236812   6.178   0.934   3.036  0.4908  0.9845  1.7009
11791SOL     OW36813   5.308   7.067   4.919  0.2301 -0.5284  0.5606
11791SOL    HW136814   5.252   7.136   4.957 -0.8726 -1.5245  0.8065
11791SOL    HW236815   5.251   7.021   4.857  0.6856 -1.7541  1.0181
11792SOL     OW36816   3.811   7.399  10.019  0.3138  0.6570 -0.1075
11792SOL    HW136817   3.769   7.472  10.064 -0.1765  0.5479 -0.3745
11792SOL    HW236818   3.823   7.429   9.929 -0.9978  0.0068 -0.5378
11793SOL     OW36819   7.539   7.145   2.623  0.4366 -0.4711  0.8413
11793SOL    HW136820   7.454   7.158   2.664  0.2145  0.1793  0.1872
11793SOL    HW236821   7.583   7.229   2.632 -0.3455  0.3349 -1.8883
11794SOL     OW36822   7.270   1.440   0.290 -0.0374  0.1736 -0.0683
11794SOL    HW136823   7.333   1.411   0.225 -0.3823 -1.9498  0.4827
11794SOL    HW236824   7.185   1.415   0.255 -0.2073 -1.2861  1.2891
11795SOL     OW36825   1.977   0.213   4.949  0.0062  0.0031 -0.2248
11795SOL    HW136826   1.995   0.122   4.924  0.8257  0.4615 -1.4020
11795SOL    HW236827   1.882   0.220   4.945 -0.1266 -1.0185  0.7182
11796SOL     OW36828   7.263   0.290   6.462 -0.0667 -0.0537 -0.2556
11796SOL    HW136829   7.258   0.247   6.377  0.2863  0.1724 -0.3973
11796SOL    HW236830   7.270   0.383   6.441  0.8501 -0.0512 -0.0199
11797SOL     OW36831   7.901   2.655  12.141 -0.2391 -0.3365  0.3087
11797SOL    HW136832   7.948   2.575  12.115  0.0866 -0.4855  1.2996
11797SOL    HW236833   7.963   2.726  12.123 -0.7169 -0.2469 -1.0413
11798SOL     OW36834   2.026   4.957   5.828 -0.0446  1.0753  0.3521
11798SOL    HW136835   1.944   4.974   5.875 -0.1434  2.0859 -0.1681
11798SOL    HW236836   2.071   5.042   5.826  0.3508  0.8526 -0.6299
11799SOL     OW36837   0.554   0.900   3.965  0.5359  0.3317 -0.2137
11799SOL    HW136838   0.595   0.906   4.051 -0.1828  0.5675  0.1190
11799SOL    HW236839   0.616   0.850   3.912  0.0189 -1.7103  1.0407
11800SOL     OW36840   2.862   7.038   8.803  0.2219 -0.8823 -0.2621
11800SOL    HW136841   2.775   7.079   8.804  0.4929 -0.2623  1.5016
11800SOL    HW236842   2.854   6.966   8.740 -1.3305 -0.3622 -0.7145
11801SOL     OW36843   1.265   5.087   1.304 -0.0045 -0.6450 -0.3687
11801SOL    HW136844   1.270   5.089   1.400  1.6617 -0.4417 -0.4202
11801SOL    HW236845   1.180   5.048   1.285 -0.4775 -0.4656  1.1877
11802SOL     OW36846   0.595   1.933  10.488  0.1568  0.2840 -0.0346
11802SOL    HW136847   0.653   1.944  10.413  0.4200 -0.4480  0.0548
11802SOL    HW236848   0.617   1.847  10.523  0.1180  0.6614  0.9540
11803SOL     OW36849   6.479   6.982   9.133  0.1170 -0.5666  0.5388
11803SOL    HW136850   6.455   6.931   9.055  0.1277 -3.3795  2.2370
11803SOL    HW236851   6.466   7.073   9.107 -0.3962 -1.4134 -2.5586
11804SOL     OW36852   2.125   3.385   7.483  0.3574  0.4578  0.3357
11804SOL    HW136853   2.146   3.346   7.568 -0.4648 -0.1868  0.2560
11804SOL    HW236854   2.068   3.321   7.441  0.7752  0.7538 -0.7193
11805SOL     OW36855   3.807   5.195  10.206  0.0583  0.3849  0.3605
11805SOL    HW136856   3.874   5.185  10.138 -0.0756 -0.2243  0.3142
11805SOL    HW236857   3.771   5.107  10.217  0.6007  0.3118  1.7657
11806SOL     OW36858   1.654   3.107   4.458 -0.2262  0.2896  1.1585
11806SOL    HW136859   1.588   3.057   4.507  0.1288 -1.9167 -0.4730
11806SOL    HW236860   1.603   3.173   4.411 -1.2384 -0.9482  0.4501
11807SOL     OW36861   0.776   2.819   3.620 -0.4578 -0.2040  0.0192
11807SOL    HW136862   0.849   2.858   3.571  1.2392  1.4932  3.5309
11807SOL    HW236863   0.813   2.740   3.658 -1.3661 -0.8659 -0.4539
11808SOL     OW36864   6.986   6.128   3.699 -0.4125 -0.4548  0.0656
11808SOL    HW136865   7.032   6.173   3.769 -1.5168  0.7639  0.0673
11808SOL    HW236866   7.054   6.100   3.638  0.3119  1.9165 -0.2958
11809SOL     OW36867   0.126   7.760   9.708  1.0567 -0.3474  0.6986
11809SOL    HW136868   0.089   7.766   9.796 -1.5031  1.7169 -0.3836
11809SOL    HW236869   0.199   7.822   9.708  0.9933 -0.2673  1.3313
11810SOL     OW36870   3.260   0.071   5.752  0.1774  0.2773 -0.3946
11810SOL    HW136871   3.282   0.007   5.820  0.4738 -0.0871 -0.8197
11810SOL    HW236872   3.257   0.155   5.797 -1.8321 -0.2326  0.4932
11811SOL     OW36873   5.336   5.201   7.239  0.4182 -0.0513 -0.1544
11811SOL    HW136874   5.276   5.275   7.246 -1.2607 -1.2820 -0.8610
11811SOL    HW236875   5.279   5.126   7.223  2.0632 -1.5233  0.6479
11812SOL     OW36876   2.834   3.497   4.437  0.5801  0.4204  0.0466
11812SOL    HW136877   2.764   3.477   4.500 -1.2749  1.1255 -1.6550
11812SOL    HW236878   2.875   3.413   4.420  1.2816  0.2437  2.2961
11813SOL     OW36879   1.128   2.834  11.105  0.0921  0.2290  0.0329
11813SOL    HW136880   1.212   2.799  11.135  0.1352 -0.6401 -1.0439
11813SOL    HW236881   1.080   2.855  11.186  1.1704  0.3386  0.6594
11814SOL     OW36882   5.471   6.296   7.431 -0.5356  0.0682 -0.8278
11814SOL    HW136883   5.498   6.235   7.362 -0.2311  1.1870 -1.7385
11814SOL    HW236884   5.528   6.276   7.505 -1.8939 -2.1846 -0.3138
11815SOL     OW36885   2.059   5.501   9.673 -0.1652 -0.8911 -0.6443
11815SOL    HW136886   2.123   5.431   9.687 -0.2275 -0.6419  0.9756
11815SOL    HW236887   2.096   5.551   9.600  2.2765  0.0754  1.0994
11816SOL     OW36888   2.162   4.736   5.362  0.0148 -0.1343 -0.3303
11816SOL    HW136889   2.096   4.668   5.349  0.7891 -0.6351 -1.8552
11816SOL    HW236890   2.153   4.794   5.286  0.6651  0.3643 -0.0404
11817SOL     OW36891   0.961   5.274   5.792 -0.2271  0.0064  0.4950
11817SOL    HW136892   1.026   5.230   5.846 -1.1696 -0.4954  1.2410
11817SOL    HW236893   1.010   5.343   5.747  1.0805 -1.1576  0.0551
11818SOL     OW36894   1.239   2.514   0.445 -0.0889 -0.6389 -0.2641
11818SOL    HW136895   1.212   2.589   0.498 -1.5521 -1.5134  0.3002
11818SOL    HW236896   1.311   2.475   0.494  1.2039  0.7893 -0.9415
11819SOL     OW36897   3.892   5.469   6.108 -0.1899 -0.0259 -0.4450
11819SOL    HW136898   3.824   5.482   6.174 -0.6436  0.4120 -0.9921
11819SOL    HW236899   3.900   5.374   6.100  1.8517 -0.2237  2.2477
11820SOL     OW36900   6.471   0.745   7.516  0.0084 -0.3184 -0.2437
11820SOL    HW136901   6.383   0.746   7.480 -0.1747 -0.4217  0.1933
11820SOL    HW236902   6.462   0.704   7.602  0.2975  0.6589  0.2717
11821SOL     OW36903   7.863   5.231   7.716 -0.2175  0.3071 -0.3489
11821SOL    HW136904   7.804   5.289   7.764 -0.1140  0.3974 -0.3308
11821SOL    HW236905   7.835   5.239   7.625 -0.4861  0.0499 -0.2901
11822SOL     OW36906   2.191   2.036   3.701 -0.0942 -0.2698  0.3225
11822SOL    HW136907   2.162   1.998   3.784 -0.8295 -1.3687 -0.4175
11822SOL    HW236908   2.276   1.995   3.684 -0.8536 -1.5982 -0.4400
11823SOL     OW36909   5.147   7.480   0.227  0.2674  0.1822  0.0406
11823SOL    HW136910   5.202   7.402   0.220  1.1024  0.8385 -1.2686
11823SOL    HW236911   5.070   7.452   0.276  0.7382 -1.3564 -0.0595
11824SOL     OW36912   3.267   4.512   2.506 -0.0478 -0.5028  0.2331
11824SOL    HW136913   3.235   4.429   2.540  1.6730 -1.1659  0.3259
11824SOL    HW236914   3.262   4.502   2.411 -0.1398 -0.5779  0.2449
11825SOL     OW36915   1.995   7.018   9.426  0.1694  0.2074 -0.2918
11825SOL    HW136916   2.090   7.013   9.434  0.1087 -1.1182 -0.2216
11825SOL    HW236917   1.971   6.941   9.374 -1.0347 -0.5415  1.2812
11826SOL     OW36918   3.423   2.114   9.359 -0.1544  0.5028 -0.0500
11826SOL    HW136919   3.459   2.187   9.409 -0.3851  1.1376 -0.8038
11826SOL    HW236920   3.428   2.142   9.268  0.1269 -0.5861 -0.3872
11827SOL     OW36921   1.366   7.702   2.332  0.5207 -0.1355 -0.0813
11827SOL    HW136922   1.432   7.763   2.366 -0.7327  0.9965  0.3918
11827SOL    HW236923   1.392   7.688   2.241  1.9075 -0.4061  0.3296
11828SOL     OW36924   0.978   0.400   0.901  0.1604 -0.1094  0.4053
11828SOL    HW136925   0.908   0.336   0.910  0.0319  0.0040  0.2160
11828SOL    HW236926   0.959   0.466   0.968 -0.1287  0.1181  0.1030
11829SOL     OW36927   6.058   5.065  11.651 -0.5044 -0.5902 -0.0321
11829SOL    HW136928   5.985   5.005  11.659  0.6628 -1.9930  0.5051
11829SOL    HW236929   6.132   5.010  11.623  1.0763  0.1615  2.2828
11830SOL     OW36930   5.805   0.921   5.153  0.3945 -0.3783 -0.4625
11830SOL    HW136931   5.826   0.857   5.221  2.0479 -0.3805 -0.9187
11830SOL    HW236932   5.732   0.972   5.188  0.0601 -1.5204  0.5471
11831SOL     OW36933   7.749   0.422   6.601  0.0483 -0.3449  0.0505
11831SOL    HW136934   7.788   0.338   6.625  0.1376 -0.4150 -0.3322
11831SOL    HW236935   7.803   0.488   6.646  0.6376 -0.4382 -0.5036
11832SOL     OW36936   1.673   3.952   4.147 -0.4114 -0.1447  0.4361
11832SOL    HW136937   1.753   4.003   4.133 -0.1285 -0.4637  0.8685
11832SOL    HW236938   1.603   4.006   4.110 -0.1373  0.5979  0.9773
11833SOL     OW36939   4.488   2.336   3.735 -0.4007 -0.0629  0.5159
11833SOL    HW136940   4.494   2.432   3.740 -1.5459  0.1155 -0.9323
11833SOL    HW236941   4.567   2.305   3.780 -0.2133  1.5425  1.3695
11834SOL     OW36942   1.526   3.584  11.674 -0.0677 -0.2415  0.5433
11834SOL    HW136943   1.569   3.666  11.651  0.0821  0.5015  3.2319
11834SOL    HW236944   1.452   3.579  11.613  0.7563  1.1291 -0.6354
11835SOL     OW36945   7.184   7.058   6.852 -0.2645  0.5536 -0.8591
11835SOL    HW136946   7.149   7.003   6.782  0.4044  1.2125 -1.7246
11835SOL    HW236947   7.158   7.147   6.828  1.3740  0.9824 -1.1638
11836SOL     OW36948   4.622   4.405   0.951 -0.3733  0.2219 -0.0832
11836SOL    HW136949   4.699   4.425   0.899  0.5327 -0.5629  0.9023
11836SOL    HW236950   4.603   4.313   0.932 -0.8325  0.3076 -0.0432
11837SOL     OW36951   0.439   1.230   3.312  0.3073  0.2727  0.0907
11837SOL    HW136952   0.516   1.244   3.367  0.0186 -1.3366  0.9579
11837SOL    HW236953   0.468   1.170   3.244  0.0670  0.4107 -0.1365
11838SOL     OW36954   2.666   4.282   8.264 -0.4735  0.2550  0.1123
11838SOL    HW136955   2.613   4.292   8.344 -1.4734  0.1625 -0.5242
11838SOL    HW236956   2.674   4.188   8.253 -1.3460  0.2476 -0.5367
11839SOL     OW36957   0.443   2.887   3.832  0.3075  0.3247  0.2110
11839SOL    HW136958   0.501   2.943   3.781 -0.1266  1.2655  0.7289
11839SOL    HW236959   0.488   2.877   3.916  1.4971 -2.0206 -0.6173
11840SOL     OW36960   2.633   1.723   9.939  0.5890  0.8825  0.0140
11840SOL    HW136961   2.672   1.810   9.937 -2.2826  2.3243  1.2168
11840SOL    HW236962   2.586   1.716   9.856  0.6497  0.5731  0.0059
11841SOL     OW36963   6.017   1.052   5.280 -0.2993  0.0649  0.2636
11841SOL    HW136964   5.928   1.025   5.258  0.0601 -2.0757  1.2492
11841SOL    HW236965   6.022   1.046   5.375  1.8006 -3.2520  0.1124
11842SOL     OW36966   4.016   1.900   6.157  0.8507 -0.0341 -0.1566
11842SOL    HW136967   4.110   1.904   6.178  0.9369  0.5309 -0.6391
11842SOL    HW236968   4.005   1.963   6.086  0.1169 -0.1685 -0.1619
11843SOL     OW36969   5.766   0.825   3.039 -0.4637 -0.3023 -0.1208
11843SOL    HW136970   5.796   0.876   2.963  0.6323 -0.8732 -0.0911
11843SOL    HW236971   5.821   0.856   3.111 -0.2170 -1.0741  0.0287
11844SOL     OW36972   0.146   7.757   9.243  0.0643 -0.3559  0.0147
11844SOL    HW136973   0.233   7.792   9.225  0.9430 -2.6734 -0.4837
11844SOL    HW236974   0.155   7.713   9.328 -0.9766  0.3957  0.5501
11845SOL     OW36975   6.143   3.341   0.516  0.1439 -0.0269  0.3764
11845SOL    HW136976   6.167   3.433   0.505  0.3193 -0.1455 -0.2842
11845SOL    HW236977   6.226   3.297   0.536  0.1599 -0.1264  0.1025
11846SOL     OW36978   4.365   2.531   1.200  0.5763 -0.7301  0.1590
11846SOL    HW136979   4.352   2.623   1.222  1.9600 -1.0069  2.4541
11846SOL    HW236980   4.459   2.517   1.207  0.2969 -2.5302  0.8393
11847SOL     OW36981   1.601   0.757   7.194 -0.7221  0.2444  0.1146
11847SOL    HW136982   1.536   0.690   7.171  1.3032 -0.9542 -2.7354
11847SOL    HW236983   1.593   0.822   7.124  1.1201  0.0341 -0.3400
11848SOL     OW36984   0.301   5.922  10.902 -0.6749 -0.1662  0.4859
11848SOL    HW136985   0.335   5.833  10.912 -1.7373 -0.4824  1.5417
11848SOL    HW236986   0.346   5.957  10.825  0.4779 -1.2722  0.6340
11849SOL     OW36987   7.160   3.428   7.999  0.2793  0.0375 -0.0051
11849SOL    HW136988   7.230   3.449   8.060  0.0843  0.8891 -0.0563
11849SOL    HW236989   7.080   3.458   8.043  0.2744  2.0529 -1.2557
11850SOL     OW36990   7.688   5.929   9.615 -0.3704 -0.2189  0.2426
11850SOL    HW136991   7.701   5.930   9.709  0.0211  0.6995  0.1896
11850SOL    HW236992   7.675   6.021   9.591 -1.9610 -0.5830 -0.4027
11851SOL     OW36993   1.692   1.316  11.338  0.3121 -0.1804  0.0107
11851SOL    HW136994   1.715   1.223  11.330  1.8309  0.1872 -0.1351
11851SOL    HW236995   1.603   1.321  11.303 -0.2721 -1.7687  1.1136
11852SOL     OW36996   6.988   1.627   0.053  0.2768 -0.2261  0.2840
11852SOL    HW136997   7.028   1.549   0.014 -0.6227 -0.3668 -0.3919
11852SOL    HW236998   6.912   1.593   0.100  0.6627  0.0924  1.1519
11853SOL     OW36999   3.877   2.462  10.632  0.0618  0.5279 -0.4606
11853SOL    HW137000   3.948   2.397  10.625  1.0109  1.5581 -0.6406
11853SOL    HW237001   3.886   2.515  10.554 -1.7865 -0.1437 -1.1697
11854SOL     OW37002   7.912   6.510   7.520  0.3455  0.2412 -0.5308
11854SOL    HW137003   7.887   6.559   7.598 -2.0329  0.1222 -1.1484
11854SOL    HW237004   7.916   6.575   7.450 -1.9027 -0.1931 -1.1572
11855SOL     OW37005   2.682   5.060  12.199 -0.1744 -0.3338 -0.3402
11855SOL    HW137006   2.628   5.130  12.236  0.1490 -0.4258  0.3210
11855SOL    HW237007   2.642   5.042  12.114 -0.1984  0.7254 -0.5662
11856SOL     OW37008   7.784   5.373   2.563  0.0641 -0.3024 -0.0641
11856SOL    HW137009   7.807   5.307   2.628 -1.5698 -1.1690 -0.3279
11856SOL    HW237010   7.705   5.415   2.597 -0.7541 -0.6871 -1.3901
11857SOL     OW37011   2.565   0.630   1.258 -0.3829 -0.0182 -0.0240
11857SOL    HW137012   2.656   0.643   1.284  0.6634 -0.6329 -2.9092
11857SOL    HW237013   2.523   0.593   1.335  1.6342  0.8886  1.6142
11858SOL     OW37014   1.370   6.286   8.774  0.4541 -0.0221  0.4592
11858SOL    HW137015   1.417   6.205   8.791 -0.3221 -0.7394 -0.6553
11858SOL    HW237016   1.375   6.297   8.679  0.4660  1.2037  0.5790
11859SOL     OW37017   6.590   0.281   4.452 -0.0703  0.0370 -0.2922
11859SOL    HW137018   6.585   0.188   4.431  1.9607 -0.3685  0.7599
11859SOL    HW237019   6.662   0.314   4.398  1.1760  0.3079  1.4691
11860SOL     OW37020   0.310   2.678  11.307  0.0429 -0.4044 -0.1845
11860SOL    HW137021   0.279   2.698  11.218 -0.0394 -0.1627 -0.1037
11860SOL    HW237022   0.383   2.739  11.321  1.2600 -1.6727 -0.7627
11861SOL     OW37023   3.875   6.937   6.790  0.5066  0.0803 -0.6013
11861SOL    HW137024   3.970   6.941   6.805  0.1770  0.3583  1.8338
11861SOL    HW237025   3.855   6.844   6.789  0.9062 -0.0170 -2.1708
11862SOL     OW37026   4.080   7.134   3.363  0.3525  0.0032  0.2470
11862SOL    HW137027   4.063   7.223   3.393  2.2938  1.4609 -2.5823
11862SOL    HW237028   4.139   7.097   3.429  0.9842  1.4915  0.5432
11863SOL     OW37029   7.577   4.363   9.700 -0.1767  0.0334  0.7246
11863SOL    HW137030   7.618   4.392   9.619  0.6065  0.4514  1.2630
11863SOL    HW237031   7.569   4.443   9.753 -1.5142 -0.0716  0.7098
11864SOL     OW37032   4.564   1.270   5.949  0.1034 -0.0423  0.6701
11864SOL    HW137033   4.552   1.361   5.977 -1.7680 -0.8884  3.0086
11864SOL    HW237034   4.526   1.218   6.020 -1.4143 -2.5974 -1.7935
11865SOL     OW37035   6.290   5.870   2.750  0.1782  0.5726 -0.1304
11865SOL    HW137036   6.310   5.792   2.801 -2.2520  0.1274  0.2578
11865SOL    HW237037   6.219   5.843   2.692 -0.7830  2.4859  0.0776
11866SOL     OW37038   3.237   5.410   2.901  0.2602 -0.4335  0.6961
11866SOL    HW137039   3.262   5.345   2.966  0.3393 -0.1033  0.9966
11866SOL    HW237040   3.284   5.489   2.927 -0.1976 -0.1290  0.5954
11867SOL     OW37041   2.574   2.022   1.798 -0.1820  0.5099  0.1211
11867SOL    HW137042   2.491   2.067   1.782 -0.3802 -0.2592 -1.0777
11867SOL    HW237043   2.550   1.934   1.824  0.2428  0.6465  1.0198
11868SOL     OW37044   7.555   5.540   6.421  0.1805 -0.0691 -0.4046
11868SOL    HW137045   7.603   5.558   6.340 -0.2589 -0.5976 -0.7898
11868SOL    HW237046   7.468   5.578   6.405 -0.1877 -0.9477 -0.5311
11869SOL     OW37047   4.730   5.748  10.686 -0.4027  0.0397  0.0436
11869SOL    HW137048   4.707   5.658  10.711 -0.0724  0.0821  0.5112
11869SOL    HW237049   4.803   5.738  10.625 -1.0315 -0.0507 -0.7084
11870SOL     OW37050   1.058   0.850   8.018  0.1904 -0.3215  0.0193
11870SOL    HW137051   1.069   0.945   8.011 -1.2495 -0.1014  0.3584
11870SOL    HW237052   1.141   0.814   7.986  0.8068  1.0431 -0.0183
11871SOL     OW37053   2.600   6.957   7.654 -0.2391 -0.4005  0.1740
11871SOL    HW137054   2.532   6.984   7.593 -0.6672  1.3221  1.3264
11871SOL    HW237055   2.621   6.867   7.629 -1.3590 -0.2116 -1.5993
11872SOL     OW37056   2.054   3.910   5.293  0.0473 -0.5370  0.0149
11872SOL    HW137057   2.103   3.919   5.211  0.0017 -0.1237  0.0304
11872SOL    HW237058   2.016   3.996   5.307 -1.0555 -0.9662 -0.2289
11873SOL     OW37059   4.836   7.330   6.027  0.0670 -0.2030 -0.0503
11873SOL    HW137060   4.846   7.290   5.941 -1.1158 -0.4015 -0.1022
11873SOL    HW237061   4.850   7.257   6.088  0.4956 -0.1448 -0.0719
11874SOL     OW37062   1.816   1.680   5.855  0.1071 -0.1237 -0.3726
11874SOL    HW137063   1.746   1.639   5.905  0.3683 -1.0893 -0.7738
11874SOL    HW237064   1.804   1.649   5.765  2.1376 -1.8796 -0.1236
11875SOL     OW37065   6.895   1.725  10.220  0.1218 -0.7439 -1.0030
11875SOL    HW137066   6.979   1.761  10.191 -0.3983 -0.3718 -2.1420
11875SOL    HW237067   6.849   1.704  10.138 -0.4440 -2.0185 -0.3917
11876SOL     OW37068   6.190   5.920   1.961 -0.0412  0.1324  0.2631
11876SOL    HW137069   6.164   6.003   1.920  0.2150  0.9689  1.7419
11876SOL    HW237070   6.138   5.915   2.041 -0.0719 -1.1718  0.1910
11877SOL     OW37071   2.170   2.369  11.458 -0.3287 -0.2994  0.3166
11877SOL    HW137072   2.185   2.277  11.479 -2.6627 -0.5067  1.4252
11877SOL    HW237073   2.084   2.369  11.415 -0.4611  1.3754  0.5304
11878SOL     OW37074   2.667   2.252   5.908 -0.3294  0.6381 -0.0507
11878SOL    HW137075   2.758   2.247   5.877  0.2341 -1.1991  1.6664
11878SOL    HW237076   2.616   2.216   5.835  0.2494  2.0032 -1.1697
11879SOL     OW37077   7.023   2.388  10.390 -0.6107 -0.0870  0.1223
11879SOL    HW137078   6.968   2.364  10.464 -2.3352 -1.6758 -1.5734
11879SOL    HW237079   7.079   2.311  10.376  0.8651  0.8266  0.7190
11880SOL     OW37080   1.489   5.674   4.528 -0.4458  0.8554 -0.5953
11880SOL    HW137081   1.527   5.619   4.598 -0.4170  1.4379 -0.1408
11880SOL    HW237082   1.401   5.639   4.515  0.4081 -0.8948 -2.0701
11881SOL     OW37083   3.801   7.465   6.050 -0.2703 -0.6116 -0.1343
11881SOL    HW137084   3.728   7.467   5.988  0.0907  1.5171 -0.5607
11881SOL    HW237085   3.813   7.556   6.076  0.1263 -1.3208  2.4753
11882SOL     OW37086   0.277   6.258   7.855  0.3537 -0.7546 -0.1559
11882SOL    HW137087   0.284   6.217   7.941 -1.8865  0.5948  0.7790
11882SOL    HW237088   0.192   6.230   7.823  0.3590  0.2527 -1.0859
11883SOL     OW37089   6.337   0.100   8.408 -0.2869  0.1700 -0.4648
11883SOL    HW137090   6.248   0.065   8.407  0.3826 -1.6613 -0.9885
11883SOL    HW237091   6.326   0.195   8.408 -2.2277 -0.0046 -1.5387
11884SOL     OW37092   0.154   6.859   8.617  0.6878  0.0238  0.4604
11884SOL    HW137093   0.104   6.878   8.696  2.2103 -0.4440  1.5706
11884SOL    HW237094   0.179   6.767   8.626  0.3163 -0.2401 -0.9046
11885SOL     OW37095   5.078   2.833  11.839  1.0050  0.0032  0.3499
11885SOL    HW137096   5.037   2.799  11.919 -1.3202 -0.4049 -0.9268
11885SOL    HW237097   5.016   2.899  11.807  2.4812  1.0363 -0.5007
11886SOL     OW37098   0.960   6.306   7.179 -0.4401  0.3494  0.0066
11886SOL    HW137099   0.934   6.347   7.097 -0.4066  0.2519 -0.0526
11886SOL    HW237100   0.905   6.227   7.185  0.6631 -0.4967 -0.7015
11887SOL     OW37101   7.444   5.148  10.136  0.2456 -0.1725 -0.2390
11887SOL    HW137102   7.383   5.220  10.153 -0.0941 -0.4938 -0.0768
11887SOL    HW237103   7.521   5.190  10.098  0.1074  0.2946 -0.0121
11888SOL     OW37104   6.604   7.436   0.414  0.1960 -0.5173 -0.7921
11888SOL    HW137105   6.669   7.402   0.353 -0.4676 -2.3479 -0.5346
11888SOL    HW237106   6.591   7.527   0.387  1.8447 -0.5004 -1.6903
11889SOL     OW37107   5.413   4.597   1.193 -0.2749  0.1551  0.3423
11889SOL    HW137108   5.346   4.581   1.260  0.3300 -0.3302  0.8414
11889SOL    HW237109   5.363   4.622   1.115 -1.1045 -1.0842  0.4357
11890SOL     OW37110   1.845   5.876   6.621 -0.3486  0.4832  0.4583
11890SOL    HW137111   1.824   5.876   6.714 -1.1991  0.7012  0.2750
11890SOL    HW237112   1.874   5.787   6.603 -0.4730  0.3589  0.8636
11891SOL     OW37113   7.048   6.507  12.092 -0.3041 -0.7668 -0.1381
11891SOL    HW137114   7.139   6.509  12.063 -0.2908  0.2901 -0.0813
11891SOL    HW237115   7.030   6.415  12.110  0.2330 -1.2329 -1.7753
11892SOL     OW37116   1.419   7.359   1.714  0.3919 -0.2940  0.2844
11892SOL    HW137117   1.400   7.272   1.750  4.1896 -1.1656  0.5475
11892SOL    HW237118   1.444   7.343   1.623 -1.4735  0.9481 -0.5106
11893SOL     OW37119   2.599   0.139   4.500  0.5104 -0.3427 -0.1821
11893SOL    HW137120   2.525   0.158   4.558  0.7088 -0.4876  0.1270
11893SOL    HW237121   2.560   0.112   4.418  0.1990 -1.7031  0.3896
11894SOL     OW37122   3.597   6.391  10.516  0.1709 -0.7091 -0.3103
11894SOL    HW137123   3.687   6.361  10.505  0.9346  1.1222  0.4824
11894SOL    HW237124   3.587   6.459  10.448  0.0152  0.3339  0.7219
11895SOL     OW37125   4.501   2.525   1.577  0.2494 -0.5106  0.5761
11895SOL    HW137126   4.471   2.449   1.627 -1.5506  0.2391  0.6719
11895SOL    HW237127   4.542   2.582   1.643 -0.1449 -0.5100  0.8207
11896SOL     OW37128   0.924   7.092   3.076  0.0172  0.2690 -0.2329
11896SOL    HW137129   0.948   7.182   3.098 -0.0274  0.1285  0.4101
11896SOL    HW237130   0.996   7.038   3.110  0.0129  0.0518 -0.5549
11897SOL     OW37131   0.238   7.223   7.477  0.4958 -0.3782 -0.2559
11897SOL    HW137132   0.263   7.151   7.419  0.7590 -0.1393 -0.4436
11897SOL    HW237133   0.289   7.298   7.445 -0.4408  0.1178 -0.6323
11898SOL     OW37134   2.989   1.801  10.875  0.7163 -0.1089  0.1769
11898SOL    HW137135   3.063   1.765  10.925 -1.6338 -1.9119  2.6360
11898SOL    HW237136   2.958   1.875  10.927  1.1165  1.0734 -1.1889
11899SOL     OW37137   4.223   2.452   5.575 -0.5827 -0.0870  0.2349
11899SOL    HW137138   4.225   2.456   5.479 -1.8030 -0.0412  0.1991
11899SOL    HW237139   4.246   2.540   5.603 -1.5463  0.2743 -0.0569
11900SOL     OW37140   5.008   7.010   8.262 -0.1605  0.0408  0.1523
11900SOL    HW137141   5.103   7.019   8.261 -0.1749  0.3839  0.9026
11900SOL    HW237142   4.990   6.935   8.205  0.6610 -0.9693  1.1905
11901SOL     OW37143   7.818   4.755   2.625 -0.4303  0.3826 -0.2792
11901SOL    HW137144   7.802   4.701   2.547 -0.4623  1.3894 -0.9898
11901SOL    HW237145   7.827   4.844   2.591 -0.7538  0.8880  0.9115
11902SOL     OW37146   3.424   2.130   5.321 -0.3423  0.1144  0.4267
11902SOL    HW137147   3.507   2.125   5.273 -0.9973 -1.4977 -0.6550
11902SOL    HW237148   3.398   2.222   5.316 -0.0438  0.1298 -1.7988
11903SOL     OW37149   6.855   4.494   9.340  0.0993 -0.7796  0.1290
11903SOL    HW137150   6.772   4.456   9.314  0.5318 -1.5160 -0.2065
11903SOL    HW237151   6.917   4.421   9.338  1.1235  0.0703 -1.3128
11904SOL     OW37152   7.396   4.122  11.835  0.1199 -0.1801 -0.1423
11904SOL    HW137153   7.307   4.110  11.870 -1.0492 -0.1426 -2.8727
11904SOL    HW237154   7.450   4.063  11.887 -1.7561 -1.2788  0.6693
11905SOL     OW37155   4.339   5.749   2.152  0.8589  0.4777 -0.0724
11905SOL    HW137156   4.243   5.755   2.150  0.9078  1.8615  0.4159
11905SOL    HW237157   4.358   5.657   2.133 -0.5758  0.1143  0.1356
11906SOL     OW37158   7.902   0.282  12.339  0.2148  0.6600 -0.1535
11906SOL    HW137159   7.829   0.338  12.311  0.7915  1.3967 -0.2202
11906SOL    HW237160   7.944   0.255  12.257 -0.9798 -1.1720 -0.2078
11907SOL     OW37161   7.385   0.882   9.203  0.3776  0.3240 -0.1669
11907SOL    HW137162   7.337   0.814   9.157 -0.3683  0.3464  0.5458
11907SOL    HW237163   7.382   0.958   9.144  0.0062  0.1542 -0.3692
11908SOL     OW37164   6.593   1.654   3.308  0.6996 -0.7042 -0.5433
11908SOL    HW137165   6.660   1.593   3.340 -0.5736 -1.8622  0.0201
11908SOL    HW237166   6.551   1.608   3.235  0.3718 -0.0756 -0.7615
11909SOL     OW37167   2.211   1.704   5.465 -0.1022 -0.0942 -0.3149
11909SOL    HW137168   2.227   1.672   5.554  0.0217  2.2063  0.5350
11909SOL    HW237169   2.264   1.783   5.457 -1.6685  0.8885 -1.7033
11910SOL     OW37170   7.049   6.191  11.568 -0.6812 -0.3031  0.1491
11910SOL    HW137171   7.104   6.138  11.626 -1.4412 -0.8238  0.4059
11910SOL    HW237172   7.037   6.138  11.490  0.4231  0.4383 -0.5591
11911SOL     OW37173   6.742   2.621   2.952  0.1745  0.1256  0.3442
11911SOL    HW137174   6.653   2.654   2.940  0.0558 -0.5499 -0.8604
11911SOL    HW237175   6.746   2.544   2.895  1.4562  0.0108  0.5666
11912SOL     OW37176   1.090   1.954   2.444 -0.6344  0.1794  0.3172
11912SOL    HW137177   1.147   1.879   2.429 -0.0390  0.4611  1.0610
11912SOL    HW237178   1.123   2.021   2.384 -1.4930 -0.3098 -0.7130
11913SOL     OW37179   2.875   5.564   3.664 -0.7056 -0.3129 -0.3796
11913SOL    HW137180   2.811   5.494   3.670  1.6502 -2.5765  0.0915
11913SOL    HW237181   2.849   5.614   3.586 -2.6720 -1.4415 -0.5121
11914SOL     OW37182   5.711   0.577   3.877 -0.2954  0.0783 -0.4122
11914SOL    HW137183   5.734   0.529   3.798 -1.2133 -1.3306  0.1528
11914SOL    HW237184   5.753   0.663   3.866 -2.3042  0.8031 -3.4916
11915SOL     OW37185   0.301   3.093   7.488 -0.5859  0.0248 -0.0478
11915SOL    HW137186   0.280   3.153   7.415 -0.2082 -1.9365 -1.8591
11915SOL    HW237187   0.219   3.085   7.536 -0.8929  1.2164 -0.3242
11916SOL     OW37188   5.192   1.325   8.988  0.4380  0.1382  0.1833
11916SOL    HW137189   5.229   1.307   8.901  1.0689  0.4772  0.3780
11916SOL    HW237190   5.216   1.248   9.040  0.1224 -0.0311  0.0868
11917SOL     OW37191   2.527   5.436   6.270  0.3559  0.5740 -0.0287
11917SOL    HW137192   2.568   5.487   6.201 -1.0515  0.2679 -1.1428
11917SOL    HW237193   2.476   5.501   6.320  0.5376  0.6296  0.0867
11918SOL     OW37194   1.323   6.859   8.474 -0.2345  0.1748  0.4065
11918SOL    HW137195   1.250   6.859   8.412  0.3892  0.4943 -0.3374
11918SOL    HW237196   1.281   6.876   8.559 -1.0704 -0.0548  0.0572
11919SOL     OW37197   3.772   7.439   0.972  0.1514  0.3951  0.1676
11919SOL    HW137198   3.708   7.438   0.901  1.0183 -0.3915 -0.6343
11919SOL    HW237199   3.856   7.419   0.929  0.4492 -1.8210  1.6082
11920SOL     OW37200   6.698   2.872   7.042 -0.0928  0.3832  0.4441
11920SOL    HW137201   6.675   2.898   6.953  0.9264 -0.0001  0.0533
11920SOL    HW237202   6.705   2.954   7.090  0.4746  0.6642 -0.1139
11921SOL     OW37203   4.527   2.262   5.307  0.4448 -0.5149  0.5296
11921SOL    HW137204   4.609   2.270   5.258  0.5218 -0.5855  0.6461
11921SOL    HW237205   4.458   2.269   5.240  0.4980  0.9573  0.5877
11922SOL     OW37206   5.166   4.003   6.613 -0.3568 -0.1636 -0.4012
11922SOL    HW137207   5.247   3.986   6.661  0.1930 -0.7262 -1.4961
11922SOL    HW237208   5.174   4.094   6.585 -1.1566  0.5201  1.4081
11923SOL     OW37209   2.426   6.343   4.350 -0.2467 -0.3938  0.6629
11923SOL    HW137210   2.513   6.382   4.361 -0.8773  0.9649  1.0174
11923SOL    HW237211   2.442   6.249   4.352  1.3482 -0.1894 -0.2954
11924SOL     OW37212   1.382   1.996   0.600 -1.2665  0.4438  0.3431
11924SOL    HW137213   1.379   1.924   0.663  0.7040 -0.0631 -0.0671
11924SOL    HW237214   1.349   1.959   0.519 -1.4510  0.3805  0.4460
11925SOL     OW37215   2.771   4.038   8.171  0.2843 -0.1743 -0.0881
11925SOL    HW137216   2.749   4.040   8.078 -1.5228 -0.3317  0.2939
11925SOL    HW237217   2.775   3.945   8.193 -0.1527 -0.1375  0.1636
11926SOL     OW37218   0.215   2.034   6.588 -0.5453 -0.1083 -0.0213
11926SOL    HW137219   0.239   1.962   6.646 -0.0867  0.4868  0.5525
11926SOL    HW237220   0.254   2.112   6.629  1.9432  0.0389 -2.3414
11927SOL     OW37221   7.730   4.942   2.397 -0.3384 -0.0520  0.2530
11927SOL    HW137222   7.755   4.959   2.306 -0.2096 -2.2846 -0.1799
11927SOL    HW237223   7.799   4.983   2.449  0.6969 -0.5095 -0.7309
11928SOL     OW37224   1.824   6.918   6.631 -0.0029  0.1265 -0.0213
11928SOL    HW137225   1.852   6.844   6.577 -1.8575 -1.8575  1.5722
11928SOL    HW237226   1.780   6.977   6.570 -0.2394 -1.0486 -1.0142
11929SOL     OW37227   4.295   2.263   1.171  0.4666  0.3994  0.0193
11929SOL    HW137228   4.274   2.351   1.202  0.5892 -0.2124  1.9497
11929SOL    HW237229   4.216   2.236   1.123  0.8563  1.9477 -1.5936
11930SOL     OW37230   3.882   3.629   0.756  0.1036 -0.2036 -0.3101
11930SOL    HW137231   3.970   3.636   0.793  0.3248 -0.5265 -0.7571
11930SOL    HW237232   3.896   3.584   0.672 -0.3891  0.4529 -0.7486
11931SOL     OW37233   3.514   3.984   0.316  0.3012 -0.3012  0.0045
11931SOL    HW137234   3.504   4.069   0.272  1.3704 -0.1750 -0.0021
11931SOL    HW237235   3.593   3.946   0.278 -0.9590 -1.9983 -1.1054
11932SOL     OW37236   7.268   3.809   8.171 -0.0079 -0.0900 -0.1133
11932SOL    HW137237   7.217   3.764   8.237  1.0433 -1.8622 -0.4564
11932SOL    HW237238   7.288   3.894   8.210 -2.0339  0.1305  0.5439
11933SOL     OW37239   0.417   3.082   0.830  0.0421  0.2638  0.1095
11933SOL    HW137240   0.423   3.159   0.773 -0.2519  0.2780  0.0935
11933SOL    HW237241   0.425   3.007   0.771 -1.3552  0.2604 -0.1132
11934SOL     OW37242   6.350   2.044   4.212  0.1227  0.5130 -0.2094
11934SOL    HW137243   6.399   2.044   4.129  1.5331  1.6418  0.5771
11934SOL    HW237244   6.335   1.951   4.230  1.5086  0.1494 -0.7631
11935SOL     OW37245   5.437   7.317   5.952  0.9097  0.6624 -0.3949
11935SOL    HW137246   5.497   7.331   6.025  0.9701  0.6821 -0.4482
11935SOL    HW237247   5.350   7.321   5.992  0.9414 -2.6125  0.2826
11936SOL     OW37248   1.087   5.127   6.742 -0.1751  0.0903  0.0646
11936SOL    HW137249   1.007   5.148   6.695 -0.1050 -2.7375 -1.5421
11936SOL    HW237250   1.060   5.122   6.834 -0.9336  2.8518  0.0782
11937SOL     OW37251   2.882   5.422   5.861  0.1966 -0.8790 -1.2133
11937SOL    HW137252   2.963   5.431   5.912  0.4422  0.6770 -1.8129
11937SOL    HW237253   2.899   5.471   5.780 -2.8119  3.4739  0.4482
11938SOL     OW37254   1.836   3.922   9.777  0.3896 -0.4660  0.5432
11938SOL    HW137255   1.893   3.853   9.742  0.5750 -0.6052  1.0983
11938SOL    HW237256   1.776   3.942   9.706  2.5034  1.2529 -0.8760
11939SOL     OW37257   0.010   4.210  10.402 -0.5084 -0.1891  0.1504
11939SOL    HW137258  -0.025   4.170  10.323 -0.4194 -0.6142  0.3228
11939SOL    HW237259   0.105   4.209  10.390 -0.5599  2.5503 -1.0898
11940SOL     OW37260   7.343   7.665   4.701 -0.3059 -0.1865  0.1519
11940SOL    HW137261   7.421   7.663   4.757  0.3523 -0.9066 -0.7453
11940SOL    HW237262   7.281   7.721   4.747  1.2200  1.4581  0.2935
11941SOL     OW37263   7.017   0.261   3.396 -0.6979 -0.5754  0.0435
11941SOL    HW137264   7.080   0.306   3.340 -0.6258 -0.0801  0.5216
11941SOL    HW237265   6.984   0.189   3.342  1.0656 -1.5154  0.1428
11942SOL     OW37266   1.248   5.280   5.064 -0.1661  0.0795 -0.1128
11942SOL    HW137267   1.279   5.190   5.055  0.1537 -0.1287  2.4268
11942SOL    HW237268   1.316   5.334   5.024  1.7485 -0.6096  2.0250
11943SOL     OW37269   5.307   1.353   9.558  0.2107  0.1503  0.0059
11943SOL    HW137270   5.273   1.351   9.647  1.5451 -1.1736  0.5324
11943SOL    HW237271   5.394   1.392   9.566  0.2870  0.1437 -0.7325
11944SOL     OW37272   2.487   1.098  10.581  0.1678 -0.1867 -0.1297
11944SOL    HW137273   2.477   1.174  10.639 -1.1748 -0.4569  0.0134
11944SOL    HW237274   2.411   1.043  10.599 -0.9692  0.2832 -2.9653
11945SOL     OW37275   7.974   3.888   1.886  0.1907  0.2203  0.1494
11945SOL    HW137276   8.011   3.819   1.941  0.3342  0.5909  0.5210
11945SOL    HW237277   8.041   3.956   1.885 -0.0545  0.4598 -0.0158
11946SOL     OW37278   3.396   1.195   3.294 -0.1428 -0.2609 -0.0926
11946SOL    HW137279   3.326   1.130   3.303  0.6488 -0.9960  0.9600
11946SOL    HW237280   3.465   1.164   3.352  0.6275  1.0380 -0.2836
11947SOL     OW37281   2.564   3.460   6.628 -0.3176 -0.5320  0.7732
11947SOL    HW137282   2.642   3.476   6.681 -0.1430 -0.8078  0.6037
11947SOL    HW237283   2.576   3.515   6.550 -0.8982  0.3956  1.3243
11948SOL     OW37284   7.864   5.746   9.546  0.0530  0.5240 -0.0023
11948SOL    HW137285   7.796   5.812   9.557  0.9889  1.2526  1.9013
11948SOL    HW237286   7.941   5.797   9.519  0.3815 -0.0005 -0.0576
11949SOL     OW37287   4.211   7.779   1.616 -0.0017  0.4618 -0.4541
11949SOL    HW137288   4.291   7.738   1.583  0.6441  0.1849  1.3718
11949SOL    HW237289   4.201   7.745   1.705 -1.7231  1.1126 -0.3613
11950SOL     OW37290   7.080   0.651   3.464 -0.3135 -0.0442 -0.0591
11950SOL    HW137291   7.036   0.585   3.517  3.2862 -0.1846  3.1724
11950SOL    HW237292   7.031   0.732   3.481 -0.3420 -0.4639  2.1468
11951SOL     OW37293   2.777   1.664  10.758 -0.2827  0.1711 -0.1278
11951SOL    HW137294   2.711   1.731  10.741  0.1462  0.2811 -1.4509
11951SOL    HW237295   2.850   1.711  10.796 -1.1094 -0.0203  1.8005
11952SOL     OW37296   5.999   7.169   9.282 -0.1415 -0.3066  0.3949
11952SOL    HW137297   6.018   7.168   9.376  3.5483 -0.7251 -0.2301
11952SOL    HW237298   6.027   7.256   9.253 -1.6686 -0.0161 -0.3158
11953SOL     OW37299   5.775   2.432   8.677 -0.5937  0.3688 -0.1236
11953SOL    HW137300   5.685   2.399   8.670 -0.7740  0.6447  0.8055
11953SOL    HW237301   5.772   2.519   8.637 -0.4380 -0.1346 -1.2713
11954SOL     OW37302   4.286   3.510   3.841 -0.3808  0.4383 -0.0886
11954SOL    HW137303   4.262   3.425   3.805  0.5998  0.2223 -0.2500
11954SOL    HW237304   4.359   3.539   3.787 -0.0063  0.8958  0.6535
11955SOL     OW37305   0.122   6.355   9.489  0.1723  0.1121 -0.5305
11955SOL    HW137306   0.049   6.300   9.520  1.6089 -1.9251 -0.6116
11955SOL    HW237307   0.173   6.298   9.433  0.2307  2.3929 -2.9773
11956SOL     OW37308   1.235   6.270   5.832  0.8889 -0.0233  0.2415
11956SOL    HW137309   1.255   6.187   5.874  0.6286  0.0297  0.4683
11956SOL    HW237310   1.302   6.279   5.764  0.5680 -0.6993 -0.1809
11957SOL     OW37311   4.462   4.693  11.650  0.7370 -0.0209  0.5937
11957SOL    HW137312   4.459   4.677  11.556  0.2471  0.3996  0.5326
11957SOL    HW237313   4.529   4.760  11.661 -1.6066  2.5674  0.1220
11958SOL     OW37314   2.855   0.695   7.941  0.2042 -0.0210  0.3742
11958SOL    HW137315   2.917   0.632   7.906 -1.1090 -2.0008  1.4491
11958SOL    HW237316   2.799   0.644   7.999 -0.9721  2.1367  1.2437
11959SOL     OW37317   0.833   1.933   9.910 -0.6058 -0.4462 -0.1359
11959SOL    HW137318   0.814   2.020   9.945 -1.2806 -0.7226  0.1998
11959SOL    HW237319   0.758   1.880   9.936 -1.1323 -0.6731 -2.0209
11960SOL     OW37320   4.943   4.654   4.605 -0.1741  0.1091  0.0887
11960SOL    HW137321   5.034   4.665   4.632  0.4302 -0.8475 -1.4914
11960SOL    HW237322   4.893   4.685   4.681  1.4268  1.8227  0.5352
11961SOL     OW37323   4.295   1.803   5.565 -0.2938 -0.0178  0.3464
11961SOL    HW137324   4.337   1.759   5.639  3.4710  0.4685 -1.2846
11961SOL    HW237325   4.246   1.876   5.605 -0.0493 -0.9328  2.4455
11962SOL     OW37326   7.355   6.503   0.483  0.3048 -0.1055  0.3268
11962SOL    HW137327   7.396   6.416   0.477  0.1470 -0.1525 -0.1044
11962SOL    HW237328   7.300   6.508   0.405  0.3027  0.3789  0.3616
11963SOL     OW37329   5.691   3.649   4.598 -0.2888  0.3272  0.3543
11963SOL    HW137330   5.686   3.710   4.525  1.7366 -0.7088 -0.7178
11963SOL    HW237331   5.703   3.705   4.675  0.9708  1.3383 -0.5279
11964SOL     OW37332   7.571   3.230   2.681 -0.2332 -0.0913 -0.9737
11964SOL    HW137333   7.585   3.306   2.625 -1.1123  1.0544  0.3131
11964SOL    HW237334   7.476   3.217   2.681 -0.1373 -0.8626 -0.7528
11965SOL     OW37335   5.418   2.871   1.858  0.1508  0.0176 -0.0344
11965SOL    HW137336   5.361   2.794   1.851 -1.0946  0.8571  0.3642
11965SOL    HW237337   5.387   2.930   1.790  1.3138  0.0518 -0.5544
11966SOL     OW37338   5.076   7.012   5.841 -0.3805  0.1068 -0.2239
11966SOL    HW137339   5.168   7.004   5.813 -0.4871  0.1819 -0.6070
11966SOL    HW237340   5.039   6.925   5.826 -0.1520 -0.1639  0.7531
11967SOL     OW37341   6.926   3.406   7.834  0.5388 -0.4962  0.1710
11967SOL    HW137342   6.909   3.320   7.874 -0.6927  0.4779  1.8783
11967SOL    HW237343   7.019   3.421   7.846  0.5729 -1.1632  0.7658
11968SOL     OW37344   5.402   7.838   8.814  0.0828 -0.4548  0.2346
11968SOL    HW137345   5.362   7.752   8.802 -2.3220  0.4644  0.9941
11968SOL    HW237346   5.388   7.859   8.906 -1.0360  1.4759 -0.3254
11969SOL     OW37347   5.365   7.424   9.118  0.4420 -0.3944  0.4747
11969SOL    HW137348   5.411   7.345   9.147  1.6983  0.7915  1.8599
11969SOL    HW237349   5.434   7.484   9.092 -0.3686  0.9420  1.2792
11970SOL     OW37350   5.106   2.087   0.669  0.4672  0.4636 -0.2472
11970SOL    HW137351   5.199   2.111   0.664  0.5268  0.0482 -1.4394
11970SOL    HW237352   5.073   2.102   0.581 -0.4071 -0.1642 -0.0358
11971SOL     OW37353   5.999   2.589   7.499  0.2519  0.3673 -0.3963
11971SOL    HW137354   6.040   2.530   7.562 -0.5198  0.3429  0.0944
11971SOL    HW237355   6.066   2.603   7.433  1.0853  0.4055  0.4365
11972SOL     OW37356   2.998   2.281   7.051  0.1520 -0.4727  0.3670
11972SOL    HW137357   3.021   2.239   6.968  0.0860  0.6181 -0.2263
11972SOL    HW237358   3.045   2.365   7.049 -0.1260 -0.2858  1.2777
11973SOL     OW37359   5.906   1.931   1.923  0.3706 -0.1138  0.4106
11973SOL    HW137360   5.909   1.995   1.852  0.8609 -0.0076  0.5260
11973SOL    HW237361   5.914   1.983   2.003 -1.0454 -0.1459  0.5949
11974SOL     OW37362   3.809   1.291   0.632  0.5623 -0.0828 -0.1387
11974SOL    HW137363   3.816   1.297   0.537  0.1116  0.5012 -0.1443
11974SOL    HW237364   3.880   1.346   0.665  1.7157 -1.5170 -0.1045
11975SOL     OW37365   2.953   7.455  11.641  0.5315  0.2267  0.2763
11975SOL    HW137366   3.028   7.494  11.687  0.1893  2.4649 -0.9052
11975SOL    HW237367   2.907   7.405  11.708  1.6464  0.9496  1.6402
11976SOL     OW37368   4.512   7.397   9.020 -0.4085  0.2531 -0.2116
11976SOL    HW137369   4.474   7.389   8.932 -1.0709  1.8499 -0.1134
11976SOL    HW237370   4.595   7.442   9.006 -1.1974  1.8813  0.0716
11977SOL     OW37371   7.174   5.911  11.535 -0.3401  0.2297  0.4050
11977SOL    HW137372   7.250   5.855  11.550  0.3715  1.4152  1.5323
11977SOL    HW237373   7.105   5.873  11.590 -1.0909 -1.6967 -1.7074
11978SOL     OW37374   6.125   0.871   0.262 -0.0620 -0.2550 -0.0057
11978SOL    HW137375   6.169   0.898   0.182 -0.5631  0.2322 -0.1240
11978SOL    HW237376   6.033   0.892   0.247 -0.0338  0.7719  1.0693
11979SOL     OW37377   7.604   3.265  11.838  0.0040 -0.0176 -0.1410
11979SOL    HW137378   7.603   3.247  11.932 -0.3218  0.8735  0.0343
11979SOL    HW237379   7.697   3.275  11.816  0.1031 -0.5527  0.0118
11980SOL     OW37380   4.445   5.472   5.794 -0.1323  0.6787 -0.7818
11980SOL    HW137381   4.366   5.518   5.819 -0.6113 -0.6314  0.2480
11980SOL    HW237382   4.415   5.383   5.773  1.0907  0.0379  0.0532
11981SOL     OW37383   3.169   6.219   2.063 -0.0745 -0.1193 -0.7910
11981SOL    HW137384   3.074   6.207   2.055 -0.1089  0.2091 -0.9174
11981SOL    HW237385   3.190   6.283   1.994  0.0760  0.6144 -0.0761
11982SOL     OW37386   2.949   2.541  11.215 -0.2326 -0.5159  0.7766
11982SOL    HW137387   3.024   2.482  11.219  3.0154  2.8406 -2.6108
11982SOL    HW237388   2.965   2.605  11.285 -1.0220 -0.8701  1.2873
11983SOL     OW37389   4.490   2.589   0.276  0.4085 -0.0786 -0.0029
11983SOL    HW137390   4.579   2.579   0.310 -0.6033 -0.2055  2.8248
11983SOL    HW237391   4.453   2.501   0.279 -0.2744  0.2077  0.2354
11984SOL     OW37392   4.586   3.414  11.103 -0.1998  0.3830  0.0824
11984SOL    HW137393   4.528   3.352  11.058 -0.6311  0.3168  0.7063
11984SOL    HW237394   4.533   3.493  11.113  0.1865  0.6934 -0.2868
11985SOL     OW37395   7.935   0.466   5.451 -0.5830 -0.0634 -0.3016
11985SOL    HW137396   7.876   0.422   5.513 -1.9750  2.6786  0.5351
11985SOL    HW237397   7.996   0.514   5.507 -1.1896  1.6042 -0.9748
11986SOL     OW37398   3.005   4.297   6.015  0.2390  0.1343  0.1033
11986SOL    HW137399   3.097   4.287   5.994  0.1903  2.2917 -1.3763
11986SOL    HW237400   2.962   4.310   5.931 -1.3112  0.0535  0.8399
11987SOL     OW37401   6.587   7.979   4.468 -0.5034 -0.0010  0.1251
11987SOL    HW137402   6.643   7.929   4.528 -1.8207 -0.1740  1.2641
11987SOL    HW237403   6.578   7.923   4.391 -0.0459 -0.4744  0.4119
11988SOL     OW37404   2.441   0.862   6.962  0.0586 -0.6161 -0.4967
11988SOL    HW137405   2.426   0.945   6.917 -1.3870 -0.5798  0.0022
11988SOL    HW237406   2.471   0.887   7.049  0.5082 -0.6397 -0.6429
11989SOL     OW37407   3.826   0.479   6.065  0.2824  0.3616 -0.5123
11989SOL    HW137408   3.788   0.427   5.993  0.2376 -1.8212  0.9849
11989SOL    HW237409   3.751   0.527   6.101  0.2934  1.4307 -1.8311
11990SOL     OW37410   4.766   5.814   4.247  0.1851  0.4156  0.3601
11990SOL    HW137411   4.811   5.852   4.323 -0.2321 -1.8727  1.8525
11990SOL    HW237412   4.677   5.849   4.251 -0.1780 -0.5964  1.6713
11991SOL     OW37413   2.801   0.495   2.217  0.0958  0.0446 -0.7877
11991SOL    HW137414   2.744   0.438   2.166 -1.1652 -0.3316  0.9416
11991SOL    HW237415   2.743   0.537   2.280  1.2307  2.1379 -1.0255
11992SOL     OW37416   4.830   1.012   0.259  0.2396  1.2309 -0.0792
11992SOL    HW137417   4.882   1.091   0.274  1.6555  0.5354 -1.0947
11992SOL    HW237418   4.894   0.945   0.237 -0.8353 -0.4982  1.7694
11993SOL     OW37419   0.037   3.850   4.438 -0.5537 -0.5036 -0.3848
11993SOL    HW137420   0.120   3.886   4.406 -0.4325 -1.0977 -0.7431
11993SOL    HW237421   0.057   3.817   4.526 -0.6451  0.2033 -0.0858
11994SOL     OW37422   0.930   7.843   9.931 -0.4997 -0.4792 -0.6356
11994SOL    HW137423   1.012   7.838   9.883  0.4820 -0.9824  1.0049
11994SOL    HW237424   0.897   7.753   9.934 -0.5557 -0.4518 -0.3729
11995SOL     OW37425   0.573   1.553   5.926 -0.7455 -0.0599 -0.4036
11995SOL    HW137426   0.492   1.573   5.880 -1.0016 -0.7021 -0.2500
11995SOL    HW237427   0.627   1.506   5.863 -1.5304 -1.8992  0.2454
11996SOL     OW37428   1.045   6.198   1.087  0.0898 -0.5608 -0.2290
11996SOL    HW137429   1.091   6.120   1.115  1.5895  0.2757 -0.2814
11996SOL    HW237430   1.079   6.217   1.000 -1.7825 -0.9860 -1.1224
11997SOL     OW37431   3.041   5.187   4.365  0.2360 -0.0889  0.2876
11997SOL    HW137432   2.953   5.212   4.392  1.3112  1.8080  2.2886
11997SOL    HW237433   3.053   5.099   4.402 -1.0080 -0.6757 -0.6103
11998SOL     OW37434   1.020   7.205   2.090  1.0582 -0.5387  0.1301
11998SOL    HW137435   0.954   7.207   2.020  1.3134  0.8223 -0.1098
11998SOL    HW237436   1.056   7.116   2.087  0.6463 -0.6854 -1.0847
11999SOL     OW37437   5.575   4.152  11.619  0.2822 -0.1419  0.1099
11999SOL    HW137438   5.500   4.211  11.610 -0.4045 -1.0963 -0.6907
11999SOL    HW237439   5.651   4.210  11.624 -0.4221  0.8227 -0.0508
12000SOL     OW37440   7.493   6.022   4.319  0.0281 -0.1848  0.1196
12000SOL    HW137441   7.474   6.043   4.227  0.7710  0.7628  0.1720
12000SOL    HW237442   7.407   6.012   4.359 -0.4204  2.2855 -0.0451
12001SOL     OW37443   2.362   6.744   1.455  0.0114 -0.0350  0.4053
12001SOL    HW137444   2.304   6.770   1.384  1.8758 -1.3856 -1.7298
12001SOL    HW237445   2.311   6.683   1.508 -1.2962  0.7459  0.0878
12002SOL     OW37446   2.904   5.820   8.559 -0.2360  0.1046 -0.1726
12002SOL    HW137447   2.915   5.764   8.636  1.3452 -0.8820 -1.0579
12002SOL    HW237448   2.832   5.780   8.509 -0.4574  0.0547  0.1838
12003SOL     OW37449   6.538   0.602   8.990  0.2178 -0.1096 -0.0096
12003SOL    HW137450   6.462   0.660   8.987 -0.5870 -1.0448  1.2259
12003SOL    HW237451   6.526   0.542   8.917  1.7951  2.0572 -2.2142
12004SOL     OW37452   2.103   4.256   3.293  0.4046  0.4450  0.1968
12004SOL    HW137453   2.057   4.182   3.254 -1.7469  1.1016  1.3887
12004SOL    HW237454   2.090   4.328   3.231  2.5297 -0.0825 -0.9826
12005SOL     OW37455   3.724   1.677   5.210  0.3932  1.2773 -0.5297
12005SOL    HW137456   3.636   1.694   5.244  0.2438 -0.9852  0.3904
12005SOL    HW237457   3.783   1.713   5.276  0.0990 -0.2252  0.6091
12006SOL     OW37458   4.796   2.435   5.989  0.0786  0.2537 -0.5620
12006SOL    HW137459   4.753   2.517   5.965  1.3493  1.0138 -0.3438
12006SOL    HW237460   4.765   2.416   6.078 -0.2055  0.5041 -0.6065
12007SOL     OW37461   3.911   0.943   3.042  0.0360 -0.1812 -0.1456
12007SOL    HW137462   3.982   0.915   2.985  0.2373  0.2103 -0.0898
12007SOL    HW237463   3.946   1.018   3.089  0.3461 -1.3012  1.4878
12008SOL     OW37464   0.940   5.714   3.127 -0.3294 -0.0763 -0.1035
12008SOL    HW137465   0.846   5.716   3.143 -0.4106 -0.7572 -0.4501
12008SOL    HW237466   0.979   5.743   3.209 -0.8033 -1.3839  0.6249
12009SOL     OW37467   1.627   6.741  12.396 -0.6390 -0.1039 -0.3315
12009SOL    HW137468   1.546   6.788  12.376  0.4195  1.5493 -0.9406
12009SOL    HW237469   1.689   6.772  12.330  0.6379 -0.9761  0.4211
12010SOL     OW37470   5.672   7.694   0.381  0.1949  0.3174 -0.1053
12010SOL    HW137471   5.660   7.678   0.287  1.3762 -0.8131 -0.0909
12010SOL    HW237472   5.715   7.779   0.385  0.0068  0.4396 -0.5856
12011SOL     OW37473   2.857   7.567   8.754 -0.0510  0.1516  0.8927
12011SOL    HW137474   2.834   7.499   8.690  0.8487  1.3447 -0.7646
12011SOL    HW237475   2.892   7.518   8.829 -1.0237 -1.2831  0.4544
12012SOL     OW37476   0.550   4.197   2.792 -0.0913 -0.2052  0.3318
12012SOL    HW137477   0.567   4.292   2.790 -2.2260  0.2160 -0.7766
12012SOL    HW237478   0.594   4.163   2.714  0.5102 -0.1205  0.6238
12013SOL     OW37479   3.124   0.903   0.886 -0.0701  0.1040 -0.5680
12013SOL    HW137480   3.169   0.982   0.915  0.5430 -0.5641  0.3693
12013SOL    HW237481   3.144   0.897   0.792  2.3415 -0.4874 -0.0769
12014SOL     OW37482   0.889   3.199  10.230  0.0224  0.2491 -0.1709
12014SOL    HW137483   0.827   3.129  10.212  0.9384 -0.7288  0.3631
12014SOL    HW237484   0.844   3.256  10.292 -0.3753 -0.4147  0.1595
12015SOL     OW37485   2.326   0.829  10.382 -0.5383 -0.0435  0.2413
12015SOL    HW137486   2.285   0.916  10.388 -1.0549 -0.2903  0.3992
12015SOL    HW237487   2.418   0.847  10.367 -0.4825  0.5469  1.1761
12016SOL     OW37488   0.062   5.750   8.814 -0.2784 -0.4048 -0.2612
12016SOL    HW137489   0.032   5.820   8.756  1.2874  0.4092 -0.1404
12016SOL    HW237490   0.122   5.698   8.760 -0.3050 -0.7846  0.0712
12017SOL     OW37491   3.443   1.174   7.086 -0.0137 -0.4095  0.1511
12017SOL    HW137492   3.538   1.184   7.078 -0.1227  1.3091  0.5894
12017SOL    HW237493   3.431   1.110   7.156  0.8089 -0.5787  0.1489
12018SOL     OW37494   1.868   3.745   8.126  0.3539 -0.4354  0.0139
12018SOL    HW137495   1.815   3.811   8.171 -0.3637 -0.4596 -0.7872
12018SOL    HW237496   1.925   3.710   8.195 -0.2981 -0.0383  0.7693
12019SOL     OW37497   5.436   2.697  11.463  0.7866  0.1158  0.3556
12019SOL    HW137498   5.342   2.686  11.447  0.7237 -1.5540  1.5284
12019SOL    HW237499   5.443   2.694  11.559  2.0611 -0.1456  0.2626
12020SOL     OW37500   0.816   6.346  12.297  0.3607 -0.2110  0.1328
12020SOL    HW137501   0.817   6.429  12.345 -0.8041  0.6156 -1.1744
12020SOL    HW237502   0.858   6.367  12.213 -0.3238 -0.8360 -0.3738
12021SOL     OW37503   3.841   3.074  10.282  0.0595  0.1961  0.4545
12021SOL    HW137504   3.783   3.005  10.316 -0.6188  0.7935  0.5369
12021SOL    HW237505   3.824   3.149  10.339 -0.0987  0.7958 -0.3678
12022SOL     OW37506   7.661   0.781   4.031 -0.5042  0.1888  0.1146
12022SOL    HW137507   7.624   0.698   4.000  0.0428 -0.2001  0.4865
12022SOL    HW237508   7.725   0.805   3.964 -0.6094  0.2721  0.0440
12023SOL     OW37509   1.499   5.405   3.755  0.3311 -0.2547  0.2317
12023SOL    HW137510   1.428   5.463   3.731 -0.9651 -0.2651  3.5594
12023SOL    HW237511   1.491   5.331   3.694 -2.0948  0.0365  0.1016
12024SOL     OW37512   4.210   2.342   5.963  0.2354  0.3232  0.0769
12024SOL    HW137513   4.262   2.316   5.887  1.1670  0.0989  0.7709
12024SOL    HW237514   4.194   2.435   5.950 -0.1397  0.1684 -0.6837
12025SOL     OW37515   6.514   0.076  10.661 -0.0452 -0.9087 -0.1176
12025SOL    HW137516   6.606   0.094  10.643 -0.4260  1.1931 -0.1651
12025SOL    HW237517   6.512  -0.017  10.685  2.0346 -1.0551 -0.3521
12026SOL     OW37518   6.242   0.164   7.523  0.4710 -0.6833  0.2152
12026SOL    HW137519   6.337   0.156   7.519  0.3245 -2.7396 -1.7367
12026SOL    HW237520   6.212   0.077   7.550 -0.8658 -0.6008 -0.8739
12027SOL     OW37521   5.321   2.550   3.083  0.6374 -0.5883  0.0045
12027SOL    HW137522   5.257   2.558   3.013  1.0749  0.3841 -0.3022
12027SOL    HW237523   5.405   2.572   3.042  0.9578 -0.4344  0.7210
12028SOL     OW37524   6.384   3.376  11.781  0.3374  0.0989 -0.8451
12028SOL    HW137525   6.338   3.458  11.762  1.8254  1.9550  2.4427
12028SOL    HW237526   6.327   3.331  11.844  0.4910 -0.3235 -1.0100
12029SOL     OW37527   1.771   0.542   5.447  0.2705  0.2069 -0.6890
12029SOL    HW137528   1.758   0.475   5.515 -0.3477 -0.4996 -1.4794
12029SOL    HW237529   1.864   0.538   5.427  0.3833  0.1373 -0.1707
12030SOL     OW37530   4.546   3.056  10.775 -0.2068  0.2267 -0.0607
12030SOL    HW137531   4.599   3.081  10.699 -0.2770  0.9305  0.1150
12030SOL    HW237532   4.556   2.961  10.780  0.1216  0.2165 -0.7101
12031SOL     OW37533   3.842   3.415   6.834  0.6229  0.2268  0.1276
12031SOL    HW137534   3.780   3.352   6.799 -0.2968  0.7212  0.8212
12031SOL    HW237535   3.921   3.364   6.853  0.7090 -0.2779 -1.4365
12032SOL     OW37536   4.536   0.171   4.352  0.2508 -0.0218  0.4496
12032SOL    HW137537   4.586   0.166   4.271 -0.4520 -0.8178  0.0424
12032SOL    HW237538   4.601   0.186   4.421  1.1669 -1.9672  0.0587
12033SOL     OW37539   1.618   6.961  11.123  0.1617  0.1961  0.2373
12033SOL    HW137540   1.576   7.041  11.155  0.5521  1.1553 -1.5403
12033SOL    HW237541   1.545   6.904  11.100 -0.2188  1.2478 -1.3481
12034SOL     OW37542   0.395   2.570  11.746  0.0629 -0.2954  0.4468
12034SOL    HW137543   0.356   2.528  11.823 -2.0370  0.5057 -0.1168
12034SOL    HW237544   0.346   2.651  11.736  1.1669  0.2316 -1.0098
12035SOL     OW37545   2.212   1.448   6.493  0.5600  1.6218  0.6332
12035SOL    HW137546   2.298   1.411   6.515  0.1290  0.5000  0.4873
12035SOL    HW237547   2.221   1.542   6.513  1.6270  1.4234  1.1909
12036SOL     OW37548   3.771   5.307   9.900 -0.5500  0.3012 -0.2329
12036SOL    HW137549   3.758   5.217   9.932 -0.4020 -0.0603 -1.1446
12036SOL    HW237550   3.857   5.305   9.859 -0.5298  0.8740 -0.2166
12037SOL     OW37551   4.814   6.732   2.592  0.1483  0.4480  0.3542
12037SOL    HW137552   4.873   6.798   2.627 -0.2117  0.8490  0.2151
12037SOL    HW237553   4.806   6.754   2.499  2.3284 -1.5175 -0.4067
12038SOL     OW37554   3.887   6.128  10.741 -0.2192  0.1983 -0.0094
12038SOL    HW137555   3.973   6.088  10.727 -0.8225 -1.0101 -0.3623
12038SOL    HW237556   3.825   6.057  10.727 -1.3052  1.1531 -0.1599
12039SOL     OW37557   0.146   6.358   1.944 -0.7098 -0.0688  0.3918
12039SOL    HW137558   0.081   6.290   1.926 -0.6347 -0.0058 -0.1306
12039SOL    HW237559   0.098   6.425   1.993 -1.0788  0.0499 -0.1300
12040SOL     OW37560   1.795   2.086   9.770 -0.1700  0.3936 -0.3455
12040SOL    HW137561   1.869   2.093   9.830  0.2967 -0.9678 -0.7346
12040SOL    HW237562   1.806   2.160   9.709  0.6576  0.4085 -0.1825
12041SOL     OW37563   6.618   2.032   8.876 -0.4351  0.0621  0.3341
12041SOL    HW137564   6.621   2.095   8.948  0.7657  0.5047 -0.0762
12041SOL    HW237565   6.709   2.006   8.864 -0.4920  0.6058 -1.5518
12042SOL     OW37566   0.546   4.277   2.233 -0.2031 -0.3652 -0.3107
12042SOL    HW137567   0.566   4.184   2.226 -1.5081 -0.6525 -0.5633
12042SOL    HW237568   0.626   4.317   2.267  0.3947 -1.5638 -0.2661
12043SOL     OW37569   3.605   5.829  11.000  0.3226  0.6025  0.2704
12043SOL    HW137570   3.649   5.846  11.083  1.1847  1.1594 -0.2835
12043SOL    HW237571   3.520   5.872  11.009  0.6114  1.1004  0.6806
12044SOL     OW37572   6.461   7.498   6.551  0.2361 -0.2655  0.1819
12044SOL    HW137573   6.444   7.440   6.626 -0.9068 -0.9448 -0.5685
12044SOL    HW237574   6.527   7.451   6.499 -0.3385 -0.6824 -0.1802
12045SOL     OW37575   4.145   6.544   0.116  0.3212  0.2806 -0.4260
12045SOL    HW137576   4.187   6.513   0.035  0.0047 -0.4914 -0.3024
12045SOL    HW237577   4.064   6.493   0.122  0.3505  0.3228  0.3829
12046SOL     OW37578   1.058   6.093  12.018  0.1129 -0.1588 -0.7877
12046SOL    HW137579   1.117   6.021  12.035  1.2866  0.9437 -0.0049
12046SOL    HW237580   1.049   6.095  11.923  1.7696 -0.0305 -0.9706
12047SOL     OW37581   4.305   1.796   7.564  0.2904  0.4152 -0.1903
12047SOL    HW137582   4.332   1.885   7.588 -1.5525  0.9063  0.2143
12047SOL    HW237583   4.356   1.776   7.485  0.2904  2.0781 -0.6452
12048SOL     OW37584   1.162   0.785   8.566 -0.5641 -0.5238  0.1184
12048SOL    HW137585   1.253   0.755   8.564 -0.1552  0.6933 -0.0577
12048SOL    HW237586   1.153   0.842   8.489 -1.7027 -1.2364 -0.3056
12049SOL     OW37587   5.478   2.125   1.226 -0.2369 -0.0402  0.0307
12049SOL    HW137588   5.552   2.110   1.168 -1.7619 -0.0224 -2.0389
12049SOL    HW237589   5.499   2.207   1.272  0.4144  0.7610 -1.6071
12050SOL     OW37590   1.794   5.775   0.801  0.0044 -0.3152  0.3063
12050SOL    HW137591   1.861   5.711   0.779  1.0432  0.6787  0.4753
12050SOL    HW237592   1.745   5.735   0.873  0.2300 -1.1837 -0.0213
12051SOL     OW37593   7.292   5.952   4.477  0.1802  0.4196  0.1934
12051SOL    HW137594   7.289   6.018   4.546  3.0373  1.2926 -0.3921
12051SOL    HW237595   7.323   5.873   4.520 -0.4075  0.2549  0.3311
12052SOL     OW37596   0.570   5.285   6.900 -0.3410 -0.1030  0.4104
12052SOL    HW137597   0.562   5.323   6.987 -2.9750  0.3771  0.0438
12052SOL    HW237598   0.480   5.283   6.866  0.4000 -1.7047 -1.6994
12053SOL     OW37599   0.257   4.227   6.867 -0.4356 -0.0817 -0.4353
12053SOL    HW137600   0.202   4.284   6.922 -1.3598 -0.9157 -0.4598
12053SOL    HW237601   0.240   4.257   6.777 -1.3142 -0.6873 -0.4905
12054SOL     OW37602   7.825   4.202   5.559  0.2888  0.0285 -0.1387
12054SOL    HW137603   7.861   4.114   5.568 -0.1945 -0.0946  0.6180
12054SOL    HW237604   7.841   4.225   5.467  1.2084 -0.4935 -0.1246
12055SOL     OW37605   3.778   1.394   9.670 -0.5055 -0.5820 -0.0504
12055SOL    HW137606   3.836   1.340   9.617  0.4420  0.6977 -0.3536
12055SOL    HW237607   3.817   1.393   9.758  1.2623  1.9457 -0.6902
12056SOL     OW37608   5.145   3.339  11.381  0.0128 -0.6474 -0.6452
12056SOL    HW137609   5.181   3.388  11.454 -0.7083 -1.1485  0.0622
12056SOL    HW237610   5.110   3.406  11.322 -0.4470 -0.2822  0.0314
12057SOL     OW37611   0.144   4.956  11.145 -0.3278 -0.1258 -0.5377
12057SOL    HW137612   0.227   4.986  11.108 -0.3504  0.8053  0.1358
12057SOL    HW237613   0.103   5.036  11.179 -2.4924 -0.1716 -2.7307
12058SOL     OW37614   4.713   2.644   9.634  0.4714  0.5935  0.2155
12058SOL    HW137615   4.721   2.600   9.550 -0.0653  0.1029  0.4189
12058SOL    HW237616   4.700   2.574   9.697  2.0362  0.8553  0.8780
12059SOL     OW37617   2.034   7.766   2.764 -0.1246  0.1402  0.1507
12059SOL    HW137618   1.988   7.733   2.686 -1.2061  0.7697  0.4862
12059SOL    HW237619   1.971   7.753   2.835 -0.0270  1.5620  0.5273
12060SOL     OW37620   1.841   2.854  11.886  0.1013  0.2529 -0.0040
12060SOL    HW137621   1.899   2.922  11.854  1.0251  0.0992  1.2771
12060SOL    HW237622   1.758   2.899  11.902  0.3813  0.8435 -0.1957
12061SOL     OW37623   4.718   4.773   1.131  0.8562  0.3983  0.3910
12061SOL    HW137624   4.684   4.693   1.170  1.4071 -0.1146 -0.1528
12061SOL    HW237625   4.644   4.812   1.085  0.7216 -0.0898  0.1991
12062SOL     OW37626   2.953   5.665   9.843 -0.0582  0.0591 -0.3630
12062SOL    HW137627   3.015   5.604   9.802 -0.5687  0.7906 -2.3466
12062SOL    HW237628   2.892   5.609   9.890  1.3422 -0.7418  0.5775
12063SOL     OW37629   1.410   2.507   4.532  0.1709  0.7337 -0.2018
12063SOL    HW137630   1.361   2.519   4.614 -2.6567 -0.7488 -1.5186
12063SOL    HW237631   1.435   2.415   4.532 -1.4439  0.2327 -1.7049
12064SOL     OW37632   5.307   1.755   8.497  0.2868  0.2270 -0.1719
12064SOL    HW137633   5.340   1.769   8.586 -2.2358 -4.1439  1.7914
12064SOL    HW237634   5.227   1.809   8.492  0.1389  0.0753  0.4649
12065SOL     OW37635   4.009   0.653   5.944  0.3242  0.0982  0.0572
12065SOL    HW137636   3.949   0.601   5.997 -0.0674 -0.8415 -1.2389
12065SOL    HW237637   4.039   0.723   6.002 -3.7912  2.0436  0.1825
12066SOL     OW37638   6.405   4.646   1.292 -0.6339 -0.3116  0.0229
12066SOL    HW137639   6.321   4.604   1.310  0.0077 -1.1773  1.0933
12066SOL    HW237640   6.415   4.711   1.361 -0.4730 -0.1203 -0.1767
12067SOL     OW37641   6.561   1.639   1.106 -0.1316 -0.5600 -0.4661
12067SOL    HW137642   6.633   1.581   1.081  0.3602 -0.6248  1.0051
12067SOL    HW237643   6.499   1.582   1.151 -1.2816 -0.5598 -1.9724
12068SOL     OW37644   1.598   5.979   0.621 -0.0038  0.4002 -0.0274
12068SOL    HW137645   1.576   6.018   0.706  0.0458  0.3501  0.0089
12068SOL    HW237646   1.620   5.889   0.642 -1.0419  0.0879 -0.2326
12069SOL     OW37647   3.345   5.542   2.459  0.0704  0.3469 -0.3151
12069SOL    HW137648   3.319   5.539   2.551 -0.4258 -1.3253 -0.4796
12069SOL    HW237649   3.407   5.470   2.449  1.8586  1.8759 -0.8237
12070SOL     OW37650   0.475   2.584   4.692  0.4024 -0.3679  0.4881
12070SOL    HW137651   0.423   2.512   4.726  3.7453 -2.0934  2.4712
12070SOL    HW237652   0.480   2.646   4.764 -0.1661  0.5688 -0.2524
12071SOL     OW37653   0.244   6.562   3.422 -0.1718 -0.7257 -0.1651
12071SOL    HW137654   0.305   6.627   3.386 -0.0051 -0.3984  0.6862
12071SOL    HW237655   0.225   6.504   3.348  1.2582 -0.9056 -0.4200
12072SOL     OW37656   0.243   4.668   0.972 -0.4979  0.8771  0.3508
12072SOL    HW137657   0.321   4.717   0.995  0.0242  0.7260 -1.0036
12072SOL    HW237658   0.170   4.720   1.007  0.2330  0.1088  3.2557
12073SOL     OW37659   4.080   2.681   3.576 -0.5466  0.4087 -0.1121
12073SOL    HW137660   4.023   2.604   3.580 -1.5677  1.0903 -1.0319
12073SOL    HW237661   4.106   2.696   3.667 -0.0588 -1.1976  0.0476
12074SOL     OW37662   3.921   4.285   1.723 -0.3807 -0.1899  0.0448
12074SOL    HW137663   3.859   4.345   1.681 -1.3111 -1.5049 -0.5224
12074SOL    HW237664   3.910   4.301   1.816  1.2067  2.2746 -0.0887
12075SOL     OW37665   3.762   0.292   7.713 -0.0014 -0.1077  0.1797
12075SOL    HW137666   3.685   0.236   7.704 -0.6520  0.7697  0.1127
12075SOL    HW237667   3.823   0.259   7.647 -1.1986  0.5470 -1.3467
12076SOL     OW37668   1.284   3.224   5.936  1.3117  0.0016 -0.5796
12076SOL    HW137669   1.259   3.168   5.862  2.0426 -0.8011 -0.2486
12076SOL    HW237670   1.263   3.171   6.013  2.7385 -0.1695 -0.2735
12077SOL     OW37671   2.149   0.801   1.235  0.3570  0.3707 -0.3687
12077SOL    HW137672   2.210   0.772   1.303  3.7800 -1.1280 -3.7135
12077SOL    HW237673   2.069   0.751   1.251  1.7537 -1.4838  1.3589
12078SOL     OW37674   2.298   0.408   3.572 -0.1462  0.2020  0.0733
12078SOL    HW137675   2.213   0.381   3.606  0.4940 -1.3678  0.5273
12078SOL    HW237676   2.360   0.349   3.615  1.1658  1.2425 -0.3263
12079SOL     OW37677   5.885   6.557   7.098  0.1968 -0.0548  0.4570
12079SOL    HW137678   5.958   6.502   7.125 -1.0952 -0.5906  3.3522
12079SOL    HW237679   5.906   6.644   7.133  0.5960  0.4393 -0.9653
12080SOL     OW37680   3.543   0.703   1.559  0.7521  0.7510  0.7445
12080SOL    HW137681   3.543   0.789   1.516 -0.1124  1.1848  1.5878
12080SOL    HW237682   3.613   0.655   1.515  1.1043  1.8088  0.1055
12081SOL     OW37683   5.012   2.197   8.018 -0.5278  0.7073  0.2863
12081SOL    HW137684   5.096   2.240   8.030 -0.9153  1.7195 -0.5372
12081SOL    HW237685   4.954   2.240   8.080 -0.9420  1.4791 -0.6121
12082SOL     OW37686   7.232   4.614   4.375  0.3423 -0.1900  0.6113
12082SOL    HW137687   7.162   4.581   4.431 -0.9670  1.2767 -0.0930
12082SOL    HW237688   7.200   4.600   4.286  0.9249  0.5471  0.2792
12083SOL     OW37689   7.828   6.373   1.468 -0.1439  0.1004 -0.4435
12083SOL    HW137690   7.863   6.383   1.380 -0.4400  2.3737 -0.3701
12083SOL    HW237691   7.883   6.306   1.509  0.6038 -0.2950 -2.0339
12084SOL     OW37692   2.255   5.756   6.759  1.0605  0.8486  0.0099
12084SOL    HW137693   2.271   5.662   6.766  1.8839  0.9639 -0.2345
12084SOL    HW237694   2.196   5.775   6.832  2.7823  0.5526  1.5737
12085SOL     OW37695   2.133   7.467   1.752 -0.1682  0.2887 -0.4932
12085SOL    HW137696   2.046   7.429   1.763  0.1244 -0.5084 -0.8304
12085SOL    HW237697   2.118   7.552   1.712 -0.8774  0.7592  0.7213
12086SOL     OW37698   4.070   5.220  11.924 -0.2931  0.1786  0.1193
12086SOL    HW137699   4.155   5.179  11.937 -1.2227 -1.6637  0.7460
12086SOL    HW237700   4.033   5.227  12.012  0.3016  3.6704  0.2523
12087SOL     OW37701   3.906   6.406   5.414 -0.0577 -0.0918  0.2996
12087SOL    HW137702   3.901   6.454   5.332 -1.6233 -0.8508 -0.0908
12087SOL    HW237703   3.974   6.450   5.464  0.3845  0.8558 -1.0974
12088SOL     OW37704   2.233   1.761   9.652  0.3162 -0.2098  0.1572
12088SOL    HW137705   2.163   1.809   9.609 -0.0142 -0.8896 -0.0717
12088SOL    HW237706   2.249   1.685   9.595  0.8287 -0.3732  0.5106
12089SOL     OW37707   6.079   4.179  12.081 -0.3166  0.1664 -0.1255
12089SOL    HW137708   6.092   4.116  12.010 -0.3475  0.0782 -0.0535
12089SOL    HW237709   6.025   4.132  12.145 -1.0364  0.5380 -0.4449
12090SOL     OW37710   7.455   3.484   8.577 -0.4860  0.2203  0.3564
12090SOL    HW137711   7.516   3.505   8.506 -2.8294 -2.2858 -2.7199
12090SOL    HW237712   7.505   3.430   8.637  0.9670  0.3444 -0.6837
12091SOL     OW37713   6.354   4.168   1.427  0.1793  0.1507 -0.3244
12091SOL    HW137714   6.319   4.181   1.339  1.6389  2.0245 -0.7004
12091SOL    HW237715   6.368   4.257   1.460  0.7334 -0.5245  1.3658
12092SOL     OW37716   1.899   1.972  10.186 -0.0266  0.3601 -0.1871
12092SOL    HW137717   1.992   1.994  10.198  0.0439  0.4118 -0.7761
12092SOL    HW237718   1.871   1.939  10.271  0.7567 -0.4868 -0.2459
12093SOL     OW37719   1.730   5.086   9.463  0.0143  0.1445 -0.3795
12093SOL    HW137720   1.762   5.165   9.419 -0.1982  0.2054 -0.4246
12093SOL    HW237721   1.733   5.018   9.395  1.4374 -0.2096 -0.0048
12094SOL     OW37722   5.837   7.824   1.596 -0.0250 -0.3800 -0.1290
12094SOL    HW137723   5.894   7.872   1.536 -1.4874 -0.1879 -1.4303
12094SOL    HW237724   5.872   7.845   1.683  0.5757  1.4611 -0.7527
12095SOL     OW37725   0.622   2.218   5.997 -0.1015  0.4171  0.5843
12095SOL    HW137726   0.547   2.158   5.997  1.3061 -1.4158  0.0779
12095SOL    HW237727   0.633   2.243   5.906 -0.4313  1.1534  0.7388
12096SOL     OW37728   1.519   2.253  11.261  0.6235  0.6550  0.0641
12096SOL    HW137729   1.546   2.341  11.285  0.4339  0.7456 -0.0619
12096SOL    HW237730   1.540   2.200  11.339  0.0552  0.9394  0.4198
12097SOL     OW37731   4.954   2.210   7.743  0.3089 -0.0894 -0.4858
12097SOL    HW137732   4.860   2.228   7.745  0.3805  0.1796  0.8200
12097SOL    HW237733   4.982   2.216   7.834  1.4828 -0.7860 -0.7863
12098SOL     OW37734   7.470   6.231   2.955 -0.0559  0.0649  0.0909
12098SOL    HW137735   7.379   6.248   2.930 -0.3156 -0.7228  0.4575
12098SOL    HW237736   7.522   6.268   2.884 -0.5509  2.6746  0.9935
12099SOL     OW37737   5.095   7.898   1.037  0.4440  0.1373 -0.0672
12099SOL    HW137738   5.111   7.854   0.953  0.9856  0.3187 -0.0639
12099SOL    HW237739   5.128   7.987   1.023  0.6782  0.1248  0.3831
12100SOL     OW37740   3.986   5.881  10.587 -0.4353  0.5187  0.3595
12100SOL    HW137741   4.049   5.950  10.607 -1.6211  1.6423  0.3494
12100SOL    HW237742   3.996   5.818  10.658 -1.1156  1.9867  1.8160
12101SOL     OW37743   1.975   4.899   9.540 -0.2852 -0.1621 -0.2362
12101SOL    HW137744   1.995   4.991   9.523 -1.7264  0.2144 -0.0403
12101SOL    HW237745   2.039   4.872   9.606  0.2528  0.6505 -0.4116
12102SOL     OW37746   1.166   2.496   9.290 -0.5579  0.1671  0.0114
12102SOL    HW137747   1.211   2.412   9.283  0.2786  0.5879  0.1921
12102SOL    HW237748   1.145   2.504   9.383 -1.9631 -0.4911 -0.2121
12103SOL     OW37749   1.198   3.358   2.263 -0.0414 -0.1655 -0.0154
12103SOL    HW137750   1.164   3.304   2.334  0.4294 -0.4998 -0.0388
12103SOL    HW237751   1.262   3.302   2.219  1.7681  0.9540  1.0407
12104SOL     OW37752   3.479   5.644   8.236 -0.4333 -0.1289  0.1377
12104SOL    HW137753   3.494   5.725   8.286 -0.1274  0.4183 -0.8125
12104SOL    HW237754   3.400   5.607   8.274  0.5056 -0.4178  1.8938
12105SOL     OW37755   6.133   3.847   6.669 -0.0328  0.1049  0.6853
12105SOL    HW137756   6.065   3.914   6.677 -0.6307 -0.2524 -0.8973
12105SOL    HW237757   6.124   3.815   6.579  2.0171 -0.1988  0.5433
12106SOL     OW37758   0.270   1.117   1.807  0.5000  0.7739  0.1293
12106SOL    HW137759   0.357   1.086   1.784 -0.0570 -2.1623  1.4801
12106SOL    HW237760   0.213   1.080   1.740 -0.1358 -0.8087  1.4916
12107SOL     OW37761   0.986   3.761   1.404  0.0008 -0.9477  0.4976
12107SOL    HW137762   0.939   3.825   1.351  0.6145 -1.3644 -0.5769
12107SOL    HW237763   0.917   3.719   1.457 -0.2982  1.1510  1.8749
12108SOL     OW37764   5.327   3.799   8.902 -0.5842  0.0409 -0.1295
12108SOL    HW137765   5.367   3.884   8.922 -1.9015  0.5143  0.5978
12108SOL    HW237766   5.248   3.821   8.852  0.6250 -0.9374 -2.6545
12109SOL     OW37767   7.278   5.930   3.077  0.4828 -0.0097 -0.6134
12109SOL    HW137768   7.284   5.946   2.983  1.0595  0.1944 -0.5467
12109SOL    HW237769   7.254   6.015   3.114  1.7439  0.2925 -0.4371
12110SOL     OW37770   3.558   5.490   9.959 -0.2257  0.0070 -0.2827
12110SOL    HW137771   3.580   5.495  10.052  1.3897  0.3601 -0.6505
12110SOL    HW237772   3.625   5.432   9.922 -1.8797 -1.5771 -0.9588
12111SOL     OW37773   1.122   1.774   0.115 -0.1932 -0.0563  0.2159
12111SOL    HW137774   1.217   1.771   0.102 -0.2514  0.9938 -0.5836
12111SOL    HW237775   1.086   1.741   0.032 -0.5267  0.0083  0.3356
12112SOL     OW37776   5.163   1.798   0.440 -0.0268 -0.3433  0.2715
12112SOL    HW137777   5.192   1.708   0.459 -0.6597 -0.6943 -0.3594
12112SOL    HW237778   5.111   1.789   0.360  1.6116  0.8915 -0.9977
12113SOL     OW37779   1.080   6.003   5.013  0.3523 -0.4437  0.7376
12113SOL    HW137780   1.105   6.089   4.978  0.8226 -1.1280 -0.6721
12113SOL    HW237781   1.150   5.982   5.075  1.5643 -0.8547 -0.7120
12114SOL     OW37782   7.709   2.495   8.718 -0.3087 -0.2944  0.1607
12114SOL    HW137783   7.731   2.486   8.625 -2.5933 -0.3991 -0.4314
12114SOL    HW237784   7.667   2.412   8.741 -1.8447  0.5720  0.6274
12115SOL     OW37785   0.759   3.426   7.654  0.0574  0.2603  0.1718
12115SOL    HW137786   0.703   3.385   7.589 -0.0139  0.8253 -0.1340
12115SOL    HW237787   0.708   3.500   7.688  1.2784  1.9822 -1.4995
12116SOL     OW37788   4.224   5.617   5.838 -0.1569 -0.0476 -0.2284
12116SOL    HW137789   4.254   5.657   5.756 -1.2156 -1.0195 -1.1147
12116SOL    HW237790   4.141   5.662   5.857  0.1242  0.2289  0.3605
12117SOL     OW37791   5.886   7.426   7.015 -0.1190 -0.0058  0.0719
12117SOL    HW137792   5.798   7.424   7.052  0.0256 -1.5916  0.3906
12117SOL    HW237793   5.876   7.395   6.925  0.3294 -2.0960  0.6899
12118SOL     OW37794   2.197   4.954   8.194 -0.2860  0.4452  0.1330
12118SOL    HW137795   2.279   4.910   8.173 -0.4779  0.0711  0.1690
12118SOL    HW237796   2.221   5.046   8.206 -0.1652  0.6867 -1.7552
12119SOL     OW37797   5.678   4.402  12.354  0.3797 -0.0261 -0.0313
12119SOL    HW137798   5.752   4.414  12.295  1.0482 -0.4359  0.7061
12119SOL    HW237799   5.614   4.353  12.303 -0.5474  2.5836 -1.5863
12120SOL     OW37800   0.906   7.722   3.935 -0.2515  0.1381 -0.0420
12120SOL    HW137801   0.824   7.735   3.887 -0.8140 -0.6586  0.6761
12120SOL    HW237802   0.965   7.681   3.870 -0.5446  0.3589 -0.4508
12121SOL     OW37803   1.618   6.435   1.337  0.4555  0.0084  0.6672
12121SOL    HW137804   1.648   6.462   1.251  2.2030 -2.0696  0.5372
12121SOL    HW237805   1.546   6.374   1.320  2.0194 -1.8866  0.5006
12122SOL     OW37806   7.148   1.913   3.482 -0.3571  0.0368 -0.5223
12122SOL    HW137807   7.222   1.973   3.478  1.1649 -1.8090 -1.6813
12122SOL    HW237808   7.175   1.845   3.543 -1.4587 -0.2542 -0.3383
12123SOL     OW37809   7.123   0.984   5.846  0.1693  0.5510 -0.3861
12123SOL    HW137810   7.116   1.021   5.758 -1.9922  0.8910 -0.1262
12123SOL    HW237811   7.207   1.016   5.879 -0.8762  4.1518 -0.7296
12124SOL     OW37812   6.991   1.539   1.731  0.3121 -0.3397 -0.3082
12124SOL    HW137813   7.084   1.533   1.708  0.3788  2.1508 -1.0472
12124SOL    HW237814   6.952   1.589   1.659 -1.4855 -0.8306  0.2821
12125SOL     OW37815   4.910   3.209   4.116 -0.4541 -0.1141 -0.0593
12125SOL    HW137816   4.961   3.140   4.159 -1.1738 -0.2325  0.6261
12125SOL    HW237817   4.847   3.237   4.182 -1.2005  0.1058 -0.8455
12126SOL     OW37818   1.278   2.225  12.448 -0.2035 -0.4307 -0.0341
12126SOL    HW137819   1.194   2.221  12.402 -0.5985  0.4032  0.6072
12126SOL    HW237820   1.303   2.133  12.459 -1.0364 -0.6854 -0.2122
12127SOL     OW37821   1.804   0.716  11.589 -0.4315  0.3211 -0.2281
12127SOL    HW137822   1.716   0.702  11.624 -0.5347  0.2116 -0.5283
12127SOL    HW237823   1.813   0.812  11.588 -0.3077  0.3165  0.3862
12128SOL     OW37824   4.797   6.983   9.713  0.0718 -0.1412 -0.3528
12128SOL    HW137825   4.708   6.985   9.679 -0.4607 -0.8188  0.9340
12128SOL    HW237826   4.793   6.923   9.788  1.2621  0.9990  0.6674
12129SOL     OW37827   2.192   4.483   7.289  0.4151  0.2808 -0.0117
12129SOL    HW137828   2.212   4.514   7.201  1.6044 -1.0598 -0.2475
12129SOL    HW237829   2.217   4.556   7.346 -1.4667  1.6180 -0.8062
12130SOL     OW37830   2.431   5.119   5.838 -0.5741  1.1801 -0.0493
12130SOL    HW137831   2.471   5.109   5.752  0.2854 -0.1145  0.4681
12130SOL    HW237832   2.498   5.163   5.891 -0.5601  0.7324  0.3141
12131SOL     OW37833   0.320   4.134   0.557 -0.1930 -0.0492  0.1505
12131SOL    HW137834   0.300   4.175   0.642  1.1066  1.2534 -0.1500
12131SOL    HW237835   0.259   4.175   0.496  0.5553  0.8723  0.0045
12132SOL     OW37836   0.248   6.719  10.656  0.1478  0.0589 -0.2497
12132SOL    HW137837   0.320   6.767  10.614 -1.7182  1.8005 -1.6379
12132SOL    HW237838   0.225   6.651  10.594 -0.4245  0.5202 -0.5537
12133SOL     OW37839   1.430   4.167   6.127 -0.0533  0.4202 -0.3102
12133SOL    HW137840   1.448   4.078   6.094 -1.1902  0.0328  0.0739
12133SOL    HW237841   1.498   4.182   6.192 -0.3243 -0.5024  0.2051
12134SOL     OW37842   7.452   1.439   1.353  0.5517 -0.6592 -0.3173
12134SOL    HW137843   7.366   1.473   1.330  0.0878 -0.3637  1.7149
12134SOL    HW237844   7.487   1.404   1.270 -1.0505  0.1742 -1.3886
12135SOL     OW37845   4.025   5.194   3.749 -0.5143  0.3036  0.2180
12135SOL    HW137846   4.059   5.117   3.795  0.9779  0.1133 -1.1352
12135SOL    HW237847   3.931   5.192   3.767 -0.1060 -0.1106  2.6953
12136SOL     OW37848   0.332   3.822   3.426  0.2598  1.1155 -0.2040
12136SOL    HW137849   0.288   3.870   3.355 -0.2084  0.8638 -0.0905
12136SOL    HW237850   0.324   3.879   3.502  0.7084  1.3585 -0.3348
12137SOL     OW37851   7.374   0.029   1.526  0.0343  0.0068 -0.0564
12137SOL    HW137852   7.365   0.021   1.431  0.7333  1.0586 -0.2240
12137SOL    HW237853   7.305  -0.028   1.561  0.0438 -0.7197 -1.1804
12138SOL     OW37854   6.734   3.174   0.319  0.4352  0.4188  0.5328
12138SOL    HW137855   6.643   3.203   0.309  1.0682  1.9994 -1.0661
12138SOL    HW237856   6.762   3.209   0.403 -0.1755  0.5986  0.6661
12139SOL     OW37857   2.379   2.208   8.832  0.0275 -0.1578 -0.1821
12139SOL    HW137858   2.328   2.237   8.908 -0.4929 -2.1093  0.2645
12139SOL    HW237859   2.441   2.279   8.817 -0.4132  0.6508  1.5498
12140SOL     OW37860   4.782   0.734   9.960  0.2920 -0.5442  0.8132
12140SOL    HW137861   4.846   0.774  10.018  1.2770 -0.3181 -0.3990
12140SOL    HW237862   4.774   0.795   9.886 -1.5431 -0.4228  1.0572
12141SOL     OW37863   5.263   4.416   4.247 -0.4124  0.2005 -0.1888
12141SOL    HW137864   5.226   4.488   4.298  0.2270 -0.0855  0.7101
12141SOL    HW237865   5.191   4.353   4.239  0.0002 -0.6608  2.1397
12142SOL     OW37866   3.832   6.879   8.005 -0.1207  0.1171  0.1289
12142SOL    HW137867   3.927   6.887   8.007 -0.2427  1.6004  1.4123
12142SOL    HW237868   3.807   6.912   7.919  0.4229  1.2689  0.3971
12143SOL     OW37869   2.724   1.435   7.556  0.3600  0.1173  0.0269
12143SOL    HW137870   2.717   1.512   7.612 -0.5114 -2.1067  3.2027
12143SOL    HW237871   2.634   1.412   7.535  0.4533 -1.3510  1.1030
12144SOL     OW37872   5.854   5.251   3.635 -0.2574 -0.3867 -0.1247
12144SOL    HW137873   5.896   5.180   3.684  1.4906  1.6007  1.4697
12144SOL    HW237874   5.761   5.242   3.654  0.0785 -1.4622  1.1538
12145SOL     OW37875   7.230   7.527   8.632  0.3527 -0.2227  0.0045
12145SOL    HW137876   7.237   7.517   8.727 -1.5966 -0.1844  0.1918
12145SOL    HW237877   7.284   7.457   8.596 -0.7000 -1.6952  1.1797
12146SOL     OW37878   0.454   2.725   2.430 -0.7291 -0.4812 -0.4132
12146SOL    HW137879   0.522   2.736   2.364  0.6398 -0.8272  0.8740
12146SOL    HW237880   0.383   2.783   2.402  0.5773  0.7979 -1.1908
12147SOL     OW37881   7.882   3.424   2.689  0.5366 -0.0894 -0.5422
12147SOL    HW137882   7.801   3.421   2.638  0.9473 -0.1179 -1.2045
12147SOL    HW237883   7.855   3.400   2.778 -0.1191 -0.4816 -0.8350
12148SOL     OW37884   6.315   3.932   8.421 -0.3781 -0.5897 -0.1214
12148SOL    HW137885   6.293   3.841   8.442  0.8437 -0.5867  1.3361
12148SOL    HW237886   6.364   3.926   8.339 -2.1318 -0.9905 -1.1932
12149SOL     OW37887   7.764   1.942   9.633  0.2226 -0.2477  0.3395
12149SOL    HW137888   7.761   1.876   9.564 -0.5498 -1.2549  1.3018
12149SOL    HW237889   7.682   1.989   9.624  0.9849  0.9440 -0.6558
12150SOL     OW37890   3.528   4.573   3.024 -0.9560 -0.2931 -0.0262
12150SOL    HW137891   3.464   4.630   3.066 -0.3820  0.5153 -0.2086
12150SOL    HW237892   3.611   4.620   3.035 -0.6104 -0.6722 -0.9704
12151SOL     OW37893   7.650   1.438  10.779 -0.2959  0.4790  0.9498
12151SOL    HW137894   7.576   1.379  10.794 -2.3109  2.5412 -0.2176
12151SOL    HW237895   7.727   1.382  10.781 -2.1806 -2.5058 -1.7341
12152SOL     OW37896   0.651   1.211   0.966  0.3459 -0.0101  0.1885
12152SOL    HW137897   0.700   1.211   0.883  0.0581 -0.4146  0.0127
12152SOL    HW237898   0.614   1.122   0.971 -1.2845  0.6182 -0.2205
12153SOL     OW37899   5.138   5.917   6.663 -0.0629  0.2138 -0.0201
12153SOL    HW137900   5.175   5.902   6.750  1.2114 -0.9285 -0.7401
12153SOL    HW237901   5.060   5.862   6.660  0.1552 -0.1077  0.2283
12154SOL     OW37902   0.459   6.298  10.815  0.0771 -0.0195 -0.6460
12154SOL    HW137903   0.369   6.329  10.818 -0.5425 -1.7314 -0.5856
12154SOL    HW237904   0.498   6.343  10.740 -0.6938  1.0128 -0.4493
12155SOL     OW37905   6.134   5.025   9.992  0.7519 -0.1212 -0.2427
12155SOL    HW137906   6.157   4.942  10.034  0.4060 -0.0102  0.1847
12155SOL    HW237907   6.216   5.060   9.959  0.6819 -1.4400 -1.9469
12156SOL     OW37908   3.281   4.888   2.877 -0.0813  0.1706  0.2367
12156SOL    HW137909   3.190   4.890   2.907 -0.0707  1.3064  0.2206
12156SOL    HW237910   3.275   4.857   2.786 -0.5482  1.1075 -0.0624
12157SOL     OW37911   1.954   1.103   4.931 -0.0642  0.0015  0.2442
12157SOL    HW137912   1.869   1.117   4.973 -0.0165 -0.7985  0.6177
12157SOL    HW237913   2.018   1.115   5.001  0.1283  0.3745  0.0120
12158SOL     OW37914   0.297   7.360   1.034 -0.6406 -0.0290 -0.4710
12158SOL    HW137915   0.224   7.308   1.000 -0.8636  0.0903 -0.1795
12158SOL    HW237916   0.285   7.359   1.129  0.0521 -0.4700 -0.3808
12159SOL     OW37917   5.715   4.473   9.045  0.1918 -0.1247 -0.4498
12159SOL    HW137918   5.666   4.402   9.002 -0.1057 -0.0565 -0.2242
12159SOL    HW237919   5.663   4.551   9.028 -1.5977 -0.5135  2.6024
12160SOL     OW37920   6.953   6.447   0.870 -0.3357  0.3711 -0.5284
12160SOL    HW137921   7.044   6.460   0.843  0.9753  0.1180  3.2068
12160SOL    HW237922   6.944   6.353   0.879 -0.4643  0.4782  0.5495
12161SOL     OW37923   1.806   6.801   4.610 -0.1993  0.3004  0.8700
12161SOL    HW137924   1.744   6.860   4.652  0.5828  2.2726 -0.5871
12161SOL    HW237925   1.753   6.729   4.576 -1.5470  1.4174  0.5500
12162SOL     OW37926   5.028   0.795   5.433  0.3105 -0.8026 -0.4147
12162SOL    HW137927   4.957   0.740   5.398  0.6947 -0.5923 -1.5953
12162SOL    HW237928   5.085   0.734   5.479  1.4274 -1.7061 -2.8116
12163SOL     OW37929   4.364   5.013   3.558 -0.1681 -0.1661  0.2879
12163SOL    HW137930   4.343   5.097   3.516  1.0076  0.2386  0.4558
12163SOL    HW237931   4.396   5.038   3.645  1.4877 -0.6527 -0.1387
12164SOL     OW37932   3.753   2.888   1.894 -0.2868  0.2172 -0.2753
12164SOL    HW137933   3.743   2.983   1.897  0.3812  0.3185 -0.9674
12164SOL    HW237934   3.727   2.859   1.982  0.7058  1.1586  0.3578
12165SOL     OW37935   7.759   6.180   4.154 -0.2668  0.2872  0.0916
12165SOL    HW137936   7.833   6.224   4.196 -0.9133  0.3128  1.2647
12165SOL    HW237937   7.741   6.104   4.211  0.6070 -1.3363 -1.6902
12166SOL     OW37938   2.431   1.894   3.627  0.2262 -0.4380 -0.2637
12166SOL    HW137939   2.475   1.926   3.706  0.2638  0.4191 -0.6208
12166SOL    HW237940   2.446   1.963   3.562 -1.0657 -0.4435 -0.5919
12167SOL     OW37941   1.309   0.061   2.543 -0.0632 -0.3435 -0.4862
12167SOL    HW137942   1.318   0.000   2.616 -0.4852 -0.1033 -0.2311
12167SOL    HW237943   1.252   0.131   2.576  0.7891  0.4406 -0.6133
12168SOL     OW37944   1.786   5.182   3.474  0.3853  0.5766  0.4103
12168SOL    HW137945   1.724   5.142   3.413  0.5531  0.5984  0.2249
12168SOL    HW237946   1.767   5.140   3.558  1.6835 -1.1451 -0.0998
12169SOL     OW37947   3.067   7.052   7.796  0.0399  0.0406  0.7452
12169SOL    HW137948   3.076   6.957   7.793  0.3932  0.1078 -0.7562
12169SOL    HW237949   2.974   7.067   7.781  0.0041 -0.0533  0.8653
12170SOL     OW37950   0.009   3.538   9.590  0.2702  0.1162 -0.0472
12170SOL    HW137951  -0.057   3.602   9.616  1.0435  1.0522 -0.3405
12170SOL    HW237952  -0.041   3.461   9.562 -0.7029  0.9641 -0.6933
12171SOL     OW37953   3.311   4.269   1.505 -0.3085 -0.1238 -0.0744
12171SOL    HW137954   3.244   4.292   1.569  2.1177  0.2852  2.5384
12171SOL    HW237955   3.365   4.203   1.549  2.1764  1.0368 -1.1632
12172SOL     OW37956   0.101   5.693   8.346  0.0701  0.3025  0.1716
12172SOL    HW137957   0.101   5.781   8.384  0.8770  0.5900 -0.4647
12172SOL    HW237958   0.146   5.704   8.262  0.5588 -0.8058  0.2789
12173SOL     OW37959   0.052   7.837   1.167 -0.2916 -0.0313  0.5195
12173SOL    HW137960   0.062   7.755   1.215 -1.0694 -0.8165 -0.6216
12173SOL    HW237961   0.138   7.854   1.129  0.2470  0.4359  1.8875
12174SOL     OW37962   7.156   7.310   2.596  0.6193  0.1736  0.1931
12174SOL    HW137963   7.103   7.278   2.669  0.7732 -0.2555  0.1209
12174SOL    HW237964   7.094   7.351   2.536  0.3857 -0.2062  0.1714
12175SOL     OW37965   3.598   1.802   9.821  0.2288 -0.1087  0.8754
12175SOL    HW137966   3.524   1.848   9.861  0.0014 -0.7540  1.2241
12175SOL    HW237967   3.671   1.863   9.826 -0.5021  0.9129 -0.3325
12176SOL     OW37968   6.982   4.404  11.537  0.5878  0.5811  0.0567
12176SOL    HW137969   7.077   4.410  11.534  0.5852  1.2381  0.7897
12176SOL    HW237970   6.958   4.451  11.617 -0.2131 -1.4159  1.0484
12177SOL     OW37971   6.352   1.200   8.439 -0.2985 -0.1157  0.3228
12177SOL    HW137972   6.322   1.164   8.355 -0.9149 -1.1443  0.9598
12177SOL    HW237973   6.345   1.294   8.428 -0.9831 -0.2539 -0.5768
12178SOL     OW37974   7.026   5.633   0.018  0.5656  0.0049  0.2089
12178SOL    HW137975   7.073   5.691  -0.042 -1.4783  0.2757 -1.2329
12178SOL    HW237976   7.035   5.546  -0.021  0.2958 -0.0175  0.1952
12179SOL     OW37977   7.689   5.182   9.956  0.3857 -0.4636 -0.1609
12179SOL    HW137978   7.613   5.231   9.924 -0.4440 -1.0511  0.8268
12179SOL    HW237979   7.764   5.230   9.924 -0.4094  0.8198 -0.1645
12180SOL     OW37980   0.772   7.880   5.057  0.4788  0.4181 -0.1595
12180SOL    HW137981   0.792   7.847   4.969  4.0023  1.7071  0.0178
12180SOL    HW237982   0.683   7.914   5.049 -0.2025 -1.5887 -2.5369
12181SOL     OW37983   5.249   6.066   7.717 -0.3230  0.7445 -0.1234
12181SOL    HW137984   5.171   6.013   7.730 -1.1053  2.0294  0.6352
12181SOL    HW237985   5.217   6.148   7.680  0.8515  0.7570 -1.2121
12182SOL     OW37986   0.454   2.815   0.784  0.1195 -1.0022  0.2891
12182SOL    HW137987   0.374   2.798   0.736  0.4527 -1.8426  0.0193
12182SOL    HW237988   0.521   2.825   0.717  0.3266 -0.7466  0.5289
12183SOL     OW37989   1.959   6.020   5.284 -0.0518 -0.2896 -0.1212
12183SOL    HW137990   1.992   6.028   5.194  0.0180  0.2475 -0.0506
12183SOL    HW237991   1.941   5.927   5.294 -0.8072 -0.2460 -0.9534
12184SOL     OW37992   6.167   2.464   3.873  0.4355  1.3322 -0.2827
12184SOL    HW137993   6.201   2.423   3.952 -1.3389  1.2285  0.4745
12184SOL    HW237994   6.119   2.541   3.904 -0.2683  1.3063 -1.2463
12185SOL     OW37995   6.926   5.833   3.890  0.5362  0.6326 -0.5784
12185SOL    HW137996   6.883   5.852   3.974  0.2312 -0.6177 -0.4256
12185SOL    HW237997   7.013   5.871   3.898 -0.1054  2.1458 -0.4173
12186SOL     OW37998   2.209   4.994   8.645 -0.2404  0.3121  0.2245
12186SOL    HW137999   2.197   4.899   8.644  0.4996  0.2163 -0.0812
12186SOL    HW238000   2.259   5.013   8.566  0.7481  0.7955  0.9376
12187SOL     OW38001   7.647   0.922  11.714 -0.1057 -0.1240  0.2901
12187SOL    HW138002   7.650   0.956  11.624 -0.1036 -0.9235 -0.0190
12187SOL    HW238003   7.655   1.000  11.769  0.8843  0.2878 -0.4043
12188SOL     OW38004   2.089   5.157   9.485 -0.0354 -0.7682  0.7981
12188SOL    HW138005   2.136   5.172   9.567  0.8762 -0.6671  0.2681
12188SOL    HW238006   2.158   5.148   9.419 -0.7650 -0.0890 -0.0849
12189SOL     OW38007   5.917   1.522   9.888  0.6472 -0.4319 -0.0485
12189SOL    HW138008   6.011   1.528   9.867  0.4910  0.6088 -0.4769
12189SOL    HW238009   5.882   1.609   9.870  0.0038 -0.1592  2.2014
12190SOL     OW38010   4.231   5.938   0.524  0.0330 -0.4809 -0.1617
12190SOL    HW138011   4.141   5.924   0.552  0.4897  0.5442  2.0777
12190SOL    HW238012   4.266   5.850   0.509 -1.3384 -0.8841 -1.1982
12191SOL     OW38013   7.091   4.409   1.731  0.4283  0.1972  0.0263
12191SOL    HW138014   6.997   4.391   1.735  0.4871  0.0515  1.0341
12191SOL    HW238015   7.132   4.323   1.737  0.6323  0.2340 -0.7217
12192SOL     OW38016   7.296   0.101  12.146 -0.6666 -0.1873 -0.0701
12192SOL    HW138017   7.282   0.032  12.081  0.9137 -0.2186 -0.4040
12192SOL    HW238018   7.336   0.173  12.097 -0.5203  0.2240  0.6458
12193SOL     OW38019   3.851   7.482   8.861  0.4056 -0.1460 -0.0779
12193SOL    HW138020   3.827   7.543   8.791 -0.4450 -0.6390 -0.2419
12193SOL    HW238021   3.894   7.536   8.928 -0.9523  0.7656  0.0939
12194SOL     OW38022   3.316   6.935  10.380  0.4358 -0.0070  0.1873
12194SOL    HW138023   3.247   7.001  10.389  1.7658  1.6545 -1.0506
12194SOL    HW238024   3.270   6.856  10.351 -1.1909  0.3797  1.5714
12195SOL     OW38025   1.716   7.214   0.791  0.0125  0.0985  0.3314
12195SOL    HW138026   1.675   7.289   0.833  1.1216  0.3599  0.9601
12195SOL    HW238027   1.695   7.225   0.698 -0.7710  0.5755  0.5511
12196SOL     OW38028   7.228   3.378  10.564  0.1797 -0.1386  0.1126
12196SOL    HW138029   7.212   3.295  10.609 -1.4356 -0.3740 -0.8149
12196SOL    HW238030   7.148   3.429  10.578  1.3586  1.5482  1.1624
12197SOL     OW38031   5.869   1.484   1.734  0.4197  0.5104 -0.1870
12197SOL    HW138032   5.871   1.559   1.793  2.5271  0.0831  0.3534
12197SOL    HW238033   5.892   1.409   1.788 -3.3300 -0.9217 -0.3353
12198SOL     OW38034   3.480   0.065   5.087  0.3779  0.3099  0.6737
12198SOL    HW138035   3.472   0.087   4.994 -1.4641  1.5396  1.0712
12198SOL    HW238036   3.391   0.046   5.115  0.8385  0.4375  2.3067
12199SOL     OW38037   1.032   7.742   5.129  0.7040  0.1005 -0.1229
12199SOL    HW138038   1.043   7.820   5.075  0.1856 -0.5664 -1.2352
12199SOL    HW238039   0.996   7.677   5.070  1.5026 -1.1227  0.6780
12200SOL     OW38040   6.795   6.215  12.287 -0.0912 -0.3891 -0.4365
12200SOL    HW138041   6.783   6.125  12.317  0.7419 -1.0199 -1.9098
12200SOL    HW238042   6.723   6.230  12.226 -0.1766 -0.0764 -0.2632
12201SOL     OW38043   0.086   0.406   0.728  0.1325  0.3948 -0.3886
12201SOL    HW138044   0.090   0.469   0.656 -1.2191  2.6156  1.3380
12201SOL    HW238045  -0.005   0.410   0.758  0.3018 -1.5499  0.5388
12202SOL     OW38046   7.242   6.197  11.919  0.0228 -0.0807  0.3452
12202SOL    HW138047   7.181   6.204  11.992 -0.5153 -0.3926 -0.0666
12202SOL    HW238048   7.258   6.103  11.910  0.2232 -0.0300  0.1726
12203SOL     OW38049   7.624   6.951   2.810 -0.2676  0.8134  0.3311
12203SOL    HW138050   7.603   6.989   2.725  0.4999  1.8565  0.5857
12203SOL    HW238051   7.541   6.950   2.858 -0.6888  0.2707 -0.3975
12204SOL     OW38052   6.270   2.669   6.820  0.9007 -0.0035  0.2539
12204SOL    HW138053   6.301   2.601   6.881 -3.8731 -1.5101  1.4801
12204SOL    HW238054   6.248   2.743   6.877  0.4229  0.2415 -0.2492
12205SOL     OW38055   4.835   1.153   6.595 -0.2807  0.6517  0.0498
12205SOL    HW138056   4.866   1.220   6.535  0.1322 -0.2832 -0.8016
12205SOL    HW238057   4.901   1.149   6.664  1.1790 -0.8143 -1.3674
12206SOL     OW38058   7.578   7.106   0.821 -0.2363  0.9909 -0.7352
12206SOL    HW138059   7.530   7.184   0.790  0.3941  0.2070 -4.1268
12206SOL    HW238060   7.568   7.043   0.750  0.8989 -1.3563  1.0737
12207SOL     OW38061   4.858   7.286   3.631  0.5680 -0.2303  0.2979
12207SOL    HW138062   4.826   7.251   3.548 -1.2427  0.4536  0.6742
12207SOL    HW238063   4.953   7.272   3.627  0.3934 -1.2385 -1.3821
12208SOL     OW38064   0.225   6.163   9.857 -0.4027 -0.2089  0.2297
12208SOL    HW138065   0.280   6.233   9.891  1.1961 -0.8315 -0.9511
12208SOL    HW238066   0.179   6.129   9.934  1.2506  0.0173  1.3597
12209SOL     OW38067   1.000   6.646   1.977  0.4368 -0.1605 -0.6633
12209SOL    HW138068   0.977   6.629   1.885  0.7032  1.3944 -1.0409
12209SOL    HW238069   1.017   6.559   2.014  0.7823 -0.7767 -2.2065
12210SOL     OW38070   6.802   3.748  11.504  0.2149  0.4497 -0.6539
12210SOL    HW138071   6.807   3.657  11.477 -2.0744 -0.3297  1.1680
12210SOL    HW238072   6.833   3.798  11.429  1.9960 -1.8030 -1.5321
12211SOL     OW38073   4.466   5.815  12.036 -0.1479 -0.2998  0.4735
12211SOL    HW138074   4.507   5.788  11.954  0.0197  0.7542  0.1890
12211SOL    HW238075   4.527   5.787  12.104 -1.2601 -3.0915  0.4510
12212SOL     OW38076   5.857   2.824   7.571 -0.0949  0.2081 -0.2861
12212SOL    HW138077   5.907   2.748   7.542 -0.0377  0.4690 -0.8763
12212SOL    HW238078   5.924   2.891   7.587 -0.1886  0.2967 -0.2686
12213SOL     OW38079   2.374   0.570  12.056 -0.2907 -0.3286 -0.2691
12213SOL    HW138080   2.430   0.587  11.980  0.6203 -1.0028  0.2229
12213SOL    HW238081   2.398   0.481  12.083 -1.7665 -0.7213 -0.1626
12214SOL     OW38082   3.351   4.625   0.428 -0.1985 -0.3787  0.0480
12214SOL    HW138083   3.441   4.614   0.396 -0.0448  1.1539 -0.1357
12214SOL    HW238084   3.350   4.579   0.512  0.9272  0.0008  0.2920
12215SOL     OW38085   7.811   4.145   9.895 -0.6511 -0.1413 -0.2074
12215SOL    HW138086   7.815   4.125   9.801  1.4793 -1.4478  0.0886
12215SOL    HW238087   7.763   4.071   9.932 -0.7658 -0.0457 -0.1652
12216SOL     OW38088   5.204   0.650   4.376 -0.2052  0.5790 -0.4053
12216SOL    HW138089   5.115   0.638   4.409 -0.3705  0.2960 -0.9307
12216SOL    HW238090   5.213   0.583   4.308 -0.5444  2.2897 -2.2480
12217SOL     OW38091   1.693   0.255   8.952 -0.2385  0.9115  0.3387
12217SOL    HW138092   1.600   0.258   8.972 -0.2168  0.4303  0.5121
12217SOL    HW238093   1.718   0.164   8.965 -0.1863  0.5849 -1.7173
12218SOL     OW38094   1.211   6.652   8.756 -0.6288  0.2577 -0.6713
12218SOL    HW138095   1.210   6.748   8.752 -0.3459  0.2890 -0.0177
12218SOL    HW238096   1.126   6.627   8.720 -0.7021  0.7547 -0.8582
12219SOL     OW38097   3.029   2.720  10.695  1.0695  0.7143 -0.8461
12219SOL    HW138098   3.065   2.808  10.704 -0.4567  1.2827 -0.1341
12219SOL    HW238099   2.951   2.731  10.641 -1.0239  0.3794  1.9061
12220SOL     OW38100   7.982   1.163   2.882  0.4685 -0.2819 -0.3583
12220SOL    HW138101   7.931   1.242   2.866 -1.0699 -1.2380 -0.3488
12220SOL    HW238102   8.029   1.181   2.963  0.0412  0.5638 -0.2874
12221SOL     OW38103   0.172   4.594   7.800  0.0207  0.2101  0.5923
12221SOL    HW138104   0.215   4.653   7.738 -1.0298  0.8139  0.4215
12221SOL    HW238105   0.219   4.511   7.789 -0.4848  0.1287 -1.4599
12222SOL     OW38106   1.814   4.789   1.890  0.0359 -0.9516  0.6542
12222SOL    HW138107   1.826   4.878   1.922  0.4888 -0.9150  0.4012
12222SOL    HW238108   1.749   4.751   1.948 -1.4027  0.0502 -0.2261
12223SOL     OW38109   6.824   6.348  10.409 -0.2211 -0.1362  0.2474
12223SOL    HW138110   6.738   6.391  10.409 -0.2794 -0.2546  0.0512
12223SOL    HW238111   6.859   6.365  10.322  0.6795  1.3550  0.8577
12224SOL     OW38112   6.124   4.642  12.329 -0.4777 -0.2701  0.8875
12224SOL    HW138113   6.211   4.604  12.343  1.1193  1.1017 -3.4763
12224SOL    HW238114   6.077   4.576  12.279 -0.6706  0.2766  0.3367
12225SOL     OW38115   7.673   4.979   1.505  0.7613 -0.1491  0.0986
12225SOL    HW138116   7.719   4.948   1.427  1.8928  0.7029  0.4105
12225SOL    HW238117   7.729   4.955   1.578 -0.6401 -1.5934  0.7477
12226SOL     OW38118   7.839   1.539   8.992 -0.2650  0.0898  0.7549
12226SOL    HW138119   7.832   1.461   9.046  0.5878 -1.2880 -1.0045
12226SOL    HW238120   7.925   1.575   9.014 -1.0678  1.1706  2.3002
12227SOL     OW38121   2.831   6.668   2.653 -0.2758 -0.1023 -0.1427
12227SOL    HW138122   2.894   6.613   2.700  0.8426  1.8760  0.7944
12227SOL    HW238123   2.752   6.614   2.647  0.9045 -1.9795  0.2609
12228SOL     OW38124   3.179   1.841   4.128 -0.4862  0.1047 -0.1613
12228SOL    HW138125   3.149   1.759   4.166  0.3118  0.2371  0.8002
12228SOL    HW238126   3.267   1.852   4.162  0.3603  0.1432 -2.2462
12229SOL     OW38127   4.446   1.566  10.596  0.0992  0.1827 -0.0600
12229SOL    HW138128   4.363   1.526  10.622  0.6383 -0.8779  0.0890
12229SOL    HW238129   4.512   1.500  10.615  1.0452  1.1690  0.2311
12230SOL     OW38130   5.046   2.347   5.685  0.0683  0.1911  0.2645
12230SOL    HW138131   5.025   2.336   5.778 -0.6739  0.2720  0.1130
12230SOL    HW238132   4.969   2.390   5.648 -0.0913 -0.8019 -0.5986
12231SOL     OW38133   1.732   3.556   8.766 -0.5414  0.1862  0.4032
12231SOL    HW138134   1.813   3.529   8.809 -0.0751  2.2119  0.9103
12231SOL    HW238135   1.698   3.627   8.822 -1.9271  0.3049 -0.5424
12232SOL     OW38136   5.084   3.975   0.170 -0.5144 -0.1095  0.2507
12232SOL    HW138137   5.118   3.942   0.253  0.1756  1.0436  0.4485
12232SOL    HW238138   4.990   3.979   0.182 -0.9770 -4.1528 -0.5759
12233SOL     OW38139   3.191   4.880   3.289  0.7132  0.0761 -0.5953
12233SOL    HW138140   3.186   4.850   3.379  1.3622 -1.0308 -0.9052
12233SOL    HW238141   3.229   4.967   3.294 -1.0610  0.8491  0.3216
12234SOL     OW38142   3.205   2.804   8.832 -0.3762  0.3977  0.4388
12234SOL    HW138143   3.285   2.752   8.823 -1.7300 -1.7185 -0.1420
12234SOL    HW238144   3.230   2.891   8.801  0.7681 -1.1761 -3.8593
12235SOL     OW38145   1.029   7.460   5.601 -0.6619 -0.4761  0.1628
12235SOL    HW138146   1.024   7.512   5.681  0.5630 -2.0725  1.3410
12235SOL    HW238147   0.941   7.423   5.591 -0.9951  0.2302  0.4020
12236SOL     OW38148   2.845   5.769   5.992 -0.0708  0.3129 -0.2367
12236SOL    HW138149   2.841   5.859   5.958  2.0835  2.0739  3.4907
12236SOL    HW238150   2.917   5.729   5.944 -0.2499  0.9995 -1.1057
12237SOL     OW38151   6.733   4.031   4.047 -0.4783  0.2714 -0.1321
12237SOL    HW138152   6.718   3.948   4.093 -0.9616 -0.1100 -0.9504
12237SOL    HW238153   6.657   4.085   4.070  0.9208  1.4239  2.2941
12238SOL     OW38154   7.340   4.602   5.788  0.6893 -0.0842 -0.1878
12238SOL    HW138155   7.270   4.637   5.732 -3.2252  0.4396  4.3469
12238SOL    HW238156   7.319   4.509   5.798  0.8284 -0.0095  0.9347
12239SOL     OW38157   6.129   4.475   0.216 -0.0558  0.0007  0.6838
12239SOL    HW138158   6.097   4.456   0.304  1.0026  0.4706  1.1771
12239SOL    HW238159   6.178   4.557   0.224  0.3076 -0.1018 -0.2795
12240SOL     OW38160   7.803   3.093   0.191 -0.2236 -0.4707  0.1932
12240SOL    HW138161   7.780   3.006   0.226 -0.5568 -0.6532 -0.4699
12240SOL    HW238162   7.860   3.131   0.259  0.5060 -1.4810  0.1847
12241SOL     OW38163   7.560   1.288   5.086  0.1215 -0.0139 -0.0341
12241SOL    HW138164   7.512   1.268   5.166  0.3994 -3.1196 -0.5249
12241SOL    HW238165   7.651   1.295   5.114  0.1204 -0.3017  0.0460
12242SOL     OW38166   0.373   5.198  11.686 -0.2626 -0.0599  0.2905
12242SOL    HW138167   0.454   5.162  11.650 -0.9626 -0.6558 -0.7333
12242SOL    HW238168   0.360   5.150  11.767  0.6734  0.4156  0.7472
12243SOL     OW38169   2.296   4.693   0.350 -0.2304 -0.1034  0.0997
12243SOL    HW138170   2.201   4.692   0.359 -0.3532 -2.4449 -0.7102
12243SOL    HW238171   2.321   4.601   0.347  1.6062  0.3077 -3.8184
12244SOL     OW38172   4.509   0.307   3.156  0.4568  0.2748  0.2256
12244SOL    HW138173   4.492   0.310   3.062 -0.5056  1.0554  0.4093
12244SOL    HW238174   4.588   0.254   3.165  0.5103  0.1305 -1.0145
12245SOL     OW38175   1.916   6.820   2.216  0.1718 -0.3848  0.2851
12245SOL    HW138176   1.839   6.793   2.165 -1.1504  2.0920  0.8396
12245SOL    HW238177   1.990   6.779   2.170 -1.1980 -0.4205 -2.0514
12246SOL     OW38178   1.397   3.070   2.483 -0.5110 -0.1118  0.0177
12246SOL    HW138179   1.458   3.026   2.424 -1.1806  0.6654 -1.3038
12246SOL    HW238180   1.437   3.156   2.498 -0.7947  0.0275 -0.0308
12247SOL     OW38181   0.196   6.247   3.801 -0.1525  0.1326  0.2812
12247SOL    HW138182   0.130   6.206   3.745  1.5324 -0.9620 -1.0213
12247SOL    HW238183   0.226   6.176   3.858  0.6004  0.3417  0.1560
12248SOL     OW38184   1.742   1.539   7.518  0.5154 -0.1234  0.0232
12248SOL    HW138185   1.694   1.610   7.475 -0.5474  0.5951  2.2305
12248SOL    HW238186   1.682   1.465   7.515 -0.6137  0.6187  2.2952
12249SOL     OW38187   5.758   3.396  10.986  0.0928  0.1183  0.1257
12249SOL    HW138188   5.674   3.366  10.950 -0.3663  1.3362  0.1349
12249SOL    HW238189   5.802   3.316  11.013 -1.1420 -0.5401  0.2893
12250SOL     OW38190   1.492   5.408  10.037  0.0189  0.2609  0.6019
12250SOL    HW138191   1.514   5.414  10.129 -0.9133  1.6771  0.7543
12250SOL    HW238192   1.575   5.418   9.991  0.2256  1.5974  1.2438
12251SOL     OW38193   5.656   2.590   8.883  0.0581 -0.4749  0.3131
12251SOL    HW138194   5.667   2.580   8.978  1.0147 -0.2235  0.2439
12251SOL    HW238195   5.707   2.517   8.846 -0.2751 -0.5446 -0.0066
12252SOL     OW38196   1.195   1.171   7.161 -0.4491  0.2716 -0.2185
12252SOL    HW138197   1.266   1.129   7.113  0.9714 -0.0621  2.0196
12252SOL    HW238198   1.159   1.102   7.216 -0.8403  1.0299  0.4930
12253SOL     OW38199   1.112   1.218   2.256  0.0140 -0.5057 -0.4317
12253SOL    HW138200   1.045   1.154   2.232 -0.5378 -0.6524  1.3707
12253SOL    HW238201   1.193   1.167   2.261 -0.3380 -0.9858  0.5311
12254SOL     OW38202   1.157   0.830   6.153  0.0293 -0.2059  0.0012
12254SOL    HW138203   1.145   0.782   6.071  0.8511 -0.9129  0.2686
12254SOL    HW238204   1.211   0.772   6.207 -1.3260 -0.2035  1.4406
12255SOL     OW38205   4.341   0.075   9.633 -0.4008  0.1105  0.2156
12255SOL    HW138206   4.299   0.135   9.572 -1.5283  0.1848  1.0463
12255SOL    HW238207   4.274   0.054   9.697  0.0460 -1.8050  0.1280
12256SOL     OW38208   7.460   7.879   1.800  0.5120 -0.0845  0.5196
12256SOL    HW138209   7.399   7.816   1.838 -0.9770  1.3761  0.6596
12256SOL    HW238210   7.409   7.926   1.734  1.3870  1.3780  0.8262
12257SOL     OW38211   6.808   0.248   6.801  0.4755  0.0182 -0.0409
12257SOL    HW138212   6.839   0.334   6.828 -0.1526  0.0763  0.4995
12257SOL    HW238213   6.788   0.258   6.708  1.8906  0.0266 -0.3715
12258SOL     OW38214   6.257   2.218  11.034 -0.1575 -0.7375 -0.1021
12258SOL    HW138215   6.206   2.297  11.018  1.7172  1.1345  2.3322
12258SOL    HW238216   6.304   2.236  11.115  3.1533 -2.9033 -1.3323
12259SOL     OW38217   5.154   7.972   1.717 -0.2207  0.2114 -0.2296
12259SOL    HW138218   5.137   7.967   1.811  2.7827  1.0154  0.4501
12259SOL    HW238219   5.119   7.891   1.681 -1.1186 -0.2632  1.6168
12260SOL     OW38220   7.712   0.158  11.496  0.3652 -0.1372  0.0191
12260SOL    HW138221   7.776   0.123  11.558  0.6051 -0.0110 -0.1592
12260SOL    HW238222   7.680   0.238  11.538  0.9934  0.2896 -0.3078
12261SOL     OW38223   0.942   5.299   5.443  0.0834 -0.7874 -0.3032
12261SOL    HW138224   0.849   5.283   5.427  0.0671 -0.7185 -0.2738
12261SOL    HW238225   0.972   5.345   5.364 -0.9222  3.4637  1.5309
12262SOL     OW38226   6.765   0.999   2.020  0.2048  0.1449  0.2367
12262SOL    HW138227   6.722   0.997   2.105 -0.4287 -0.4736 -0.0878
12262SOL    HW238228   6.810   1.083   2.018 -1.4690  1.0715  0.3471
12263SOL     OW38229   3.599   7.349   8.867 -0.3244  0.3075  0.4687
12263SOL    HW138230   3.575   7.279   8.928  0.5150  0.6321  1.1884
12263SOL    HW238231   3.689   7.371   8.890  0.5512 -0.5687 -1.8671
12264SOL     OW38232   5.135   4.846   6.559  0.3374 -0.2885  0.2606
12264SOL    HW138233   5.162   4.779   6.622 -0.0056  1.0563  1.9201
12264SOL    HW238234   5.048   4.871   6.588 -0.1059 -0.0871 -1.1857
12265SOL     OW38235   1.223   0.431   0.792  0.5866  0.3599 -0.2516
12265SOL    HW138236   1.257   0.342   0.793  1.6198  0.7459  0.7984
12265SOL    HW238237   1.138   0.425   0.835  1.2210  0.0685  1.0219
12266SOL     OW38238   0.657   3.855  10.557  0.6877  0.1331 -0.0640
12266SOL    HW138239   0.658   3.943  10.519  2.0965  1.0160  1.8673
12266SOL    HW238240   0.637   3.869  10.650  0.0578 -1.6850  0.1114
12267SOL     OW38241   1.229   4.906  11.004  0.4851 -0.0647  0.0693
12267SOL    HW138242   1.285   4.982  10.986  0.1441  0.8373  2.4810
12267SOL    HW238243   1.190   4.924  11.089 -1.3484 -1.9608 -0.2769
12268SOL     OW38244   6.304   7.146   7.451 -0.3113  0.6383  0.1442
12268SOL    HW138245   6.329   7.234   7.424 -1.3419  1.0538  0.4742
12268SOL    HW238246   6.321   7.091   7.375  0.1002  1.1712 -0.1549
12269SOL     OW38247   0.998   5.044   7.016  0.4340 -0.2539  0.2301
12269SOL    HW138248   0.990   4.988   7.093  1.2503  0.0837  0.5647
12269SOL    HW238249   0.913   5.036   6.972 -0.4618  0.4467  1.7558
12270SOL     OW38250   0.402   3.250   1.740  0.0380  0.2658  0.2037
12270SOL    HW138251   0.390   3.220   1.650 -1.5793  1.9113 -0.1921
12270SOL    HW238252   0.494   3.275   1.745  0.1008  0.3393 -1.0742
12271SOL     OW38253   1.633   7.797   8.891 -0.3396 -0.0543 -0.1145
12271SOL    HW138254   1.556   7.835   8.932 -1.3339 -1.2831 -0.7712
12271SOL    HW238255   1.630   7.827   8.800 -0.4138 -0.6246 -0.3064
12272SOL     OW38256   0.977   0.996   7.027 -0.2514 -0.1196 -0.0209
12272SOL    HW138257   0.932   1.079   7.040  0.0434  0.1121 -0.4948
12272SOL    HW238258   1.032   1.009   6.950  1.6131  0.0105  1.2716
12273SOL     OW38259   2.344   1.048   9.311 -0.3340 -0.1072  0.0820
12273SOL    HW138260   2.362   0.976   9.250  1.2988  0.3523 -0.0078
12273SOL    HW238261   2.385   1.021   9.393 -0.7688  0.1994  0.4024
12274SOL     OW38262   6.551   3.643   9.878  0.1017 -0.2682 -0.3770
12274SOL    HW138263   6.563   3.702   9.953 -0.7126  0.7729 -1.0282
12274SOL    HW238264   6.460   3.657   9.852 -0.5095 -2.7618  0.1888
12275SOL     OW38265   1.045   3.800  11.949  0.0859 -0.1419 -0.5812
12275SOL    HW138266   0.996   3.881  11.936  0.7618  0.1080 -1.7370
12275SOL    HW238267   1.082   3.808  12.037  0.8238  1.1915 -0.9957
12276SOL     OW38268   4.478   1.073   0.385 -0.2734 -0.4504 -0.4929
12276SOL    HW138269   4.405   1.105   0.438  0.2604  0.1246 -0.0819
12276SOL    HW238270   4.471   0.978   0.389  0.5913 -0.4891  1.8806
12277SOL     OW38271   4.301   1.126   7.142  0.0532  0.2998 -0.6090
12277SOL    HW138272   4.227   1.097   7.194  0.6284 -1.0856 -0.5247
12277SOL    HW238273   4.323   1.051   7.087  1.6695  0.5045 -0.3003
12278SOL     OW38274   7.062   2.362   2.185 -0.0046  0.3367  0.5228
12278SOL    HW138275   6.978   2.394   2.152  1.2564  2.1831 -1.1384
12278SOL    HW238276   7.083   2.421   2.257 -0.1180 -0.1287  0.9421
12279SOL     OW38277   7.408   7.179   0.316  0.2539 -1.0218 -0.1037
12279SOL    HW138278   7.313   7.192   0.317  0.4123  0.3245  0.4191
12279SOL    HW238279   7.439   7.234   0.244  0.8362  0.5520  1.2716
12280SOL     OW38280   5.776   3.014   1.161  0.0060  0.0239 -0.4772
12280SOL    HW138281   5.796   3.064   1.240  0.7791 -0.6499 -0.2263
12280SOL    HW238282   5.685   2.988   1.171 -0.6667  2.0170 -0.9774
12281SOL     OW38283   0.118   3.552  11.755  0.0426  0.2457  0.1990
12281SOL    HW138284   0.153   3.599  11.831 -0.3773  0.1064  0.4802
12281SOL    HW238285   0.158   3.595  11.680 -0.1720  0.9115  0.4647
12282SOL     OW38286   0.064   2.755   7.451  0.2339  0.3876  0.3694
12282SOL    HW138287  -0.013   2.700   7.436 -0.1395  1.2783 -1.2575
12282SOL    HW238288   0.130   2.695   7.486 -0.2944 -0.9997 -0.9072
12283SOL     OW38289   7.492   5.993  10.245 -0.0379 -0.4439 -0.1784
12283SOL    HW138290   7.504   5.907  10.205  0.8027 -0.4008 -0.0243
12283SOL    HW238291   7.449   5.975  10.328 -2.1470 -0.5096 -1.1954
12284SOL     OW38292   5.655   5.003  10.914  0.4635 -0.0283 -0.3145
12284SOL    HW138293   5.704   5.041  10.841  1.3028 -0.8795 -0.1995
12284SOL    HW238294   5.688   4.914  10.922 -1.1489 -0.6538 -0.2751
12285SOL     OW38295   7.573   2.997   2.855  0.1419  0.5944 -0.6970
12285SOL    HW138296   7.569   3.042   2.771  0.3821 -0.0513 -1.0662
12285SOL    HW238297   7.667   2.981   2.869  0.0532  0.1455 -0.6143
12286SOL     OW38298   7.328   5.192   7.006 -0.0635  0.3206  0.3265
12286SOL    HW138299   7.301   5.123   7.067  0.7119 -1.1531 -0.9153
12286SOL    HW238300   7.263   5.190   6.936 -0.3027  1.2047  0.5085
12287SOL     OW38301   0.417   0.422   0.155  0.5378 -0.6540  0.7148
12287SOL    HW138302   0.356   0.488   0.189  1.0433  0.4041 -0.3744
12287SOL    HW238303   0.387   0.404   0.066  0.7159 -1.5384  0.8143
12288SOL     OW38304   5.995   3.417   9.079  0.4868  0.4812  0.0021
12288SOL    HW138305   5.942   3.378   9.009  0.1473 -1.2451  1.1545
12288SOL    HW238306   5.931   3.455   9.139  0.8141  2.9968 -1.1212
12289SOL     OW38307   6.480   5.646  12.114  0.9842 -0.0548  0.0056
12289SOL    HW138308   6.454   5.638  12.023  1.5728 -1.3486 -0.0602
12289SOL    HW238309   6.410   5.698  12.154 -1.3592 -2.7053 -0.3341
12290SOL     OW38310   0.909   3.439   3.705 -0.1532  0.1668  0.6297
12290SOL    HW138311   0.899   3.360   3.758  1.9194 -2.1341 -2.1050
12290SOL    HW238312   0.825   3.449   3.660 -0.3124 -0.7088  0.7229
12291SOL     OW38313   6.000   7.888  10.178  0.0414  0.0778 -0.7262
12291SOL    HW138314   6.016   7.951  10.108  0.0525  0.0930 -0.7097
12291SOL    HW238315   6.009   7.939  10.259  0.1336  0.0366 -0.7100
12292SOL     OW38316   1.356   0.703   1.612 -0.3364 -0.1466  0.2182
12292SOL    HW138317   1.435   0.753   1.592  0.0609 -0.7072  0.3715
12292SOL    HW238318   1.299   0.766   1.657  0.6849 -0.1622  1.5994
12293SOL     OW38319   5.882   2.175   8.649 -0.0898 -0.1330  0.7434
12293SOL    HW138320   5.866   2.268   8.635 -0.2722  0.3814  3.6834
12293SOL    HW238321   5.953   2.153   8.588 -0.7416  1.6246 -0.7413
12294SOL     OW38322   7.689   2.494   8.994  0.0255 -0.4779 -0.5321
12294SOL    HW138323   7.725   2.551   8.926  0.6201  1.6614  1.4292
12294SOL    HW238324   7.755   2.426   9.005  1.9025  1.3743  0.5241
12295SOL     OW38325   1.691   7.288  12.144  0.6059  0.0790  0.0606
12295SOL    HW138326   1.601   7.256  12.136  0.9948 -1.8841  2.3803
12295SOL    HW238327   1.684   7.383  12.135 -1.6116 -0.0792 -0.3546
12296SOL     OW38328   4.155   3.424   9.795  0.4049  0.0758  0.7046
12296SOL    HW138329   4.081   3.475   9.762  0.4184  0.1330  0.7608
12296SOL    HW238330   4.210   3.408   9.719  0.6387  0.5515  0.7713
12297SOL     OW38331   6.950   4.387   3.874 -0.3272  0.5705 -0.1100
12297SOL    HW138332   6.980   4.423   3.958  0.6108 -2.4025  0.9517
12297SOL    HW238333   7.031   4.364   3.828 -0.8262  2.2208 -1.9430
12298SOL     OW38334   0.489   5.047   5.241 -0.2962  0.3652 -0.2767
12298SOL    HW138335   0.434   4.978   5.278 -1.4462  0.5612 -1.5228
12298SOL    HW238336   0.442   5.074   5.162  0.7793  1.6987 -0.4854
12299SOL     OW38337   5.051   3.805   1.898 -0.1436 -0.2343  0.3290
12299SOL    HW138338   5.129   3.843   1.939  0.5279  0.6646 -1.6520
12299SOL    HW238339   5.084   3.732   1.847 -0.9849 -1.4131  1.4140
12300SOL     OW38340   7.352   2.583   2.587 -0.1551 -0.3264 -0.9467
12300SOL    HW138341   7.301   2.627   2.655  2.0723  0.9923  0.0035
12300SOL    HW238342   7.319   2.494   2.585 -1.9731  0.2771  0.0697
12301SOL     OW38343   2.623   2.542   2.668 -0.2242 -0.3258  0.8589
12301SOL    HW138344   2.549   2.554   2.729 -0.3461  0.0502  0.6401
12301SOL    HW238345   2.696   2.586   2.711 -0.5211  0.6944  0.3407
12302SOL     OW38346   4.282   3.925   7.654 -0.1003  0.1365 -0.0278
12302SOL    HW138347   4.206   3.877   7.620 -0.2157 -1.2829  2.0780
12302SOL    HW238348   4.309   3.981   7.581 -0.6596 -2.2734 -2.2453
12303SOL     OW38349   6.795   6.536   5.265 -0.4127 -0.3361 -0.2490
12303SOL    HW138350   6.834   6.583   5.192  0.3669  1.2434  1.1183
12303SOL    HW238351   6.718   6.588   5.289 -0.2735 -0.4524  0.4793
12304SOL     OW38352   6.851   7.512   7.678  0.4995 -0.5010  0.0349
12304SOL    HW138353   6.935   7.550   7.649  0.4262 -0.3085  0.0701
12304SOL    HW238354   6.818   7.465   7.601  1.3129 -1.7724  0.4374
12305SOL     OW38355   5.862   0.712   4.974  0.8619  0.2468 -0.5626
12305SOL    HW138356   5.846   0.787   5.031  1.1176  0.8338 -1.2428
12305SOL    HW238357   5.775   0.677   4.954  0.7546  0.2354 -0.0740
12306SOL     OW38358   0.310   6.606  11.335  0.3106 -0.1023  0.3058
12306SOL    HW138359   0.290   6.695  11.307  0.8930 -0.0536  0.0268
12306SOL    HW238360   0.330   6.559  11.254  2.4379  0.1478  0.6237
12307SOL     OW38361   3.019   3.550   9.116  0.3087  0.1442  0.0432
12307SOL    HW138362   2.983   3.639   9.114  1.3687  0.7086  2.3384
12307SOL    HW238363   2.950   3.497   9.155 -0.0452  0.1108 -0.6245
12308SOL     OW38364   6.233   5.417   1.343  0.4005 -0.5163  0.7677
12308SOL    HW138365   6.179   5.485   1.304  2.6887  0.7840 -0.3596
12308SOL    HW238366   6.227   5.343   1.283 -0.2585 -0.4563  0.7572
12309SOL     OW38367   6.604   7.368   4.395 -0.1983 -0.2648 -0.0391
12309SOL    HW138368   6.616   7.455   4.356  0.0580  0.3247  1.2928
12309SOL    HW238369   6.517   7.371   4.435 -0.7580 -1.1103 -1.1441
12310SOL     OW38370   7.451   4.063  12.240  0.2871 -0.1666  0.5823
12310SOL    HW138371   7.414   4.146  12.271  1.6784 -0.4464  3.3260
12310SOL    HW238372   7.392   4.035  12.170 -0.5758  2.7962 -0.0189
12311SOL     OW38373   4.491   2.076   9.136 -0.1447  0.1106 -0.0667
12311SOL    HW138374   4.580   2.100   9.114 -0.7836  0.7455 -2.2044
12311SOL    HW238375   4.444   2.159   9.145 -0.8360 -0.2181 -0.4882
12312SOL     OW38376   7.544   4.261   4.941 -0.3632 -0.5055  0.3782
12312SOL    HW138377   7.470   4.320   4.950 -0.6240 -0.9360  1.1070
12312SOL    HW238378   7.509   4.174   4.964  0.4164 -0.6740  0.9821
12313SOL     OW38379   3.492   0.738   5.825 -0.1262  0.0530  0.0624
12313SOL    HW138380   3.576   0.777   5.803  0.0748 -0.2447  0.2926
12313SOL    HW238381   3.435   0.813   5.844  0.4497  0.2260  1.1972
12314SOL     OW38382   7.438   4.293  11.611  0.0347 -0.6172 -0.1687
12314SOL    HW138383   7.523   4.322  11.646 -0.3627  0.1619  0.1871
12314SOL    HW238384   7.405   4.232  11.676 -0.6034  0.6620  0.7656
12315SOL     OW38385   7.659   0.008  11.276 -0.4658  0.0001 -0.1656
12315SOL    HW138386   7.682   0.076  11.212  0.5209  0.2202  0.3903
12315SOL    HW238387   7.665   0.053  11.361 -2.1418 -0.1796  0.0838
12316SOL     OW38388   1.561   0.881  11.121 -0.5442 -0.1511 -0.4154
12316SOL    HW138389   1.563   0.827  11.200  1.1749  0.5054  0.0406
12316SOL    HW238390   1.494   0.947  11.139  0.5933  0.6829  1.0263
12317SOL     OW38391   1.709   0.084   3.409  0.1976 -0.1613 -0.0619
12317SOL    HW138392   1.618   0.090   3.379 -0.5852 -1.0257  1.9745
12317SOL    HW238393   1.707   0.019   3.479  2.5824 -0.8719 -0.5713
12318SOL     OW38394   7.771   4.235   7.728 -0.1716 -0.2883  0.3211
12318SOL    HW138395   7.694   4.212   7.781 -0.7673 -0.6248 -0.6549
12318SOL    HW238396   7.799   4.320   7.761 -0.6387 -0.4104  1.0487
12319SOL     OW38397   3.229   5.514   7.115 -0.5575 -0.8720  0.3460
12319SOL    HW138398   3.136   5.489   7.115 -0.5260 -1.6537  4.0984
12319SOL    HW238399   3.275   5.436   7.146  1.1562  0.0501  0.2647
12320SOL     OW38400   6.329   4.029   6.098  0.3309  0.0185  0.6707
12320SOL    HW138401   6.270   4.091   6.056  0.7763  1.2687  1.8219
12320SOL    HW238402   6.273   3.955   6.123 -0.1973 -0.0850 -0.7337
12321SOL     OW38403   7.741   4.852  10.893 -0.1331 -0.0750 -0.4612
12321SOL    HW138404   7.677   4.782  10.878 -0.4598 -0.4772  2.2793
12321SOL    HW238405   7.711   4.925  10.839 -0.7897 -1.4372 -2.0251
12322SOL     OW38406   4.338   3.722  10.219 -0.6156  0.1854 -0.1198
12322SOL    HW138407   4.307   3.708  10.129  0.4374 -0.7270 -0.3601
12322SOL    HW238408   4.356   3.815  10.224  2.1431 -0.1439 -1.8296
12323SOL     OW38409   5.602   3.262  10.063 -0.5604 -0.0723  0.1851
12323SOL    HW138410   5.678   3.209  10.087  1.5501  1.9630 -1.5329
12323SOL    HW238411   5.583   3.314  10.142 -0.3577 -0.7420  0.6904
12324SOL     OW38412   6.123   6.797   7.820 -0.1044  0.0796  0.1004
12324SOL    HW138413   6.050   6.854   7.843  0.9098  1.1353  0.8478
12324SOL    HW238414   6.142   6.816   7.728  0.1790  0.9262  0.3231
12325SOL     OW38415   4.195   7.471  10.560 -0.2615  0.0439 -0.1129
12325SOL    HW138416   4.276   7.492  10.605  0.7952  0.8397 -2.2401
12325SOL    HW238417   4.194   7.375  10.554 -0.5472 -0.0969  1.6933
12326SOL     OW38418   3.996   7.927  11.783 -0.1348 -0.4235 -1.0958
12326SOL    HW138419   3.906   7.958  11.794  0.0967  0.0410 -0.4121
12326SOL    HW238420   4.050   8.001  11.812  0.4471 -1.7857  1.6391
12327SOL     OW38421   0.634   6.909   5.684 -0.0136 -0.5210  0.2804
12327SOL    HW138422   0.545   6.943   5.670 -0.0723  0.1425  1.9674
12327SOL    HW238423   0.622   6.837   5.746  0.4971 -1.2702 -0.4896
12328SOL     OW38424   6.651   0.145   0.439 -0.2600 -0.2245 -0.0438
12328SOL    HW138425   6.726   0.180   0.392 -0.2723  0.3874  0.3812
12328SOL    HW238426   6.649   0.052   0.416 -0.4433  0.1108 -1.4841
12329SOL     OW38427   7.523   2.309  11.562 -0.2157 -0.3556 -0.3260
12329SOL    HW138428   7.501   2.400  11.583  1.4570 -0.1416  0.7306
12329SOL    HW238429   7.600   2.315  11.505 -0.2646 -1.1030 -0.4799
12330SOL     OW38430   0.602   4.735   0.757  0.6142  0.0999  0.5450
12330SOL    HW138431   0.652   4.714   0.836 -2.0667 -0.4665  2.2092
12330SOL    HW238432   0.601   4.654   0.707 -1.6827 -1.1022  2.3490
12331SOL     OW38433   6.251   0.451   9.191 -0.4469  0.4535  0.2728
12331SOL    HW138434   6.261   0.389   9.263 -0.5292 -1.0817 -0.9883
12331SOL    HW238435   6.337   0.489   9.180 -0.6694  1.4884  1.8311
12332SOL     OW38436   6.911   1.690   5.131 -0.1457 -0.0118  0.1275
12332SOL    HW138437   6.886   1.610   5.177  0.4041 -0.3716 -0.1927
12332SOL    HW238438   6.854   1.758   5.168 -0.7790 -0.5908  0.2304
12333SOL     OW38439   2.628   2.035   9.228  0.4071 -0.5571  0.2450
12333SOL    HW138440   2.668   1.960   9.185  1.2841  0.2568 -0.3927
12333SOL    HW238441   2.681   2.049   9.307  0.0164 -0.8282  0.5597
12334SOL     OW38442   4.644   0.349   6.064  0.4233  0.5333  0.8740
12334SOL    HW138443   4.631   0.443   6.078  0.4553  0.8045 -0.7747
12334SOL    HW238444   4.725   0.343   6.013 -0.0543 -0.3245  0.1944
12335SOL     OW38445   7.427   6.149   5.422 -0.0200  0.5354  0.2336
12335SOL    HW138446   7.498   6.202   5.386  0.0451  0.2913  0.0031
12335SOL    HW238447   7.442   6.061   5.387 -0.4447  0.4849  0.1735
12336SOL     OW38448   2.721   5.310   4.137  0.7064 -0.2098  0.1783
12336SOL    HW138449   2.755   5.305   4.226  1.5947 -1.2212 -0.1914
12336SOL    HW238450   2.755   5.232   4.094  0.6093  0.4478 -1.1545
12337SOL     OW38451   1.860   7.732   9.329  0.5365 -0.2751  0.1315
12337SOL    HW138452   1.785   7.790   9.312  0.4115 -0.5538 -0.2623
12337SOL    HW238453   1.913   7.781   9.391 -0.8615 -0.8073  1.8332
12338SOL     OW38454   3.613   2.392   5.709 -0.0247  0.6359  0.1812
12338SOL    HW138455   3.609   2.316   5.652 -0.4772  0.9256 -0.1763
12338SOL    HW238456   3.556   2.457   5.668  0.0600  1.0362  0.6781
12339SOL     OW38457   1.772   4.124  10.684  0.1053 -0.1639  0.0797
12339SOL    HW138458   1.753   4.148  10.774 -0.0717  0.6313 -0.1577
12339SOL    HW238459   1.829   4.195  10.652  0.2664 -0.4992 -0.3889
12340SOL     OW38460   4.661   0.458   2.800 -0.1904 -0.1812 -0.2651
12340SOL    HW138461   4.611   0.381   2.829  1.0456 -1.2197 -0.8144
12340SOL    HW238462   4.594   0.522   2.777 -1.2654 -0.1190  2.6332
12341SOL     OW38463   3.911   3.678   1.205  0.3841 -0.0754  0.2559
12341SOL    HW138464   3.914   3.671   1.300  0.6064  1.9221  0.4413
12341SOL    HW238465   3.841   3.741   1.188 -0.5239 -1.3536 -1.0021
12342SOL     OW38466   1.206   2.548   6.927 -0.0636  0.1211  0.8661
12342SOL    HW138467   1.200   2.466   6.976 -0.5648  0.3174  1.1486
12342SOL    HW238468   1.241   2.611   6.990  1.0759 -0.0458  0.4238
12343SOL     OW38469   6.610   1.889   5.641 -0.2526  0.0196 -0.1239
12343SOL    HW138470   6.668   1.830   5.592 -1.1991 -0.2479 -0.9329
12343SOL    HW238471   6.577   1.835   5.713 -0.4880 -0.2117 -0.4006
12344SOL     OW38472   6.168   0.770   8.180  0.0109  0.3744  0.2143
12344SOL    HW138473   6.194   0.758   8.271  3.1196  1.8362 -0.3372
12344SOL    HW238474   6.184   0.863   8.163  1.5603 -0.2599 -2.3192
12345SOL     OW38475   0.922   0.871   1.652  0.7265  0.3116  0.3369
12345SOL    HW138476   0.832   0.847   1.676  0.8185 -0.5460 -0.1288
12345SOL    HW238477   0.943   0.812   1.580  1.6781  0.5022  0.4559
12346SOL     OW38478   5.007   3.803   6.521 -0.3121  0.2166  0.4851
12346SOL    HW138479   5.057   3.884   6.532 -0.8204  0.4398  1.2569
12346SOL    HW238480   5.070   3.740   6.484  0.2829  0.7485  0.5812
12347SOL     OW38481   6.906   1.820   9.772 -0.3884  0.3445 -0.1649
12347SOL    HW138482   6.956   1.859   9.844  0.7050  1.1980 -1.3415
12347SOL    HW238483   6.972   1.776   9.718 -1.1255  0.1125 -0.8985
12348SOL     OW38484   7.617   1.903  11.986 -0.6674  0.0274  0.0924
12348SOL    HW138485   7.600   1.972  12.051 -0.3024  0.4333 -0.2359
12348SOL    HW238486   7.542   1.844  11.994 -0.7429  0.1998  0.7202
12349SOL     OW38487   5.916   7.311   4.972 -0.5228 -0.0179  0.0817
12349SOL    HW138488   5.923   7.229   5.021 -0.9928 -0.9162 -1.2698
12349SOL    HW238489   5.894   7.377   5.037 -3.8287 -1.6122  0.7725
12350SOL     OW38490   0.538   1.417   6.191  1.4428  0.4726  0.3843
12350SOL    HW138491   0.571   1.484   6.131  2.3560  0.5741  0.9710
12350SOL    HW238492   0.574   1.335   6.158  0.9307  0.3621  0.0914
12351SOL     OW38493   5.179   1.070  11.994  0.4787  0.2266  0.1742
12351SOL    HW138494   5.253   1.028  11.950  0.4545  0.1989  0.1600
12351SOL    HW238495   5.102   1.025  11.960  0.4421  0.3929  0.0314
12352SOL     OW38496   5.051   6.970  10.629 -0.0453 -0.4006  0.4399
12352SOL    HW138497   5.044   6.957  10.535  2.3409 -0.2369  0.1766
12352SOL    HW238498   5.106   6.897  10.659  0.1604  0.1763  1.5128
12353SOL     OW38499   7.232   7.743   2.176  0.5045  0.4793 -0.0571
12353SOL    HW138500   7.167   7.809   2.201 -1.6508 -1.8066  0.8500
12353SOL    HW238501   7.271   7.715   2.259  1.9396  1.0616 -0.4990
12354SOL     OW38502   4.658   0.094   7.954 -0.0442 -0.2351 -0.0128
12354SOL    HW138503   4.638   0.058   8.041 -0.4219 -0.0801 -0.0340
12354SOL    HW238504   4.750   0.072   7.940  0.5096  1.2047  1.1547
12355SOL     OW38505   1.826   7.885   8.150 -0.1878  0.2439 -0.8080
12355SOL    HW138506   1.876   7.916   8.074 -0.7164  2.1082 -0.4590
12355SOL    HW238507   1.737   7.876   8.117 -0.0432 -0.9549 -0.8970
12356SOL     OW38508   6.093   4.354   3.620  0.0578  0.3907  0.0967
12356SOL    HW138509   6.152   4.287   3.586  1.1798  1.5480 -0.3429
12356SOL    HW238510   6.040   4.309   3.685  0.3233 -1.0585 -0.6612
12357SOL     OW38511   5.601   1.044   1.022 -0.2025  0.3484 -0.4367
12357SOL    HW138512   5.593   1.076   1.112  0.9374 -1.8746  0.5384
12357SOL    HW238513   5.538   0.972   1.017  1.3273 -1.0517 -0.6169
12358SOL     OW38514   0.385   1.040   8.707 -0.2556  0.1293 -0.1732
12358SOL    HW138515   0.415   1.007   8.792 -1.2676 -0.3450  0.0112
12358SOL    HW238516   0.341   0.965   8.667 -0.7061  0.6531 -0.6678
12359SOL     OW38517   4.276   3.278   4.951 -0.6746  0.1008  0.5533
12359SOL    HW138518   4.209   3.257   4.886 -0.9644 -0.8855  1.1458
12359SOL    HW238519   4.228   3.286   5.034 -0.1560  0.0787  0.8641
12360SOL     OW38520   6.177   0.365   8.940  0.5840 -0.1802  0.0550
12360SOL    HW138521   6.082   0.372   8.929  0.7809  1.2735 -0.9515
12360SOL    HW238522   6.193   0.403   9.027  0.1757 -1.3700  0.6837
12361SOL     OW38523   4.479   3.038  10.406  0.6455 -0.2055  0.1335
12361SOL    HW138524   4.444   3.114  10.360  0.3832 -0.4312 -0.0470
12361SOL    HW238525   4.547   3.073  10.463  1.9730 -0.0824 -1.4682
12362SOL     OW38526   4.660   2.696   1.730 -0.1564 -0.3185  0.6453
12362SOL    HW138527   4.634   2.783   1.759 -1.6460 -0.9108  1.1961
12362SOL    HW238528   4.700   2.655   1.806 -1.4517 -0.8561  1.0727
12363SOL     OW38529   3.533   4.550   2.522  0.2875 -0.1838  0.1750
12363SOL    HW138530   3.553   4.609   2.450 -0.6357 -0.0556  0.0112
12363SOL    HW238531   3.437   4.540   2.519  0.2945 -0.6015  1.0421
12364SOL     OW38532   0.133   6.478   5.898  0.2909 -0.1908 -0.5290
12364SOL    HW138533   0.146   6.561   5.854  1.0449 -0.2042 -0.3485
12364SOL    HW238534   0.046   6.485   5.938 -0.0281  0.1503 -1.2662
12365SOL     OW38535   5.025   1.596   8.287  0.2623 -0.2371 -0.0356
12365SOL    HW138536   4.948   1.569   8.238  0.6725 -2.9710  0.6546
12365SOL    HW238537   5.098   1.551   8.243  1.5222  2.2476 -0.6533
12366SOL     OW38538   2.808   6.674   2.247 -0.5051 -0.4481 -0.3247
12366SOL    HW138539   2.861   6.595   2.262  1.2942  0.8242  0.3367
12366SOL    HW238540   2.837   6.706   2.162 -0.0101  0.4012  0.1569
12367SOL     OW38541   6.813   4.452   4.527  0.1140 -0.4594  0.0597
12367SOL    HW138542   6.736   4.509   4.525  0.3222 -0.1706 -1.6533
12367SOL    HW238543   6.783   4.372   4.569 -0.7389  0.1610  0.6642
12368SOL     OW38544   6.441   4.570   8.313  0.0142 -0.9014  0.2462
12368SOL    HW138545   6.503   4.497   8.320  0.7243 -0.3241  0.0783
12368SOL    HW238546   6.454   4.619   8.394  1.2195  0.3239 -0.6442
12369SOL     OW38547   3.093   3.699   0.252 -0.2062 -0.5547 -0.0594
12369SOL    HW138548   3.048   3.756   0.190 -0.9048  2.0885  2.6662
12369SOL    HW238549   3.023   3.643   0.287 -0.9159  1.4366  1.9138
12370SOL     OW38550   4.519   5.808  11.465 -0.2417  0.0678 -0.1215
12370SOL    HW138551   4.503   5.714  11.454 -0.9099  0.2772 -1.0342
12370SOL    HW238552   4.607   5.813  11.501 -0.2368 -0.9136  0.0330
12371SOL     OW38553   7.191   4.049   7.757 -0.1595  0.0712  0.1666
12371SOL    HW138554   7.277   4.089   7.742 -1.2369  2.7467  0.4804
12371SOL    HW238555   7.195   3.964   7.714  1.5351  1.5052 -2.8169
12372SOL     OW38556   3.834   7.210  10.412  1.0202  0.2438 -0.0159
12372SOL    HW138557   3.905   7.184  10.471  1.4000  1.8429  0.2638
12372SOL    HW238558   3.850   7.160  10.331  2.5021  0.6389  0.0172
12373SOL     OW38559   2.562   2.304   4.377 -0.6653  0.3033 -0.6355
12373SOL    HW138560   2.518   2.351   4.306 -0.7316 -1.7360 -2.0352
12373SOL    HW238561   2.654   2.328   4.367 -0.7577  0.5185 -1.0148
12374SOL     OW38562   3.786   5.292   4.118 -0.2480  0.2566 -0.3038
12374SOL    HW138563   3.794   5.199   4.139 -0.2332  0.3175 -0.0359
12374SOL    HW238564   3.695   5.303   4.091 -0.5240  0.3487  0.6129
12375SOL     OW38565   7.093   4.498   8.906 -0.6750  0.2456  0.0181
12375SOL    HW138566   7.177   4.499   8.950 -0.7434 -0.0170  0.1514
12375SOL    HW238567   7.045   4.426   8.946 -0.4126 -0.5718 -1.0921
12376SOL     OW38568   4.663   2.338   0.511  0.7045 -0.6485  0.1689
12376SOL    HW138569   4.636   2.259   0.463 -0.8179  0.3650 -0.7174
12376SOL    HW238570   4.599   2.346   0.582 -1.2472  1.5454 -1.6949
12377SOL     OW38571   0.940   5.449   7.606  0.0687  0.1273 -0.1884
12377SOL    HW138572   0.984   5.400   7.675  0.1851  0.5552  0.0411
12377SOL    HW238573   0.933   5.386   7.534 -0.3395 -0.4227  0.3162
12378SOL     OW38574   1.440   7.517   6.125 -0.4002 -0.7087 -0.1400
12378SOL    HW138575   1.428   7.553   6.212  1.1343  2.2964 -1.0638
12378SOL    HW238576   1.469   7.427   6.140  0.2244 -0.1417  2.4434
12379SOL     OW38577   6.633   7.475   3.109  0.2455 -0.1638 -0.0545
12379SOL    HW138578   6.694   7.451   3.179  0.1047  0.9232  0.4708
12379SOL    HW238579   6.567   7.406   3.110  1.3841 -1.2953 -0.5542
12380SOL     OW38580   4.127   3.001   6.741  0.1757  0.0413 -0.8341
12380SOL    HW138581   4.179   2.921   6.745 -1.3334 -0.9443  0.0631
12380SOL    HW238582   4.098   3.016   6.831  0.2205  1.4721 -1.0302
12381SOL     OW38583   1.886   2.932   7.181  0.0593  0.3923  0.5381
12381SOL    HW138584   1.851   2.844   7.166  0.4287 -0.0797  2.2266
12381SOL    HW238585   1.913   2.931   7.273  0.7884  2.0300  0.3645
12382SOL     OW38586   0.175   1.462   6.884 -0.0211  0.2453  0.2036
12382SOL    HW138587   0.187   1.442   6.792 -0.3513  0.1763  0.1743
12382SOL    HW238588   0.112   1.535   6.885 -0.1699  0.1151  0.3802
12383SOL     OW38589   7.166   7.924   0.849  0.4466 -0.1588  0.5625
12383SOL    HW138590   7.146   7.853   0.910  1.9633  0.1842  1.5031
12383SOL    HW238591   7.091   7.984   0.856  0.8538  0.1727  2.5681
12384SOL     OW38592   1.534   2.593   8.097 -0.1212  0.0572  0.0454
12384SOL    HW138593   1.536   2.498   8.087 -1.7827 -0.3314  2.5933
12384SOL    HW238594   1.593   2.610   8.170 -0.4531  0.8827  0.1289
12385SOL     OW38595   0.205   5.289  11.170  0.1604 -0.4715  0.2006
12385SOL    HW138596   0.130   5.268  11.225  1.1422  0.1072  1.8059
12385SOL    HW238597   0.274   5.315  11.231  1.4522 -0.2900 -1.2714
12386SOL     OW38598   0.976   1.585   0.780 -0.6550 -0.1570  0.2772
12386SOL    HW138599   1.005   1.497   0.804  0.1744 -0.1117 -0.4859
12386SOL    HW238600   1.047   1.619   0.724 -1.4460  0.5916 -0.2986
12387SOL     OW38601   2.402   3.723  12.029  0.1062  0.4421  0.2740
12387SOL    HW138602   2.359   3.721  12.114  1.2342  2.9356  1.0068
12387SOL    HW238603   2.348   3.781  11.976 -0.3331 -0.7277 -0.5980
12388SOL     OW38604   6.371   3.693   5.519 -0.2841 -0.2332  0.1903
12388SOL    HW138605   6.454   3.650   5.499 -0.0892 -0.5760  1.6140
12388SOL    HW238606   6.336   3.718   5.434  1.5255  0.3940 -0.4252
12389SOL     OW38607   2.883   1.516   3.584  0.0294 -0.5887  0.6245
12389SOL    HW138608   2.908   1.594   3.632 -0.0523 -0.7711  0.9637
12389SOL    HW238609   2.795   1.495   3.615 -0.1987 -0.4570  0.0815
12390SOL     OW38610   0.863   1.118   0.765  0.3299 -0.2961 -0.0872
12390SOL    HW138611   0.907   1.035   0.783 -1.7335 -1.3789  0.2691
12390SOL    HW238612   0.928   1.185   0.790  1.2469 -1.7726  1.8018
12391SOL     OW38613   3.947   1.920   0.063 -0.7657  0.0119  0.6042
12391SOL    HW138614   3.996   2.003   0.066 -1.1648  0.2237  1.9898
12391SOL    HW238615   4.010   1.856   0.029 -0.0536  0.6215  0.7481
12392SOL     OW38616   1.544   6.602   1.911 -0.0677  0.3355  0.4145
12392SOL    HW138617   1.629   6.565   1.933  0.7199  0.6757 -1.8369
12392SOL    HW238618   1.481   6.536   1.940  1.0380 -0.6565  0.6385
12393SOL     OW38619   1.890   6.383   2.763 -0.3279  0.6762 -0.2445
12393SOL    HW138620   1.821   6.409   2.702 -1.6906  1.0310  1.3749
12393SOL    HW238621   1.884   6.447   2.834 -0.8612 -1.4359  1.7301
12394SOL     OW38622   1.307   1.296  10.694  0.0888  0.4267 -0.7755
12394SOL    HW138623   1.265   1.248  10.623  2.2876 -1.4117 -0.9737
12394SOL    HW238624   1.256   1.274  10.772 -0.2865 -0.4137 -1.2416
12395SOL     OW38625   6.882   5.442   4.357 -0.5180  0.1938 -0.6785
12395SOL    HW138626   6.832   5.518   4.389  0.5344 -0.1738  2.1673
12395SOL    HW238627   6.973   5.462   4.380  0.3711 -0.2525 -3.4875
12396SOL     OW38628   6.921   1.375   5.954  0.3364 -0.3355 -0.7159
12396SOL    HW138629   7.013   1.386   5.978  0.4142 -1.1298 -0.6330
12396SOL    HW238630   6.914   1.284   5.925  0.4586  0.7212 -4.6390
12397SOL     OW38631   7.363   3.726  11.965 -0.6838 -0.1414 -0.1364
12397SOL    HW138632   7.406   3.676  12.035  2.4032  1.2354 -0.8447
12397SOL    HW238633   7.352   3.663  11.894 -0.0714 -0.6449  0.1990
12398SOL     OW38634   7.892   4.155   1.650 -0.1905 -0.2382  0.5705
12398SOL    HW138635   7.892   4.138   1.556  0.1053  2.1457  0.0759
12398SOL    HW238636   7.823   4.221   1.663  0.5711  0.3710  1.8094
12399SOL     OW38637   2.474   4.949  10.583  0.2796  0.4733  0.0417
12399SOL    HW138638   2.455   5.041  10.560 -2.2811  0.1253  0.4659
12399SOL    HW238639   2.506   4.911  10.501  0.8306  1.6056 -0.2961
12400SOL     OW38640   3.556   4.395   8.178  0.0362  0.7452 -0.4253
12400SOL    HW138641   3.477   4.445   8.200  0.5158  1.9554 -1.4013
12400SOL    HW238642   3.615   4.410   8.252 -0.4015  0.3152  0.0257
12401SOL     OW38643   2.436   5.008   8.489  0.7117  0.2604  0.2243
12401SOL    HW138644   2.409   5.003   8.398 -1.7669 -0.5073  0.9471
12401SOL    HW238645   2.490   5.087   8.493 -0.0145  0.9133 -1.6828
12402SOL     OW38646   0.320   1.559  11.937 -0.2292 -0.2057 -0.7033
12402SOL    HW138647   0.304   1.604  11.854  0.3879 -1.0890 -1.3132
12402SOL    HW238648   0.257   1.487  11.938 -2.6326  1.7199  1.1857
12403SOL     OW38649   7.623   6.494  11.431 -0.1062  0.1259 -0.4519
12403SOL    HW138650   7.535   6.471  11.400  0.1668 -0.4661 -0.8067
12403SOL    HW238651   7.609   6.569  11.489 -1.1381 -1.4258  1.4472
12404SOL     OW38652   7.608   4.986   4.015  0.3620 -0.1673  0.1391
12404SOL    HW138653   7.523   4.985   4.060 -0.2520  1.2920 -0.9060
12404SOL    HW238654   7.601   4.914   3.951  0.3820 -0.8069  0.8416
12405SOL     OW38655   2.905   0.122   0.895 -0.1639  0.2452  0.0700
12405SOL    HW138656   2.922   0.114   0.801  1.2285  0.1346  0.3047
12405SOL    HW238657   2.814   0.095   0.906  0.1491 -1.3562 -1.0352
12406SOL     OW38658   6.773   3.530  11.325 -0.4782  0.1151 -0.2459
12406SOL    HW138659   6.741   3.586  11.254  1.2309  1.8003  0.2321
12406SOL    HW238660   6.697   3.480  11.352 -1.6144  0.7754 -2.0283
12407SOL     OW38661   3.920   5.083   2.403  0.0930  0.2968  0.2965
12407SOL    HW138662   3.884   5.150   2.345  0.7731 -0.0844 -0.6029
12407SOL    HW238663   3.882   5.101   2.489 -0.5661  1.1695 -0.1708
12408SOL     OW38664   1.759   1.840  10.013  0.3943 -0.2600  0.5275
12408SOL    HW138665   1.830   1.872  10.069 -0.3547  0.3241  1.1587
12408SOL    HW238666   1.780   1.876   9.926  0.9350 -0.2004  0.6790
12409SOL     OW38667   2.522   1.485  12.103  0.5043  0.0110  0.0460
12409SOL    HW138668   2.616   1.500  12.099  0.1593  3.4951  1.4628
12409SOL    HW238669   2.485   1.551  12.045 -1.1060  0.1289  1.1460
12410SOL     OW38670   1.641   5.145  10.659  0.0411 -0.1413 -0.1399
12410SOL    HW138671   1.567   5.160  10.600 -0.6052 -0.0368  0.6766
12410SOL    HW238672   1.717   5.141  10.601 -0.7272 -1.4439 -1.1396
12411SOL     OW38673   3.868   2.071   4.472  0.1288 -0.4660 -0.1112
12411SOL    HW138674   3.864   2.023   4.555  1.3265 -0.7999 -0.2300
12411SOL    HW238675   3.838   2.009   4.406  2.1673 -1.2741 -0.3374
12412SOL     OW38676   6.707   1.744   0.245 -0.3514  0.3459  0.0370
12412SOL    HW138677   6.611   1.737   0.244 -0.3964  1.0029 -0.5541
12412SOL    HW238678   6.732   1.702   0.327 -1.0118 -1.4237 -0.6146
12413SOL     OW38679   1.618   2.841   3.280 -0.5219  0.2541 -0.0737
12413SOL    HW138680   1.637   2.909   3.345 -0.5547  1.5041 -1.3257
12413SOL    HW238681   1.541   2.873   3.233 -1.1875 -1.1654 -0.0200
12414SOL     OW38682   3.651   6.828   7.377  0.5959 -0.2140 -0.3238
12414SOL    HW138683   3.717   6.783   7.325  1.4353  0.5944  0.0219
12414SOL    HW238684   3.700   6.885   7.436 -0.4046  1.3720 -0.9341
12415SOL     OW38685   2.918   0.882   5.094  0.2484 -0.0062 -0.6266
12415SOL    HW138686   2.918   0.817   5.164 -1.3573 -0.0310 -0.6099
12415SOL    HW238687   2.923   0.831   5.013 -3.4598 -0.4620 -0.7521
12416SOL     OW38688   6.594   1.651   7.512  0.7264 -0.3910 -0.0751
12416SOL    HW138689   6.654   1.577   7.518  1.8337  0.5080  0.3027
12416SOL    HW238690   6.537   1.641   7.588 -0.6575 -2.0881 -1.2429
12417SOL     OW38691   4.790   3.922   4.222  0.1064  0.0183  0.5409
12417SOL    HW138692   4.858   3.974   4.264  0.8102 -0.3031 -0.1783
12417SOL    HW238693   4.712   3.939   4.274  0.1499  2.2536  0.0103
12418SOL     OW38694   7.909   6.190  10.959  0.1953  0.0918 -0.2360
12418SOL    HW138695   7.887   6.099  10.940 -2.0387  0.9725 -2.5050
12418SOL    HW238696   7.867   6.208  11.043 -1.9175 -0.2263 -1.1665
12419SOL     OW38697   3.833   0.455   7.404  0.5386 -0.4535 -0.1091
12419SOL    HW138698   3.831   0.363   7.429 -0.9619 -1.2187 -2.6714
12419SOL    HW238699   3.750   0.491   7.436  0.2931 -0.4806 -0.7074
12420SOL     OW38700   6.659   7.411  12.107 -0.3560  0.0950 -0.3388
12420SOL    HW138701   6.688   7.418  12.016  0.0578  1.2740 -0.1331
12420SOL    HW238702   6.736   7.435  12.158 -0.3793 -1.2353  0.3627
12421SOL     OW38703   6.758   5.663   6.597  0.3320 -0.0634  0.0648
12421SOL    HW138704   6.753   5.582   6.545  1.9563 -1.0551  1.3545
12421SOL    HW238705   6.667   5.684   6.616 -0.1532 -2.7994  1.3944
12422SOL     OW38706   4.852   2.534  10.171 -0.2268  0.0062 -0.3035
12422SOL    HW138707   4.762   2.502  10.176 -0.0291 -0.8730 -1.8862
12422SOL    HW238708   4.843   2.628  10.152 -0.8176 -0.1284 -0.7189
12423SOL     OW38709   1.000   4.928   5.776 -0.4064  0.2345 -0.4267
12423SOL    HW138710   1.082   4.894   5.812 -0.4837  0.4227 -0.0728
12423SOL    HW238711   0.946   4.947   5.852 -0.2423  1.4722 -0.5918
12424SOL     OW38712   1.174   1.358   8.078 -0.5153  0.0329 -0.1714
12424SOL    HW138713   1.176   1.423   8.008  2.1843  0.9311  0.6055
12424SOL    HW238714   1.118   1.397   8.146  1.6171  2.0470  0.5905
12425SOL     OW38715   1.826   6.755   0.422 -0.2543  0.4582  0.7290
12425SOL    HW138716   1.882   6.723   0.351 -1.2484 -1.0408  0.5817
12425SOL    HW238717   1.867   6.720   0.502 -0.6044 -0.0726  0.6765
12426SOL     OW38718   2.099   6.841   3.920 -0.2623 -0.1075 -0.5917
12426SOL    HW138719   2.048   6.898   3.861 -1.7086 -1.3302 -0.5973
12426SOL    HW238720   2.183   6.830   3.876 -0.0333  1.7958 -0.7082
12427SOL     OW38721   1.473   3.918  11.618  0.2458 -0.3960 -0.0587
12427SOL    HW138722   1.429   3.917  11.533 -0.9549  0.2498  0.5396
12427SOL    HW238723   1.411   3.877  11.678  0.5179  0.3734  0.7669
12428SOL     OW38724   3.636   4.636   4.261 -0.3463  0.3962  0.0686
12428SOL    HW138725   3.620   4.581   4.184  0.9783  0.2778 -0.1525
12428SOL    HW238726   3.582   4.714   4.246  0.3183  0.6362 -1.3001
12429SOL     OW38727   6.222   5.790   3.423  0.2121 -0.1195 -0.3196
12429SOL    HW138728   6.131   5.765   3.441 -0.1755  1.9615  0.9631
12429SOL    HW238729   6.265   5.788   3.509  1.4157 -1.1496 -0.9249
12430SOL     OW38730   5.195   5.516   8.673 -0.0614  0.1923  0.0958
12430SOL    HW138731   5.212   5.423   8.688  0.6050  0.5605  1.8042
12430SOL    HW238732   5.114   5.534   8.721  0.1910  0.6480  0.3572
12431SOL     OW38733   0.645   2.697   9.626 -0.5998  0.2240 -0.1451
12431SOL    HW138734   0.728   2.658   9.600  0.0801  1.0714  0.6890
12431SOL    HW238735   0.657   2.721   9.717 -2.5755 -1.7631  0.7220
12432SOL     OW38736   1.917   0.880   0.480  0.3448 -0.2449  0.5803
12432SOL    HW138737   1.932   0.864   0.573 -0.9623 -1.3677  0.6283
12432SOL    HW238738   1.895   0.794   0.444 -2.0724  0.6026 -0.1602
12433SOL     OW38739   0.790   6.907   9.616 -0.1934 -0.0363  0.8998
12433SOL    HW138740   0.778   6.905   9.711  0.3728 -0.3142  0.9657
12433SOL    HW238741   0.868   6.961   9.603 -1.6076  2.0145  0.4526
12434SOL     OW38742   0.454   0.638   5.148  0.2586 -0.2664 -0.0431
12434SOL    HW138743   0.541   0.637   5.188  0.3928  2.3094 -0.1491
12434SOL    HW238744   0.468   0.679   5.063 -1.3046  2.0078  0.7136
12435SOL     OW38745   4.850   3.863  11.066  0.3775  0.2241  0.1852
12435SOL    HW138746   4.904   3.920  11.011 -0.5854  2.0581  1.0416
12435SOL    HW238747   4.899   3.855  11.148  0.1917  0.4187  0.3178
12436SOL     OW38748   2.085   2.523   2.563  0.0400  0.1688 -0.1078
12436SOL    HW138749   2.112   2.580   2.635 -1.6811 -1.9562  2.4329
12436SOL    HW238750   2.006   2.479   2.597 -1.0448 -0.7228 -3.4662
12437SOL     OW38751   6.912   5.490  11.459  0.5413  0.4215 -0.2322
12437SOL    HW138752   6.839   5.551  11.451 -0.1645 -0.3219  0.3529
12437SOL    HW238753   6.989   5.546  11.469  0.0431  1.2149 -0.7409
12438SOL     OW38754   0.021   5.129   8.044 -0.0358  0.1383  0.5589
12438SOL    HW138755   0.088   5.069   8.011  0.9344  1.4602  0.0085
12438SOL    HW238756  -0.061   5.097   8.007 -0.0101 -2.4398  2.4785
12439SOL     OW38757   2.966   2.803   3.522 -0.3367 -0.3070 -0.3082
12439SOL    HW138758   2.919   2.879   3.556  1.8516  0.7082  0.6129
12439SOL    HW238759   2.952   2.734   3.587 -1.3380 -0.3459 -0.5481
12440SOL     OW38760   3.216   2.884  10.864 -0.1602 -0.2609  0.4505
12440SOL    HW138761   3.197   2.958  10.921 -5.1364 -0.9934  0.1482
12440SOL    HW238762   3.224   2.922  10.777  0.9208  0.2126  0.7421
12441SOL     OW38763   2.118   0.510   1.457  0.3297 -0.4619  0.3815
12441SOL    HW138764   2.077   0.432   1.494  0.4590  0.0947  1.7742
12441SOL    HW238765   2.080   0.519   1.370 -0.3341 -1.5803  0.5376
12442SOL     OW38766   2.647   2.887   4.846 -0.1174 -0.5963 -0.0943
12442SOL    HW138767   2.720   2.825   4.857 -0.4668 -0.7114  1.9308
12442SOL    HW238768   2.638   2.928   4.931 -3.4733 -1.7390  0.2361
12443SOL     OW38769   4.059   1.718  10.659 -0.5528  0.2450 -0.6043
12443SOL    HW138770   4.082   1.635  10.701 -2.9909 -0.0137  0.3812
12443SOL    HW238771   4.059   1.698  10.565 -0.1754 -0.5997 -0.4396
12444SOL     OW38772   5.872   0.853   9.413  0.2133  0.0240  0.0143
12444SOL    HW138773   5.809   0.913   9.454 -2.9813 -3.0601  0.1431
12444SOL    HW238774   5.847   0.766   9.445  2.8836 -1.7090 -2.0983
12445SOL     OW38775   1.948   1.361   0.355  0.3268 -0.3549 -0.7593
12445SOL    HW138776   1.980   1.385   0.269 -1.0569 -1.8071 -1.7385
12445SOL    HW238777   1.946   1.265   0.354  0.3657 -0.4029  0.9196
12446SOL     OW38778   3.180   4.604   5.801 -0.0478 -0.0504 -0.2174
12446SOL    HW138779   3.203   4.513   5.778 -0.6982  0.2891 -2.4374
12446SOL    HW238780   3.230   4.657   5.739 -2.0375  0.9503 -1.0466
12447SOL     OW38781   5.863   4.143   1.898 -0.1179  0.1889 -0.5431
12447SOL    HW138782   5.771   4.167   1.892 -0.7491 -1.5071  1.3344
12447SOL    HW238783   5.877   4.084   1.823 -1.0117 -0.7489 -0.0092
12448SOL     OW38784   0.792   3.515   2.106 -0.2120  0.6555  0.9309
12448SOL    HW138785   0.760   3.559   2.027  0.6123  0.9704  0.7643
12448SOL    HW238786   0.725   3.532   2.172 -0.8752  0.4551  0.3216
12449SOL     OW38787   5.476   4.238   6.565  0.0437 -0.2886  0.2437
12449SOL    HW138788   5.380   4.242   6.572 -0.0357  1.0276 -1.1602
12449SOL    HW238789   5.492   4.207   6.476  0.9244 -0.3344  0.4156
12450SOL     OW38790   4.896   5.041   7.459  0.1126 -0.4985 -0.4768
12450SOL    HW138791   4.844   4.970   7.421 -0.9411 -0.3122  0.5359
12450SOL    HW238792   4.955   5.068   7.390 -2.3548  0.4991 -2.3372
12451SOL     OW38793   7.341   6.661   9.842 -0.5279 -1.0088  0.0867
12451SOL    HW138794   7.357   6.619   9.757 -1.0304 -1.3688  0.1649
12451SOL    HW238795   7.320   6.588   9.901 -2.5225 -0.5781 -0.0316
12452SOL     OW38796   1.242   2.792   5.348 -0.1624 -0.0205  0.4232
12452SOL    HW138797   1.153   2.797   5.312 -0.7441 -1.7996  1.5186
12452SOL    HW238798   1.236   2.729   5.419  2.3152 -1.3980 -0.4797
12453SOL     OW38799   4.632   5.148  10.916  0.1308 -0.8140  0.6836
12453SOL    HW138800   4.582   5.215  10.870  0.0025 -1.3750 -0.0212
12453SOL    HW238801   4.652   5.083  10.848  3.3580  0.2170  0.5066
12454SOL     OW38802   4.365   4.036  10.869  0.4346 -0.0158 -0.0007
12454SOL    HW138803   4.448   4.059  10.911  0.8039  1.4741 -1.4127
12454SOL    HW238804   4.372   4.073  10.780 -0.5038 -2.5635 -1.2299
12455SOL     OW38805   0.065   0.714   4.451 -0.2146  0.1407 -0.6878
12455SOL    HW138806   0.012   0.683   4.378 -0.4458  0.8243 -0.8194
12455SOL    HW238807   0.015   0.692   4.529  0.6224 -1.7665 -0.6267
12456SOL     OW38808   3.852   6.602   4.464  0.1715 -0.5958  0.0803
12456SOL    HW138809   3.847   6.686   4.510 -2.0817 -1.2990  1.2663
12456SOL    HW238810   3.858   6.625   4.372 -1.4662  0.8967  0.2924
12457SOL     OW38811   4.589   7.634   3.231  0.0189 -0.2772  0.4022
12457SOL    HW138812   4.577   7.598   3.142 -0.9268  1.0388 -0.0270
12457SOL    HW238813   4.506   7.617   3.275  0.0242  0.2219  0.6094
12458SOL     OW38814   7.789   3.420   8.862 -0.0846 -0.7040  0.0124
12458SOL    HW138815   7.794   3.342   8.918 -0.1422 -2.5183 -2.3566
12458SOL    HW238816   7.862   3.411   8.801  0.0773  1.2981 -0.1500
12459SOL     OW38817   4.968   3.628   0.375  0.4645 -0.1503  0.0486
12459SOL    HW138818   4.911   3.649   0.301 -0.7262 -1.5260  0.5297
12459SOL    HW238819   4.949   3.536   0.394  2.0496 -0.3256  0.9441
12460SOL     OW38820   0.544   6.440   6.667  0.3369 -0.4169  0.0401
12460SOL    HW138821   0.495   6.369   6.625  1.2200 -1.4042  0.6395
12460SOL    HW238822   0.476   6.494   6.708 -0.4058 -0.4744 -1.0621
12461SOL     OW38823   7.341   2.848   7.861  0.3862  0.3017 -0.2047
12461SOL    HW138824   7.250   2.833   7.836 -0.0804  2.2505  0.1206
12461SOL    HW238825   7.370   2.918   7.802  0.1559  3.0010  2.6265
12462SOL     OW38826   6.725   7.809  11.554 -0.0962 -0.5915 -0.2734
12462SOL    HW138827   6.734   7.868  11.479 -1.2446 -1.5032 -1.1797
12462SOL    HW238828   6.640   7.830  11.591  0.1742 -0.6072  0.3667
12463SOL     OW38829   5.851   6.319   5.147  0.0516  0.1381 -0.4562
12463SOL    HW138830   5.866   6.397   5.095 -0.5071  1.1196  0.8001
12463SOL    HW238831   5.803   6.350   5.224 -2.3492 -1.8046 -1.0564
12464SOL     OW38832   7.137   2.009  10.710 -0.6498  0.0504  0.4884
12464SOL    HW138833   7.097   1.976  10.790 -1.5169 -0.4369 -0.1375
12464SOL    HW238834   7.083   1.975  10.640  1.2376 -1.2124 -0.4468
12465SOL     OW38835   0.820   4.219   2.081  0.3652 -0.1022  0.3901
12465SOL    HW138836   0.837   4.308   2.048 -1.3218  0.0411 -0.1827
12465SOL    HW238837   0.850   4.161   2.011  0.3395  0.0632  0.2422
12466SOL     OW38838   4.909   5.427   2.557  0.4978 -0.0790 -0.1808
12466SOL    HW138839   4.867   5.459   2.478 -2.2581 -2.4166  0.1660
12466SOL    HW238840   4.921   5.333   2.541  1.3160 -0.3181  1.5722
12467SOL     OW38841   4.835   7.343  10.624 -0.0242 -0.1468 -0.2900
12467SOL    HW138842   4.906   7.289  10.657 -0.2322  0.4315  1.1806
12467SOL    HW238843   4.821   7.410  10.692 -1.8584 -0.1565 -0.5890
12468SOL     OW38844   1.101   1.848   8.338  0.0027 -0.9719  0.0479
12468SOL    HW138845   1.138   1.849   8.426  0.5903 -0.2849 -0.1986
12468SOL    HW238846   1.060   1.761   8.330  0.3991 -1.2370  0.8026
12469SOL     OW38847   0.131   1.803   1.442 -0.1392 -0.2688  0.2010
12469SOL    HW138848   0.160   1.879   1.492 -1.7446 -0.2428  1.1510
12469SOL    HW238849   0.096   1.743   1.507  0.2559 -1.4416 -0.6362
12470SOL     OW38850   1.548   0.579   0.474 -0.2772  0.1143  0.1016
12470SOL    HW138851   1.571   0.542   0.560  0.0509 -0.2674 -0.1480
12470SOL    HW238852   1.631   0.586   0.428 -0.4754  0.1525 -0.2509
12471SOL     OW38853   1.050   4.100  10.574 -0.4298  0.0615 -0.1360
12471SOL    HW138854   1.091   4.017  10.598  0.8047  1.1112  1.5963
12471SOL    HW238855   1.060   4.105  10.479  0.2188 -1.3722 -0.1707
12472SOL     OW38856   4.359   1.824  10.473  0.0974 -0.3133 -0.1546
12472SOL    HW138857   4.274   1.867  10.479 -0.0744 -0.4247 -1.5227
12472SOL    HW238858   4.357   1.758  10.543 -1.3494 -0.9836 -0.7853
12473SOL     OW38859   3.848   1.772   6.330 -0.0323  0.2266 -0.0589
12473SOL    HW138860   3.781   1.766   6.262  0.2356  0.1026 -0.3156
12473SOL    HW238861   3.915   1.829   6.293 -0.4511  1.1566  0.5916
12474SOL     OW38862   1.133   2.303   3.026  0.1109 -0.6822 -0.6961
12474SOL    HW138863   1.177   2.219   3.012  0.3664 -0.8572  1.0162
12474SOL    HW238864   1.203   2.366   3.035  0.1876 -1.0417  2.5697
12475SOL     OW38865   1.974   4.584  10.214 -0.2415  0.0081  0.2802
12475SOL    HW138866   2.032   4.512  10.188 -0.4135  0.6557 -2.1202
12475SOL    HW238867   2.031   4.661  10.216 -0.4902  0.1858  0.6011
12476SOL     OW38868   7.490   3.784   6.523 -0.2575  0.0954 -0.0482
12476SOL    HW138869   7.453   3.752   6.606 -1.2829 -0.5827 -0.7448
12476SOL    HW238870   7.537   3.708   6.488  0.0373  0.3333 -0.1651
12477SOL     OW38871   2.807   2.377   2.380  0.1818 -0.0069  0.1315
12477SOL    HW138872   2.716   2.352   2.365 -0.0626  0.1941  1.2159
12477SOL    HW238873   2.833   2.329   2.459  0.4484  1.2754  0.8529
12478SOL     OW38874   4.295   4.093   3.664 -0.4102  0.5949 -0.5590
12478SOL    HW138875   4.308   4.110   3.757 -0.6397 -1.4163 -0.1308
12478SOL    HW238876   4.229   4.157   3.637 -0.1889  1.3414  0.5860
12479SOL     OW38877   4.634   5.599   1.036 -0.4637 -0.2612 -0.9483
12479SOL    HW138878   4.608   5.576   0.946 -0.8581 -4.5420  0.0452
12479SOL    HW238879   4.592   5.532   1.090 -0.3799  2.2746  2.5336
12480SOL     OW38880   3.510   1.865  11.356  0.5866  0.5747 -0.6066
12480SOL    HW138881   3.581   1.921  11.323  0.2093  0.8283 -0.9905
12480SOL    HW238882   3.531   1.853  11.449 -0.4865  3.2042  0.0778
12481SOL     OW38883   3.016   4.332   6.727  0.3016  0.3654  0.3004
12481SOL    HW138884   3.069   4.377   6.661  2.7073 -2.3371  0.1843
12481SOL    HW238885   2.938   4.303   6.679 -0.3208  2.5041 -0.0920
12482SOL     OW38886   1.587   4.222   8.284 -0.4200  0.0221  0.5043
12482SOL    HW138887   1.554   4.283   8.349  2.3833  1.5961  0.6299
12482SOL    HW238888   1.541   4.245   8.203 -0.9900  0.8055  1.0389
12483SOL     OW38889   7.795   6.348   1.175  0.4471  0.1874  0.2768
12483SOL    HW138890   7.766   6.355   1.083 -1.0687 -0.7003  0.6556
12483SOL    HW238891   7.723   6.386   1.225  0.4887 -0.9197  1.2071
12484SOL     OW38892   1.021   3.943   6.687 -0.3254  0.1705  0.1665
12484SOL    HW138893   1.101   3.990   6.665 -0.7409  0.9274  0.2595
12484SOL    HW238894   1.042   3.851   6.668  0.1743  0.4918 -0.9555
12485SOL     OW38895   1.474   7.919  10.603  0.0531 -0.2070  0.0977
12485SOL    HW138896   1.400   7.980  10.610  1.0365  1.1075 -0.4264
12485SOL    HW238897   1.470   7.868  10.684  0.3688  1.9694  1.5991
12486SOL     OW38898   5.383   2.178   0.967  0.0508 -0.0761 -0.7074
12486SOL    HW138899   5.387   2.157   1.060 -1.3033  1.9071 -0.1455
12486SOL    HW238900   5.307   2.130   0.934 -0.0739  0.0168 -0.5556
12487SOL     OW38901   7.127   3.050   4.708 -0.1106  0.3716  0.8040
12487SOL    HW138902   7.142   3.037   4.801  1.6537  0.5532  0.5762
12487SOL    HW238903   7.161   2.971   4.666  0.5108  0.9378  0.2131
12488SOL     OW38904   2.903   3.810   8.846 -0.0452  0.3386 -0.0051
12488SOL    HW138905   2.940   3.805   8.934  1.7022  1.8228 -0.6009
12488SOL    HW238906   2.959   3.753   8.793 -1.0889 -0.5513 -0.1991
12489SOL     OW38907   3.697   2.861  11.250  0.5371 -0.1286 -0.1356
12489SOL    HW138908   3.644   2.791  11.287  0.9559  0.1322  1.0283
12489SOL    HW238909   3.770   2.870  11.312  1.0806  0.5787 -0.8591
12490SOL     OW38910   3.824   0.510   1.638  0.1171 -0.7725 -0.6092
12490SOL    HW138911   3.864   0.424   1.626  0.2158 -0.5222 -2.3857
12490SOL    HW238912   3.770   0.523   1.559 -0.4097  0.5198 -0.0742
12491SOL     OW38913   3.127   1.712   9.626 -0.4863 -0.1848 -0.3498
12491SOL    HW138914   3.191   1.784   9.631 -2.0763  1.3536 -1.0572
12491SOL    HW238915   3.178   1.633   9.642  1.9787  0.7513 -2.8555
12492SOL     OW38916   6.670   6.136   1.277  0.5185  0.2009  0.2988
12492SOL    HW138917   6.657   6.169   1.366  0.0220  0.9776 -0.0478
12492SOL    HW238918   6.745   6.077   1.284  0.6971  0.5147  1.1661
12493SOL     OW38919   1.685   1.593   4.858 -0.2814  0.2543  0.3636
12493SOL    HW138920   1.761   1.535   4.867  0.3059  0.7566 -1.0336
12493SOL    HW238921   1.718   1.669   4.809 -1.8852  0.0323 -1.1760
12494SOL     OW38922   5.038   0.687   7.186  1.0733 -0.6681 -0.0912
12494SOL    HW138923   5.084   0.735   7.118  0.2031 -1.4240 -1.2526
12494SOL    HW238924   5.016   0.603   7.145 -0.8022 -0.5490  0.6108
12495SOL     OW38925   4.406   7.246   0.577  0.2092 -0.5072  0.4103
12495SOL    HW138926   4.432   7.320   0.523  0.4647 -0.0941  1.0780
12495SOL    HW238927   4.407   7.171   0.518  1.0894 -0.1766 -0.0105
12496SOL     OW38928   4.024   5.158   5.687 -0.2213 -0.1197 -0.1313
12496SOL    HW138929   4.051   5.233   5.740  0.5880 -0.2259 -0.3845
12496SOL    HW238930   4.088   5.090   5.708 -1.6561 -1.1809  1.0666
12497SOL     OW38931   4.980   4.498   2.611  0.1243 -0.4948 -0.0819
12497SOL    HW138932   4.950   4.414   2.577 -3.0202  0.4131  0.1755
12497SOL    HW238933   4.943   4.503   2.699 -0.4113  1.4811 -0.3851
12498SOL     OW38934   2.281   1.972  10.445  0.1008 -0.0206  0.4592
12498SOL    HW138935   2.321   2.019  10.518 -0.8374 -1.4424  1.9536
12498SOL    HW238936   2.355   1.948  10.389  0.8787  0.7363  1.1334
12499SOL     OW38937   3.061   0.609   6.766 -0.0494 -0.3311 -0.1408
12499SOL    HW138938   3.070   0.701   6.739 -1.4759 -0.0522  0.2475
12499SOL    HW238939   2.997   0.612   6.837  2.5795 -1.1866  2.4476
12500SOL     OW38940   7.121   2.298   7.443  0.0368  0.1808  0.2009
12500SOL    HW138941   7.209   2.323   7.469  0.0015  0.8895 -0.3471
12500SOL    HW238942   7.071   2.297   7.525  0.7815 -1.2831  0.6711
12501SOL     OW38943   1.567   3.887   2.865 -0.0225 -0.1038  0.6867
12501SOL    HW138944   1.621   3.844   2.799  0.5089 -0.5114  1.3669
12501SOL    HW238945   1.540   3.969   2.824  0.2199 -0.3904 -0.0651
12502SOL     OW38946   0.583   1.693   5.625 -0.4866  0.2330  0.3446
12502SOL    HW138947   0.565   1.614   5.574 -0.6635  0.9390 -0.7127
12502SOL    HW238948   0.664   1.728   5.587 -0.6330  0.7843  0.5388
12503SOL     OW38949   7.026   4.144   4.044  0.4920  0.2610  0.6572
12503SOL    HW138950   6.945   4.108   4.007  0.4378  1.0799 -0.0751
12503SOL    HW238951   7.000   4.227   4.083  1.1437  1.0988 -0.6003
12504SOL     OW38952   4.932   2.739   3.439  0.1846 -0.1763  0.1717
12504SOL    HW138953   4.946   2.694   3.356 -0.1187  0.7943 -0.4242
12504SOL    HW238954   4.997   2.809   3.439 -0.1146  0.1041  0.5396
12505SOL     OW38955   7.221   1.239   9.539  0.0231 -0.3084  0.0038
12505SOL    HW138956   7.153   1.209   9.600  0.8511 -0.9728  0.6191
12505SOL    HW238957   7.220   1.175   9.469  0.0849 -0.3784  0.0667
12506SOL     OW38958   4.215   1.127   8.777  0.1897  0.3060 -0.1565
12506SOL    HW138959   4.258   1.084   8.703  0.2440 -1.0082  0.6151
12506SOL    HW238960   4.262   1.096   8.854 -0.9437  0.2806  0.5568
12507SOL     OW38961   5.382   1.531   9.969  0.1961  0.4253  0.2297
12507SOL    HW138962   5.358   1.452  10.017  0.6109  0.3102  0.2458
12507SOL    HW238963   5.453   1.569  10.019 -0.0083  0.8159  0.2273
12508SOL     OW38964   1.452   7.616   7.215 -0.0432  0.0965  0.1850
12508SOL    HW138965   1.424   7.697   7.173  0.3653  0.5377  0.7561
12508SOL    HW238966   1.378   7.590   7.270  0.3007  0.7675  0.9792
12509SOL     OW38967   6.152   7.440   2.379  0.3288 -0.1057  0.0413
12509SOL    HW138968   6.184   7.528   2.359  1.2977 -0.9969 -2.7696
12509SOL    HW238969   6.222   7.401   2.431 -0.3845  0.9397  1.8576
12510SOL     OW38970   2.474   0.862   8.025 -0.5008  0.0385  0.6028
12510SOL    HW138971   2.540   0.830   8.086 -0.1109  0.1866  0.2661
12510SOL    HW238972   2.430   0.783   7.994  0.4732 -0.1976 -0.2435
12511SOL     OW38973   7.811   5.943   5.929 -0.0622 -0.6154 -0.0159
12511SOL    HW138974   7.720   5.970   5.921 -0.1034 -0.8363 -0.3036
12511SOL    HW238975   7.862   6.022   5.911 -0.1726 -0.8604 -1.4753
12512SOL     OW38976   1.624   5.459   6.264 -0.0888 -0.3777 -0.5637
12512SOL    HW138977   1.638   5.393   6.332 -0.7802  0.1229  0.0777
12512SOL    HW238978   1.604   5.540   6.312 -0.7374 -0.0502 -1.3655
12513SOL     OW38979   0.377   6.364  11.457 -0.2087 -0.0396  0.0476
12513SOL    HW138980   0.350   6.438  11.403  0.4580  0.4793  0.4117
12513SOL    HW238981   0.446   6.321  11.407 -0.9893 -0.7656 -0.4242
12514SOL     OW38982   1.478   0.813   5.761 -0.2588  0.3619 -0.3225
12514SOL    HW138983   1.492   0.836   5.669 -1.1924 -0.1571 -0.6020
12514SOL    HW238984   1.527   0.731   5.773  0.0428  0.5442 -0.2943
12515SOL     OW38985   2.488   3.380   3.300  0.8769  0.3751  0.0884
12515SOL    HW138986   2.474   3.406   3.391  1.4320  0.5794  0.1157
12515SOL    HW238987   2.459   3.455   3.249 -0.1466 -0.0191  0.0566
12516SOL     OW38988   2.071   5.859   3.115  0.2388  0.5070  0.1289
12516SOL    HW138989   2.117   5.775   3.120  1.7658  1.2043 -1.3686
12516SOL    HW238990   2.040   5.864   3.025 -0.2795  1.3386  0.3430
12517SOL     OW38991   1.410   3.744  12.294  0.4329  0.3854 -0.1378
12517SOL    HW138992   1.391   3.651  12.305 -1.5443  0.9605  2.2385
12517SOL    HW238993   1.495   3.756  12.335  0.0467 -0.1660  0.8613
12518SOL     OW38994   5.418   4.537   2.743 -0.1378 -0.4365 -0.0697
12518SOL    HW138995   5.509   4.560   2.723 -0.4587  0.4162 -0.5978
12518SOL    HW238996   5.405   4.564   2.834  0.0603 -0.3077 -0.0794
12519SOL     OW38997   1.940   0.073   1.279  0.4438  0.0008  0.0749
12519SOL    HW138998   2.014   0.084   1.219  0.6574  1.2716  0.5336
12519SOL    HW238999   1.885   0.150   1.263 -1.0896 -1.1948 -0.6532
12520SOL     OW39000   6.240   7.562   7.392  0.0091  0.0486  0.0224
12520SOL    HW139001   6.262   7.642   7.344 -1.1810  0.1292 -0.4109
12520SOL    HW239002   6.145   7.553   7.383 -0.0421 -0.7638  1.0823
12521SOL     OW39003   4.770   3.679   3.715 -0.2701 -0.5994  0.1128
12521SOL    HW139004   4.705   3.628   3.762 -0.2136 -0.5911  0.2002
12521SOL    HW239005   4.823   3.720   3.784  0.7748 -1.7942  0.0760
12522SOL     OW39006   6.462   6.547   1.781 -0.2934  0.6765  0.2016
12522SOL    HW139007   6.464   6.641   1.763 -1.3582  0.8723  1.0247
12522SOL    HW239008   6.423   6.539   1.868 -0.9026 -0.5609 -0.1509
12523SOL     OW39009   5.650   4.062   8.469  0.2775 -0.2413  0.7413
12523SOL    HW139010   5.568   4.110   8.479 -0.3504 -1.3031  0.8339
12523SOL    HW239011   5.684   4.053   8.558  0.7576  0.6264  0.6546
12524SOL     OW39012   7.934   7.409   4.322  0.4637  0.2356  0.0198
12524SOL    HW139013   7.851   7.394   4.278  0.8878  0.3690 -0.8518
12524SOL    HW239014   7.944   7.335   4.381 -1.5542  1.5379  2.2033
12525SOL     OW39015   5.006   2.152   1.356  0.3110  0.0673  0.4656
12525SOL    HW139016   4.915   2.180   1.345  0.2721  0.0360  0.7067
12525SOL    HW239017   5.014   2.134   1.449  0.7418  0.6646  0.5457
12526SOL     OW39018   5.529   4.883   3.370 -0.2698 -0.2568  0.1359
12526SOL    HW139019   5.573   4.905   3.452  1.0284 -1.0012 -0.3426
12526SOL    HW239020   5.473   4.959   3.352  0.4628  0.5110  0.9919
12527SOL     OW39021   5.324   2.855   4.306 -0.0925 -0.0911 -0.2391
12527SOL    HW139022   5.395   2.913   4.280  0.3285  0.0805  1.1930
12527SOL    HW239023   5.333   2.779   4.248  0.2461  0.6304 -1.1508
12528SOL     OW39024   3.292   0.415  12.391  0.0498  0.4342 -0.4177
12528SOL    HW139025   3.362   0.363  12.432 -0.6919 -0.0733  0.2549
12528SOL    HW239026   3.240   0.350  12.343 -0.4269  0.6723 -0.2280
12529SOL     OW39027   7.946   3.548   7.025 -0.4552 -0.2056  0.0165
12529SOL    HW139028   7.890   3.547   6.947  2.3530 -0.3475 -2.1662
12529SOL    HW239029   7.947   3.639   7.053 -1.0923 -0.0542 -0.4300
12530SOL     OW39030   1.505   3.616  11.218  0.1969 -0.1260 -0.1616
12530SOL    HW139031   1.527   3.709  11.230 -0.5654  0.0872 -0.3400
12530SOL    HW239032   1.585   3.569  11.241  1.4344  0.6894 -2.4449
12531SOL     OW39033   3.895   3.616  10.490  0.0917  0.0411  0.4626
12531SOL    HW139034   3.976   3.607  10.541  0.5748 -1.8565 -0.5226
12531SOL    HW239035   3.912   3.565  10.411 -1.8008  0.2649 -0.1233
12532SOL     OW39036   2.327   4.721   3.412 -0.1425 -0.3907 -0.3375
12532SOL    HW139037   2.237   4.747   3.429 -0.2057 -0.3067 -0.7888
12532SOL    HW239038   2.354   4.775   3.337  0.1330 -0.7281 -0.4854
12533SOL     OW39039   1.202   1.635  11.499 -0.1690  0.0771  1.0860
12533SOL    HW139040   1.191   1.541  11.517 -1.2366 -0.4652 -1.7700
12533SOL    HW239041   1.292   1.643  11.470 -0.3183 -0.2432  0.5232
12534SOL     OW39042   5.257   4.656  10.639 -0.4149  0.7344  0.4848
12534SOL    HW139043   5.310   4.644  10.561  0.4161  2.9647  0.6094
12534SOL    HW239044   5.304   4.724  10.689 -1.6371  0.3534  2.2520
12535SOL     OW39045   3.310   3.727   7.296  0.2374 -0.0008 -0.5710
12535SOL    HW139046   3.356   3.760   7.373 -0.3949 -1.5237  0.5050
12535SOL    HW239047   3.379   3.689   7.242  0.4814 -0.6862  0.1943
12536SOL     OW39048   1.302   1.720   4.165  0.2460 -0.3493 -0.5757
12536SOL    HW139049   1.342   1.734   4.079  0.0576  0.5317 -0.5301
12536SOL    HW239050   1.240   1.792   4.175  0.2589 -0.4433  0.2969
12537SOL     OW39051   5.867   7.279  12.306 -0.0554 -0.1119  0.3975
12537SOL    HW139052   5.930   7.258  12.375  0.8369 -1.2570 -0.7104
12537SOL    HW239053   5.801   7.210  12.313  2.0779 -2.7075 -2.2677
12538SOL     OW39054   7.137   7.725   9.836  0.1348  0.2491 -0.1377
12538SOL    HW139055   7.050   7.758   9.857 -0.0196 -0.7506  0.8752
12538SOL    HW239056   7.124   7.631   9.821  0.9378  0.2076 -0.6176
12539SOL     OW39057   1.949   7.474   4.599  0.2145  0.5075  0.8241
12539SOL    HW139058   1.999   7.400   4.565  1.4944  2.0708 -0.9246
12539SOL    HW239059   1.868   7.475   4.548 -0.2836 -0.2456  1.5669
12540SOL     OW39060   5.517   2.559   4.439 -0.3551  0.4692 -0.2878
12540SOL    HW139061   5.547   2.468   4.447 -1.0353  0.2178 -0.4722
12540SOL    HW239062   5.457   2.558   4.365 -2.0746  0.5792  1.0266
12541SOL     OW39063   3.791   1.710   4.826 -0.1002  0.4436 -0.2117
12541SOL    HW139064   3.776   1.677   4.915 -0.8533 -1.0826 -0.8656
12541SOL    HW239065   3.832   1.637   4.780  0.0108  1.1143 -1.2146
12542SOL     OW39066   2.959   4.877   4.822  0.0873 -0.1675  0.1542
12542SOL    HW139067   2.880   4.930   4.833  1.2412  1.6492  0.1175
12542SOL    HW239068   2.944   4.828   4.741 -1.6553 -1.1432  1.0078
12543SOL     OW39069   6.376   5.934   4.586 -0.3166 -0.0790  0.1616
12543SOL    HW139070   6.391   5.902   4.675  0.0175 -1.2181 -0.2898
12543SOL    HW239071   6.283   5.918   4.570 -0.9066  2.1500  1.0701
12544SOL     OW39072   7.280   6.391   8.890  0.1829 -0.1692 -0.3930
12544SOL    HW139073   7.200   6.396   8.838  0.5600 -4.5814 -1.7885
12544SOL    HW239074   7.340   6.453   8.848 -0.6596 -1.0880 -3.2155
12545SOL     OW39075   0.911   1.230   7.115  0.1183 -0.1772 -0.1705
12545SOL    HW139076   0.875   1.208   7.201  0.3190  0.0668 -0.0214
12545SOL    HW239077   0.994   1.275   7.135 -0.6773  1.4640 -0.4429
12546SOL     OW39078   5.395   5.180  10.780  0.3787  0.0919 -0.0186
12546SOL    HW139079   5.345   5.105  10.748  2.2623 -2.0297  1.6568
12546SOL    HW239080   5.344   5.214  10.853  0.5244 -0.9851  0.6075
12547SOL     OW39081   1.051   3.381   8.966 -0.4819 -0.5715 -0.2726
12547SOL    HW139082   0.993   3.328   8.912 -0.8399 -0.2549 -0.1975
12547SOL    HW239083   1.034   3.471   8.940  1.1666 -0.5555 -1.4351
12548SOL     OW39084   6.251   1.946   3.782  0.7186 -0.4324 -0.0778
12548SOL    HW139085   6.310   2.018   3.805  0.4264 -0.1257 -0.2934
12548SOL    HW239086   6.276   1.875   3.842 -0.0963  0.3775  1.2536
12549SOL     OW39087   3.525   0.556   8.551  0.2992  0.1254 -0.2961
12549SOL    HW139088   3.584   0.627   8.575 -0.0211  0.5572 -0.7808
12549SOL    HW239089   3.523   0.499   8.628  2.2259 -0.4949 -0.6483
12550SOL     OW39090   5.693   2.272  12.379 -0.4501 -0.2153  0.4263
12550SOL    HW139091   5.753   2.223  12.323  1.5499 -0.0948  2.2870
12550SOL    HW239092   5.689   2.220  12.460 -0.2903  1.3631  1.5045
12551SOL     OW39093   7.655   0.690   4.271 -0.2945 -0.1547 -0.2493
12551SOL    HW139094   7.560   0.681   4.269 -0.4567  1.3068 -0.5369
12551SOL    HW239095   7.678   0.722   4.183  0.4567 -0.4443 -0.1658
12552SOL     OW39096   5.976   1.125   1.165 -0.2759 -0.7165 -0.0771
12552SOL    HW139097   5.982   1.203   1.110 -0.5957 -0.6018  0.0482
12552SOL    HW239098   5.887   1.094   1.152 -0.3117 -0.7627  0.2742
12553SOL     OW39099   4.565   4.810   0.726 -0.0458 -0.0332  0.4817
12553SOL    HW139100   4.490   4.832   0.671 -0.1348 -0.6901  0.3418
12553SOL    HW239101   4.538   4.834   0.815  0.1616  1.2000  0.2368
12554SOL     OW39102   3.516   2.904   2.821  0.2297  0.5586  0.2887
12554SOL    HW139103   3.529   2.985   2.871  0.5824 -0.0381  1.1844
12554SOL    HW239104   3.563   2.837   2.871  1.2190  0.0696 -1.2188
12555SOL     OW39105   2.360   7.891   0.493 -0.4035 -0.4225 -0.0412
12555SOL    HW139106   2.416   7.847   0.428 -1.4623 -1.4547 -0.2877
12555SOL    HW239107   2.355   7.829   0.566 -0.8347 -0.1234  0.1861
12556SOL     OW39108   2.279   1.161  12.251  0.3687 -0.0536  0.0274
12556SOL    HW139109   2.278   1.253  12.223  0.0605 -0.4135 -1.1836
12556SOL    HW239110   2.288   1.166  12.346 -1.4636  1.2782  0.1954
12557SOL     OW39111   1.882   4.280   9.175  0.2967 -0.0442 -0.8066
12557SOL    HW139112   1.894   4.311   9.265 -0.2391 -1.9941 -0.0114
12557SOL    HW239113   1.797   4.315   9.149  0.4425  0.5140 -0.5392
12558SOL     OW39114   2.011   5.557   9.189  1.1699  0.2758  0.5743
12558SOL    HW139115   2.041   5.644   9.161 -0.3878 -0.2453 -3.5151
12558SOL    HW239116   1.924   5.573   9.226  1.0450  0.5405  0.1795
12559SOL     OW39117   5.947   7.594   4.550  0.1513 -0.2534  0.1418
12559SOL    HW139118   5.967   7.563   4.638  0.8879  1.2394  0.5273
12559SOL    HW239119   5.864   7.639   4.558  0.5880  0.5471  0.2484
12560SOL     OW39120   1.992   0.344   7.335  0.3757  0.0450  0.2999
12560SOL    HW139121   1.992   0.398   7.413  1.4653 -0.8119  0.9263
12560SOL    HW239122   2.079   0.357   7.296  0.0459  0.0323 -0.4704
12561SOL     OW39123   1.798   2.674   8.225  0.2345  0.3914  0.3582
12561SOL    HW139124   1.838   2.647   8.142  0.8811  0.8671  0.5055
12561SOL    HW239125   1.860   2.737   8.262  1.4811 -2.0159  2.6481
12562SOL     OW39126   7.799   6.240  12.394 -0.4165  0.3434 -0.4069
12562SOL    HW139127   7.846   6.198  12.465  0.8260  0.2708 -1.2316
12562SOL    HW239128   7.857   6.313  12.367 -1.8701  1.7344  0.0916
12563SOL     OW39129   0.040   1.789   0.499  0.2570 -0.1793 -0.6301
12563SOL    HW139130   0.001   1.845   0.566 -1.0776 -1.8217  0.0413
12563SOL    HW239131   0.124   1.830   0.479 -0.9754  2.4448 -0.7495
12564SOL     OW39132   2.392   7.620   5.388 -0.1698 -0.1779  0.1721
12564SOL    HW139133   2.423   7.586   5.304  0.0312 -1.3491  0.7040
12564SOL    HW239134   2.348   7.546   5.430 -0.5179  0.4663  0.9788
12565SOL     OW39135   7.493   2.647   7.881  0.4224  0.5479 -0.1132
12565SOL    HW139136   7.442   2.566   7.875  1.4571 -0.0490 -1.5876
12565SOL    HW239137   7.430   2.717   7.864 -0.5481  0.1183  1.4844
12566SOL     OW39138   0.403   0.648   8.059 -0.1948 -0.3364 -0.2527
12566SOL    HW139139   0.465   0.589   8.017  0.9180  0.9525 -0.5218
12566SOL    HW239140   0.450   0.732   8.064 -1.9734  0.7479 -0.6436
12567SOL     OW39141   6.426   2.039   1.317  0.4415  0.0207  0.1866
12567SOL    HW139142   6.354   2.060   1.376 -0.4750  0.2280 -0.9760
12567SOL    HW239143   6.492   2.106   1.334 -0.1531  0.5569  0.3930
12568SOL     OW39144   1.217   0.748   4.002 -0.5113  0.5320  0.7055
12568SOL    HW139145   1.264   0.813   4.055  0.4741 -0.3858  0.9812
12568SOL    HW239146   1.201   0.675   4.061  0.0142 -0.2284 -0.0668
12569SOL     OW39147   6.319   3.701  10.895 -0.5907 -0.5912  0.4069
12569SOL    HW139148   6.392   3.757  10.868 -0.4618 -0.5130  0.9001
12569SOL    HW239149   6.327   3.623  10.840  0.9496 -1.3923  1.6524
12570SOL     OW39150   0.458   2.153   5.367 -0.4430  0.4803 -1.0743
12570SOL    HW139151   0.477   2.060   5.352 -1.2275  0.1154 -0.0304
12570SOL    HW239152   0.524   2.200   5.317 -0.1878 -0.6394 -1.8356
12571SOL     OW39153   1.493   7.559   1.420 -0.2421 -0.3325 -0.0604
12571SOL    HW139154   1.560   7.586   1.483 -0.2638  0.0117 -0.1800
12571SOL    HW239155   1.423   7.623   1.431 -0.9847 -1.2536  0.7548
12572SOL     OW39156   7.417   4.907  11.366 -0.4278 -0.1454  0.3291
12572SOL    HW139157   7.499   4.953  11.351 -0.3790 -0.6071 -0.9231
12572SOL    HW239158   7.414   4.839  11.299 -1.3909 -0.7455  0.9478
12573SOL     OW39159   5.731   0.766   1.341 -0.4017 -0.1382 -0.4293
12573SOL    HW139160   5.781   0.737   1.417 -1.3001 -1.2145 -0.2221
12573SOL    HW239161   5.796   0.772   1.271  0.0345 -1.5992 -0.1879
12574SOL     OW39162   0.371   5.155  11.984  0.4558 -0.6890 -0.1807
12574SOL    HW139163   0.276   5.157  11.989  0.4377 -0.5874 -0.5465
12574SOL    HW239164   0.400   5.177  12.072  0.1560  3.0947 -0.8319
12575SOL     OW39165   7.543   0.470   8.234  0.0232 -0.4056  0.1664
12575SOL    HW139166   7.573   0.521   8.159 -0.7604 -1.0617 -0.6115
12575SOL    HW239167   7.614   0.476   8.298  0.7617  0.0342 -0.6903
12576SOL     OW39168   1.420   6.226   2.227  0.0723  0.3768 -0.5255
12576SOL    HW139169   1.325   6.226   2.242 -0.0170 -1.2279 -0.8442
12576SOL    HW239170   1.429   6.187   2.140  1.0510  0.0577 -0.2865
12577SOL     OW39171   6.282   1.545   0.279 -0.0475 -0.1741  0.5027
12577SOL    HW139172   6.197   1.566   0.240 -0.8604 -0.7146  1.9082
12577SOL    HW239173   6.343   1.606   0.238 -0.8876 -0.5576 -1.4080
12578SOL     OW39174   5.463   4.915   3.757  0.1637  0.1883 -0.7908
12578SOL    HW139175   5.498   4.827   3.776 -1.5422 -0.1162  1.3089
12578SOL    HW239176   5.397   4.900   3.690 -1.7320 -0.5982  1.1207
12579SOL     OW39177   5.742   5.908  11.774  0.4968 -0.2905  0.0545
12579SOL    HW139178   5.705   5.995  11.757  0.5482 -0.3246 -0.2527
12579SOL    HW239179   5.771   5.911  11.865 -0.9444 -0.5131  0.5419
12580SOL     OW39180   3.041   0.404   7.056 -0.1281  0.0872 -0.1646
12580SOL    HW139181   3.127   0.437   7.081 -1.2805  2.7796  0.6788
12580SOL    HW239182   3.002   0.476   7.006 -2.3585 -0.4776  0.6527
12581SOL     OW39183   2.332   3.048   0.339  0.3753  0.2862 -0.0316
12581SOL    HW139184   2.257   3.027   0.394 -0.0382  0.3590 -0.5549
12581SOL    HW239185   2.313   3.006   0.255  0.5947  0.8786 -0.3841
12582SOL     OW39186   0.319   4.085   7.506  0.7362 -0.1895  0.3671
12582SOL    HW139187   0.371   4.141   7.448 -0.2411 -1.0905 -1.4588
12582SOL    HW239188   0.345   3.996   7.482  0.3820 -0.5840  1.4135
12583SOL     OW39189   1.451   1.059   8.617  0.3432 -0.0133 -0.4889
12583SOL    HW139190   1.529   1.096   8.575  1.5400 -2.2423 -0.3912
12583SOL    HW239191   1.438   0.975   8.574 -0.5157 -0.7868  1.2015
12584SOL     OW39192   1.831   1.408   3.955  0.4849 -0.5011 -0.5372
12584SOL    HW139193   1.845   1.439   4.045 -0.5447 -0.3717 -0.4095
12584SOL    HW239194   1.818   1.314   3.964 -1.9441 -0.1811 -0.2482
12585SOL     OW39195   3.792   0.267   9.707  0.3969  0.8665  0.2466
12585SOL    HW139196   3.742   0.220   9.641  0.8819 -0.4969  0.8174
12585SOL    HW239197   3.726   0.311   9.761 -0.0253  1.4571 -0.7307
12586SOL     OW39198   5.742   5.753   8.780 -0.1936  0.1081  0.2747
12586SOL    HW139199   5.655   5.765   8.743 -0.7705  1.0944  1.8660
12586SOL    HW239200   5.788   5.699   8.716 -1.3280  1.2013 -1.5449
12587SOL     OW39201   0.563   7.352   0.235  0.2179 -0.6123 -0.3507
12587SOL    HW139202   0.623   7.302   0.290  0.1938 -1.0676 -0.7364
12587SOL    HW239203   0.486   7.367   0.291 -0.2686 -2.0121 -0.5919
12588SOL     OW39204   4.389   4.398   4.209 -0.1558  0.1972 -0.4582
12588SOL    HW139205   4.461   4.355   4.255  0.3221  1.4041 -0.0132
12588SOL    HW239206   4.318   4.401   4.273 -0.5974 -0.9213 -0.8709
12589SOL     OW39207   6.286   4.762   4.963 -0.3722  0.3839 -0.1807
12589SOL    HW139208   6.306   4.759   4.870 -1.8605 -0.1952 -0.5004
12589SOL    HW239209   6.220   4.830   4.972 -1.6832 -0.8866  0.1329
12590SOL     OW39210   5.757   6.556  12.046 -0.4795 -0.2433  0.2896
12590SOL    HW139211   5.704   6.544  11.967 -0.6900  0.3108  0.3437
12590SOL    HW239212   5.693   6.573  12.116 -0.3913 -1.9901  0.8520
12591SOL     OW39213   4.999   3.800   6.782  0.4287  0.0398 -0.2044
12591SOL    HW139214   4.997   3.797   6.686  0.4453  0.7815 -0.2347
12591SOL    HW239215   5.091   3.790   6.805  0.5779  1.0628 -0.3234
12592SOL     OW39216   6.232   3.469   2.248 -0.1588 -0.3632 -0.2621
12592SOL    HW139217   6.147   3.515   2.251 -0.4350 -0.8743 -0.1757
12592SOL    HW239218   6.272   3.490   2.332  0.1854  0.5909 -0.6476
12593SOL     OW39219   6.354   5.191  12.008 -0.0566  0.1976  0.1563
12593SOL    HW139220   6.283   5.224  11.952 -0.8096  2.4354  2.2782
12593SOL    HW239221   6.310   5.131  12.068  0.6360 -1.6472 -1.0805
12594SOL     OW39222   6.967   5.872   1.645  0.2865 -0.0243  0.2743
12594SOL    HW139223   7.010   5.946   1.688 -1.4985  1.7778 -0.8603
12594SOL    HW239224   6.879   5.870   1.684 -0.4147 -0.1425 -1.2458
12595SOL     OW39225   0.274   1.203   5.810  0.1470 -0.1106 -0.1449
12595SOL    HW139226   0.238   1.252   5.884 -1.0022  0.5332 -1.0949
12595SOL    HW239227   0.357   1.247   5.791  0.5046 -0.3416  0.7950
12596SOL     OW39228   0.878   2.457   1.561 -0.6503  0.5178 -0.0952
12596SOL    HW139229   0.848   2.412   1.483  2.2499  0.1995 -1.1435
12596SOL    HW239230   0.839   2.544   1.555 -1.4994  0.0746 -1.2109
12597SOL     OW39231   5.334   1.004   0.060 -0.1499  0.2544  0.4109
12597SOL    HW139232   5.318   0.913   0.084 -1.6357  0.4026  0.0912
12597SOL    HW239233   5.285   1.016  -0.022  1.3472  0.9107 -0.4356
12598SOL     OW39234   2.869   1.583   0.731  0.7939  0.0599  0.1703
12598SOL    HW139235   2.863   1.575   0.826  0.2079  0.8918  0.2183
12598SOL    HW239236   2.898   1.673   0.717 -0.3107  0.3288 -0.4587
12599SOL     OW39237   7.767   2.117   3.051  0.1845 -0.4192 -0.0385
12599SOL    HW139238   7.763   2.024   3.028 -0.3705 -0.1461 -1.1271
12599SOL    HW239239   7.805   2.119   3.138  1.3546 -1.6089 -0.4877
12600SOL     OW39240   0.448   1.246   0.310 -0.1306 -0.4964 -0.1222
12600SOL    HW139241   0.422   1.193   0.235 -1.8555  0.8316 -0.5387
12600SOL    HW239242   0.366   1.271   0.352  0.7762 -1.0749  2.1666
12601SOL     OW39243   2.548   0.494   9.340 -0.4536 -0.5811 -0.5481
12601SOL    HW139244   2.506   0.465   9.420 -1.7045  0.6007 -0.7317
12601SOL    HW239245   2.607   0.565   9.368  0.0466 -0.9989 -0.5272
12602SOL     OW39246   1.392   5.549  10.566 -0.9538  0.0722  0.4399
12602SOL    HW139247   1.479   5.578  10.593 -1.0735  1.7617 -0.8342
12602SOL    HW239248   1.342   5.543  10.648  0.3328 -0.9881  1.1868
12603SOL     OW39249   0.427   7.834   9.970  0.3986  0.1804 -0.3142
12603SOL    HW139250   0.417   7.805   9.879 -1.4642  2.6382 -1.0027
12603SOL    HW239251   0.341   7.823  10.008  0.6228  1.1617  0.5060
12604SOL     OW39252   2.702   3.270   5.918 -0.0862 -1.0619 -0.0861
12604SOL    HW139253   2.706   3.179   5.889 -1.0401 -1.2641  0.3973
12604SOL    HW239254   2.661   3.316   5.845 -1.5138 -1.3882  0.4934
12605SOL     OW39255   1.550   2.710   5.036 -0.1304 -0.1474  0.1732
12605SOL    HW139256   1.601   2.651   4.981  2.2654  1.1648  0.8504
12605SOL    HW239257   1.577   2.689   5.125  0.3213  1.5046  0.4617
12606SOL     OW39258   3.315   2.472   3.159 -0.1045 -0.6584  0.8344
12606SOL    HW139259   3.232   2.433   3.130 -1.2422  1.1915  1.4034
12606SOL    HW239260   3.375   2.456   3.087 -1.3081 -0.9953 -0.1399
12607SOL     OW39261   7.265   0.150  10.939  0.3018 -0.0708 -0.2051
12607SOL    HW139262   7.240   0.112  11.024  0.3307 -0.6769 -0.4642
12607SOL    HW239263   7.231   0.240  10.942 -0.6739 -0.4407  0.0011
12608SOL     OW39264   3.091   5.417  11.506  0.2623  0.3481  0.2749
12608SOL    HW139265   3.071   5.352  11.439 -2.9658 -0.6482  1.9933
12608SOL    HW239266   3.172   5.386  11.546  0.8725 -0.4060 -1.4683
12609SOL     OW39267   6.155   4.152   2.916 -0.3331  0.0403  0.0774
12609SOL    HW139268   6.164   4.222   2.981 -1.0068 -0.6397  0.9325
12609SOL    HW239269   6.188   4.190   2.835 -0.1412  1.1496  0.6549
12610SOL     OW39270   7.431   1.190  11.408 -0.4411 -0.4166  0.3196
12610SOL    HW139271   7.343   1.186  11.445 -0.0231 -0.5787  1.3140
12610SOL    HW239272   7.419   1.167  11.315 -1.1984 -2.2983  0.8372
12611SOL     OW39273   7.909   1.815  11.036 -0.1395  0.4061  0.1615
12611SOL    HW139274   7.824   1.772  11.025  0.4298 -0.2203 -2.9152
12611SOL    HW239275   7.954   1.761  11.101 -0.8124 -1.4792 -0.8465
12612SOL     OW39276   2.468   5.001   9.470 -0.5018 -0.1666  0.4135
12612SOL    HW139277   2.512   4.947   9.535  0.1947 -0.2624 -0.1330
12612SOL    HW239278   2.456   5.086   9.513 -0.8694 -0.5014  0.9833
12613SOL     OW39279   2.076   2.481   9.824 -0.7325 -0.1813 -0.3188
12613SOL    HW139280   2.083   2.420   9.751  0.2446 -0.8530  0.3079
12613SOL    HW239281   1.997   2.454   9.870 -1.2893  0.1745 -1.0451
12614SOL     OW39282   3.251   5.262   0.982  0.6927  0.2229 -0.2403
12614SOL    HW139283   3.184   5.194   0.981  0.8093  0.1108 -0.7503
12614SOL    HW239284   3.248   5.300   0.895  2.0246 -0.5075 -0.6309
12615SOL     OW39285   5.034   1.945  10.925 -0.2084  0.1601 -0.6033
12615SOL    HW139286   5.125   1.971  10.913 -0.7340  1.8241 -1.2423
12615SOL    HW239287   4.992   2.022  10.962 -0.9882 -1.2219  1.5584
12616SOL     OW39288   1.854   2.070  11.094  0.3220  0.0552  0.1743
12616SOL    HW139289   1.881   1.995  11.147 -0.8487 -0.1380  0.5393
12616SOL    HW239290   1.758   2.068  11.097  0.2630  1.4170 -0.0213
12617SOL     OW39291   2.683   6.286   7.656  0.1517  0.1055  0.3103
12617SOL    HW139292   2.615   6.227   7.625  3.4464 -3.6197 -0.5948
12617SOL    HW239293   2.675   6.363   7.599 -3.3701  0.0256  0.4854
12618SOL     OW39294   6.413   3.630   8.227 -0.0343  0.0693 -0.1455
12618SOL    HW139295   6.324   3.609   8.201  0.3870 -3.4372  0.7838
12618SOL    HW239296   6.414   3.617   8.322  1.3681  0.5637 -0.0606
12619SOL     OW39297   5.382   5.100   9.573 -0.1845 -0.6446 -0.1047
12619SOL    HW139298   5.343   5.067   9.653  0.8389 -1.3069  0.1454
12619SOL    HW239299   5.309   5.113   9.513 -1.1524  1.2372  1.3801
12620SOL     OW39300   2.940   7.492   5.923 -0.2960  0.0661  0.2365
12620SOL    HW139301   3.019   7.444   5.898  0.0769  0.2795  0.9845
12620SOL    HW239302   2.973   7.574   5.959 -0.9313  1.3066 -1.8153
12621SOL     OW39303   5.250   6.208   2.756  0.1501 -0.0946 -0.2432
12621SOL    HW139304   5.183   6.259   2.803 -0.2197 -1.2381  0.5158
12621SOL    HW239305   5.332   6.254   2.775 -0.0399 -0.3362  1.2785
12622SOL     OW39306   4.655   6.903   9.037 -0.0463 -0.6127  0.1533
12622SOL    HW139307   4.591   6.963   8.999 -0.1481 -0.8221 -0.0046
12622SOL    HW239308   4.731   6.958   9.056  0.7793 -0.8485 -2.1797
12623SOL     OW39309   7.437   7.018  12.337  0.6605 -0.2039  0.4199
12623SOL    HW139310   7.457   7.003  12.244 -0.1191  0.8905  0.0537
12623SOL    HW239311   7.490   6.954  12.383 -0.5816 -2.2810 -0.8912
12624SOL     OW39312   1.635   0.962  10.416  0.3006  0.2439  0.4414
12624SOL    HW139313   1.619   0.872  10.445  0.3649  0.5003  1.2924
12624SOL    HW239314   1.554   1.009  10.435  0.7756  0.7071  1.4052
12625SOL     OW39315   2.875   7.722  10.494  0.7018 -0.2209 -0.0259
12625SOL    HW139316   2.891   7.652  10.430 -2.1664 -0.3500 -0.7537
12625SOL    HW239317   2.799   7.692  10.544 -1.0274  2.5613 -0.7634
12626SOL     OW39318   5.088   1.883   3.713 -0.9366 -0.4769  0.5301
12626SOL    HW139319   5.142   1.839   3.778 -0.0668  0.2342  0.3086
12626SOL    HW239320   5.150   1.928   3.656 -1.7324 -0.1989 -0.1472
12627SOL     OW39321   5.481   2.950   0.755 -0.2259  0.0740  0.3345
12627SOL    HW139322   5.500   3.026   0.701  0.1552  0.9351  1.6502
12627SOL    HW239323   5.460   2.881   0.692 -0.5060  1.2273 -0.8847
12628SOL     OW39324   2.136   2.351   1.278 -0.2237  0.0925 -0.0077
12628SOL    HW139325   2.161   2.440   1.301  2.4020 -0.7948  0.9245
12628SOL    HW239326   2.042   2.356   1.260 -0.5812  2.6286  2.0618
12629SOL     OW39327   5.214   7.699  11.537 -0.2327 -0.2707 -0.0644
12629SOL    HW139328   5.124   7.688  11.507 -0.5128  0.0607  0.6439
12629SOL    HW239329   5.206   7.727  11.628  0.5921 -0.5527  0.1066
12630SOL     OW39330   3.425   6.476  10.732 -0.1278  0.3261 -0.5242
12630SOL    HW139331   3.382   6.393  10.755 -1.6915  0.8286 -1.4866
12630SOL    HW239332   3.477   6.455  10.655 -1.7146  0.5338 -1.6915
12631SOL     OW39333   6.955   2.041   5.993  0.0842 -0.5746  0.4092
12631SOL    HW139334   7.026   2.009   5.937  0.0032 -1.7218  0.9385
12631SOL    HW239335   6.955   1.982   6.068 -1.8358 -0.9988  0.1325
12632SOL     OW39336   6.362   5.639   7.868  0.4397 -0.1822  0.4460
12632SOL    HW139337   6.365   5.724   7.912 -1.4953 -0.0769  0.4826
12632SOL    HW239338   6.346   5.576   7.939  0.7256 -0.4325  0.2889
12633SOL     OW39339   6.271   6.088   5.758  0.3274  0.2434  0.0309
12633SOL    HW139340   6.190   6.058   5.799  0.4424 -1.4121 -0.8712
12633SOL    HW239341   6.254   6.081   5.664  1.3472  0.3415 -0.1733
12634SOL     OW39342   5.270   6.598   2.773  0.0679 -0.1059  0.1294
12634SOL    HW139343   5.208   6.530   2.803  0.4487 -0.1348  0.8791
12634SOL    HW239344   5.306   6.563   2.692 -0.1959 -0.5257  0.1879
12635SOL     OW39345   6.636   0.450  11.713  0.0872 -0.1615  0.0454
12635SOL    HW139346   6.657   0.492  11.630  1.5460 -0.6325  0.1522
12635SOL    HW239347   6.563   0.392  11.692 -1.3138  1.6445 -0.3119
12636SOL     OW39348   5.261   2.726   3.378  0.1322 -0.5677 -0.2446
12636SOL    HW139349   5.223   2.670   3.311  1.7270 -1.8041 -0.1720
12636SOL    HW239350   5.354   2.728   3.358  0.4683  0.0290  1.2138
12637SOL     OW39351   2.077   6.228   8.247  0.1455 -0.0069  0.4109
12637SOL    HW139352   2.143   6.221   8.316  0.9716  0.5566 -0.3039
12637SOL    HW239353   2.091   6.315   8.209 -1.7123  0.5626  0.9341
12638SOL     OW39354   4.871   2.967   3.656  0.0908  0.1260 -0.1945
12638SOL    HW139355   4.951   2.961   3.604  0.2185 -0.2189  0.0382
12638SOL    HW239356   4.886   3.040   3.716  0.2766 -0.0188 -0.0676
12639SOL     OW39357   2.098   5.307   6.943  0.2474  0.6677 -0.2103
12639SOL    HW139358   2.145   5.292   7.025 -1.0381  0.3857  0.5121
12639SOL    HW239359   2.014   5.343   6.970 -0.9615 -1.2071 -1.2486
12640SOL     OW39360   5.201   2.780   4.517 -0.2230  0.0767 -0.3560
12640SOL    HW139361   5.254   2.797   4.439 -0.4313  1.9830 -0.1334
12640SOL    HW239362   5.121   2.738   4.483 -0.5776  1.4395 -1.2682
12641SOL     OW39363   2.443   3.533  11.200  0.3587 -0.3942  0.0212
12641SOL    HW139364   2.509   3.467  11.217  0.8001 -0.3949 -1.5176
12641SOL    HW239365   2.360   3.489  11.218  0.7373 -0.4757  1.6999
12642SOL     OW39366   1.967   5.249   5.663 -0.1952 -0.0991  0.1573
12642SOL    HW139367   1.960   5.164   5.620 -0.7733  0.4763 -0.9034
12642SOL    HW239368   2.060   5.255   5.687 -0.1592 -1.0464  0.3011
12643SOL     OW39369   5.410   4.466   8.383  0.3678 -0.5680  0.4116
12643SOL    HW139370   5.441   4.472   8.473 -1.8071 -1.4073  1.2724
12643SOL    HW239371   5.380   4.376   8.373 -0.8340 -0.0930 -0.6332
12644SOL     OW39372   0.459   7.788  12.206 -0.7104  0.5710  0.0903
12644SOL    HW139373   0.392   7.724  12.229 -1.1814  0.8041 -0.5765
12644SOL    HW239374   0.409   7.862  12.170 -0.1062  0.7894 -0.3099
12645SOL     OW39375   6.794   1.556   9.288  0.0282 -0.4576  0.1345
12645SOL    HW139376   6.839   1.630   9.329  1.6263 -2.1374  1.6296
12645SOL    HW239377   6.809   1.568   9.194 -0.7589  1.6863  0.2314
12646SOL     OW39378   5.670   2.690   9.571 -0.2882  0.1151  0.7117
12646SOL    HW139379   5.625   2.645   9.500  1.0932  0.5680 -0.5074
12646SOL    HW239380   5.681   2.624   9.639 -2.1081 -0.1821  0.7491
12647SOL     OW39381   1.945   4.844   6.392  0.5669  0.3192 -0.3315
12647SOL    HW139382   1.878   4.775   6.391 -0.9012  1.6337  1.2368
12647SOL    HW239383   2.028   4.797   6.392 -0.2591 -1.3769 -2.8395
12648SOL     OW39384   0.846   1.496   4.766  0.0671  0.0675 -0.7033
12648SOL    HW139385   0.754   1.511   4.742  0.1911  0.2134 -1.0947
12648SOL    HW239386   0.895   1.517   4.687  0.6868  2.7656  0.2752
12649SOL     OW39387   6.475   1.993   8.479 -0.1170  0.1783 -0.1533
12649SOL    HW139388   6.428   2.023   8.557 -0.3062  0.7831 -0.4913
12649SOL    HW239389   6.448   2.053   8.410 -0.9447 -1.1251 -1.0027
12650SOL     OW39390   4.425   4.044   0.737 -0.2024  0.3925 -0.3388
12650SOL    HW139391   4.412   3.982   0.809 -0.9019 -0.1786 -0.9490
12650SOL    HW239392   4.376   4.122   0.764  2.3991  1.5636  1.4345
12651SOL     OW39393   1.427   3.059  12.412 -0.1210  0.6102 -0.0400
12651SOL    HW139394   1.356   3.029  12.468  0.0504  0.2540 -0.0091
12651SOL    HW239395   1.460   2.980  12.370  0.7509  0.6627  0.5194
12652SOL     OW39396   1.117   0.549   4.796 -0.1637 -0.4451 -0.1151
12652SOL    HW139397   1.022   0.558   4.801 -0.1629 -0.7768  0.6211
12652SOL    HW239398   1.142   0.507   4.879  0.9911  2.5792  1.2006
12653SOL     OW39399   0.060   5.640   9.770  0.5511  0.3846  0.0469
12653SOL    HW139400  -0.011   5.699   9.744  1.5761  1.0915 -1.2759
12653SOL    HW239401   0.094   5.605   9.688  2.1391  0.5644  0.5784
12654SOL     OW39402   0.642   1.170  11.264  0.3910  0.2015  0.3563
12654SOL    HW139403   0.610   1.112  11.195  1.1847 -0.9131  0.8839
12654SOL    HW239404   0.736   1.176  11.248  0.4113  0.8406  0.6893
12655SOL     OW39405   6.244   5.663   2.245 -0.1459 -0.6203 -0.6313
12655SOL    HW139406   6.244   5.635   2.337 -0.2583 -0.7644 -0.6743
12655SOL    HW239407   6.336   5.675   2.223 -0.1587  0.3635 -0.2114
12656SOL     OW39408   5.943   0.795   1.175  0.1139 -0.6308  0.1595
12656SOL    HW139409   6.008   0.862   1.196 -1.0258  0.2529  0.9864
12656SOL    HW239410   5.975   0.755   1.094  1.7240 -0.2923  0.5887
12657SOL     OW39411   7.540   3.216   0.122  0.4450 -0.3304  0.3885
12657SOL    HW139412   7.517   3.209   0.214 -0.6529 -2.9823  0.0338
12657SOL    HW239413   7.561   3.126   0.096 -1.7820 -0.1937 -2.4695
12658SOL     OW39414   1.812   5.127   5.874  0.0334  0.1205  0.0594
12658SOL    HW139415   1.872   5.161   5.941  0.5703  0.7612 -0.7197
12658SOL    HW239416   1.837   5.174   5.794  0.5553 -1.8491 -1.0024
12659SOL     OW39417   2.936   1.784  12.059 -0.6628 -0.0920 -0.0675
12659SOL    HW139418   3.011   1.842  12.046 -0.1579 -0.5591  0.6920
12659SOL    HW239419   2.878   1.832  12.118 -0.9461  0.2473 -0.6132
12660SOL     OW39420   7.578   2.550  11.057  0.3280 -0.1405  0.1355
12660SOL    HW139421   7.518   2.477  11.045 -0.1251  0.1671  0.4887
12660SOL    HW239422   7.612   2.568  10.969  0.7766 -1.0491  0.1154
12661SOL     OW39423   4.303   5.565   6.918 -0.3393  0.4519  0.8695
12661SOL    HW139424   4.247   5.635   6.884  1.3867  1.3917 -0.1950
12661SOL    HW239425   4.350   5.606   6.991  1.3831  0.8027 -0.3503
12662SOL     OW39426   5.922   2.186  10.867  0.3381  0.4243 -0.4129
12662SOL    HW139427   5.922   2.249  10.940 -0.9273  1.3938 -1.2049
12662SOL    HW239428   5.861   2.117  10.895  2.8549 -1.3623  1.1159
12663SOL     OW39429   1.190   3.606   5.738 -0.6037 -0.2685  0.1476
12663SOL    HW139430   1.182   3.626   5.831 -0.1334 -1.0671  0.3733
12663SOL    HW239431   1.214   3.689   5.697 -0.9169  0.1085  0.7219
12664SOL     OW39432   1.759   5.353   7.642  0.6172  0.9370  0.0360
12664SOL    HW139433   1.666   5.333   7.648  0.5458  1.5823  1.4003
12664SOL    HW239434   1.802   5.267   7.648  0.1897  0.8245  2.3566
12665SOL     OW39435   1.824   5.918   7.458 -0.3895  0.1755 -0.5653
12665SOL    HW139436   1.769   5.936   7.381 -0.5146 -1.9101 -1.0381
12665SOL    HW239437   1.903   5.878   7.422  0.4673  1.0641  0.2780
12666SOL     OW39438   6.090   0.989   8.437  0.4362  0.0746  0.2486
12666SOL    HW139439   6.168   0.998   8.382 -0.1515 -0.5488 -0.7174
12666SOL    HW239440   6.098   0.902   8.475  1.1696  0.7455  1.7218
12667SOL     OW39441   1.568   3.882   5.830  0.0262 -0.5053 -0.4407
12667SOL    HW139442   1.475   3.893   5.811 -0.3943 -0.8394  1.2628
12667SOL    HW239443   1.580   3.922   5.916  1.1586 -1.6723 -0.0233
12668SOL     OW39444   1.871   3.316   0.232 -0.0363 -0.3244 -0.7209
12668SOL    HW139445   1.966   3.301   0.241 -0.1021 -0.4026 -0.0526
12668SOL    HW239446   1.845   3.350   0.318 -0.8094 -1.3859 -0.5235
12669SOL     OW39447   7.104   3.691   9.974 -0.5553 -0.4121 -0.0690
12669SOL    HW139448   7.046   3.766   9.989 -0.4616 -0.3053 -0.2373
12669SOL    HW239449   7.065   3.620  10.025  0.0522  0.0765  1.1248
12670SOL     OW39450   0.336   6.639   6.091  0.0012  0.5049 -0.2921
12670SOL    HW139451   0.310   6.548   6.077 -1.2432  0.8377 -0.2680
12670SOL    HW239452   0.431   6.637   6.094 -0.0254 -0.8797  0.2669
12671SOL     OW39453   0.172   1.838   5.224  0.5814  0.3956 -0.0618
12671SOL    HW139454   0.085   1.800   5.213  1.2843 -1.3549  0.2701
12671SOL    HW239455   0.157   1.920   5.272 -0.7252 -0.6765  1.4174
12672SOL     OW39456   6.456   0.264   6.784  0.2420  0.1068 -0.0898
12672SOL    HW139457   6.508   0.266   6.864  0.0764 -0.5690  0.0444
12672SOL    HW239458   6.432   0.356   6.768  0.4943  0.2765  0.4907
12673SOL     OW39459   1.402   6.666   0.836  0.7123  0.0545 -0.5202
12673SOL    HW139460   1.342   6.718   0.782  0.0654  0.1930  0.3082
12673SOL    HW239461   1.441   6.603   0.775 -0.4486 -0.1901 -1.0478
12674SOL     OW39462   5.008   1.363   2.022 -0.3770  0.4224  0.1095
12674SOL    HW139463   5.035   1.429   1.959  1.6570  1.5816  2.0470
12674SOL    HW239464   4.913   1.370   2.026 -0.4727  0.9446 -2.0880
12675SOL     OW39465   0.017   1.689  11.265 -0.4652 -0.8116 -0.0501
12675SOL    HW139466   0.068   1.628  11.318  0.6172  0.6505  0.6877
12675SOL    HW239467  -0.037   1.736  11.329 -0.2547 -0.0481 -0.4229
12676SOL     OW39468   5.691   6.383   9.048  0.2094  0.1760  0.0192
12676SOL    HW139469   5.725   6.374   9.137  0.7045  0.0920 -0.1759
12676SOL    HW239470   5.732   6.463   9.016 -0.4271  0.5262  0.0702
12677SOL     OW39471   5.624   6.609   4.614 -0.2728 -0.0524  0.4181
12677SOL    HW139472   5.634   6.692   4.662  0.5022  0.3498 -0.3931
12677SOL    HW239473   5.636   6.541   4.681 -1.5983  0.4687  1.2280
12678SOL     OW39474   7.248   6.387   2.150 -0.1151  0.1611 -0.3128
12678SOL    HW139475   7.224   6.478   2.131 -0.0867  0.2983  0.2819
12678SOL    HW239476   7.308   6.363   2.080 -0.6966  0.3586 -0.8825
12679SOL     OW39477   1.503   7.827   9.313  0.0933  0.1422  0.1777
12679SOL    HW139478   1.582   7.880   9.298 -0.4718  0.5844 -1.4991
12679SOL    HW239479   1.499   7.769   9.238 -1.0428 -0.0545  0.3795
12680SOL     OW39480   2.668   4.088   3.618 -0.3293 -0.4102  0.2988
12680SOL    HW139481   2.740   4.055   3.565 -1.6617 -1.2921 -1.0602
12680SOL    HW239482   2.617   4.143   3.559 -0.5047  0.6118  1.3701
12681SOL     OW39483   5.138   1.717   7.265 -0.1847  0.1543 -0.3115
12681SOL    HW139484   5.054   1.676   7.244  0.7146 -2.1540  0.2972
12681SOL    HW239485   5.162   1.763   7.185 -0.8157 -1.3244 -1.3916
12682SOL     OW39486   2.681   5.982   1.809 -0.6661 -0.4962 -0.3555
12682SOL    HW139487   2.708   5.949   1.724  2.2591  0.7395 -0.0331
12682SOL    HW239488   2.730   5.929   1.872  0.2164  1.0601  0.3317
12683SOL     OW39489   6.859   1.706   8.679 -0.1507  0.4684 -0.1654
12683SOL    HW139490   6.868   1.627   8.733  1.3342  1.6855  1.5114
12683SOL    HW239491   6.840   1.673   8.592  0.7653 -1.7769  0.3924
12684SOL     OW39492   3.030   4.013   4.471  0.5814 -0.1280 -0.3863
12684SOL    HW139493   2.950   3.962   4.486  1.0088 -0.4993  0.6804
12684SOL    HW239494   2.999   4.103   4.458 -0.0233 -0.2887 -0.0988
12685SOL     OW39495   1.427   7.224  10.620 -0.2998 -0.2546 -0.7700
12685SOL    HW139496   1.354   7.171  10.654  1.6341 -1.8189  1.2499
12685SOL    HW239497   1.453   7.179  10.540 -2.0781  0.8754 -2.0553
12686SOL     OW39498   2.305   1.861  12.237  0.4382 -0.3207  0.1596
12686SOL    HW139499   2.285   1.954  12.231  2.4171  0.2972  1.9716
12686SOL    HW239500   2.384   1.850  12.184 -0.5314 -1.2941 -1.1577
12687SOL     OW39501   5.422   7.066   7.866 -0.0219 -0.0305 -0.3835
12687SOL    HW139502   5.496   7.046   7.808  0.9827  0.1892  0.7668
12687SOL    HW239503   5.424   7.161   7.876  0.4187 -0.1484  0.7529
12688SOL     OW39504   3.316   0.082   0.092  0.4372  0.4110  0.1427
12688SOL    HW139505   3.230   0.119   0.108  0.3019  1.0882 -1.8738
12688SOL    HW239506   3.322   0.076  -0.004  2.2696 -0.4749  0.2718
12689SOL     OW39507   0.839   3.029   7.262 -0.3657 -0.0315  0.4636
12689SOL    HW139508   0.855   2.961   7.328 -0.6322  0.3798  0.9596
12689SOL    HW239509   0.744   3.031   7.251 -0.2530 -0.9737 -0.8846
12690SOL     OW39510   3.674   0.906   4.178 -0.0711  0.3496 -0.0882
12690SOL    HW139511   3.735   0.980   4.179 -0.4494  0.6730 -0.2232
12690SOL    HW239512   3.597   0.940   4.131  0.5838 -0.8153 -2.1222
12691SOL     OW39513   6.542   4.071   2.166 -0.2518 -0.5117  0.0260
12691SOL    HW139514   6.529   4.019   2.246 -0.7751 -0.7595 -0.2098
12691SOL    HW239515   6.493   4.152   2.182 -1.4398 -1.0959 -0.5351
12692SOL     OW39516   6.619   7.704  11.947 -0.4284  0.3165 -0.6670
12692SOL    HW139517   6.568   7.739  12.019  0.9699 -0.1668  0.6134
12692SOL    HW239518   6.700   7.755  11.947  1.5479 -2.4759  1.0739
12693SOL     OW39519   6.352   6.093   1.417  0.1881  0.0835  0.4152
12693SOL    HW139520   6.330   6.001   1.403  0.2603  0.2456 -0.8231
12693SOL    HW239521   6.416   6.091   1.489  0.7728 -0.9008 -0.1055
12694SOL     OW39522   2.557   3.399   3.972  0.4276 -0.3807 -0.0929
12694SOL    HW139523   2.472   3.442   3.983  0.7730  0.0347  1.1705
12694SOL    HW239524   2.550   3.352   3.889 -0.7954  0.1973 -0.3392
12695SOL     OW39525   2.234   4.974   3.242 -0.5474 -0.2296 -0.0684
12695SOL    HW139526   2.302   5.037   3.266  1.1609 -1.3962 -1.5601
12695SOL    HW239527   2.165   4.986   3.307 -0.4926  3.3992 -0.5038
12696SOL     OW39528   4.102   5.031   8.147  0.0184  0.2223 -0.2429
12696SOL    HW139529   4.153   5.088   8.090  0.0832  1.1455  0.6979
12696SOL    HW239530   4.016   5.073   8.152 -0.7658 -1.1169 -1.5168
12697SOL     OW39531   4.967   1.922   3.031 -0.1008 -0.5270 -0.5516
12697SOL    HW139532   4.994   1.880   3.113  1.6474  1.9812  0.2498
12697SOL    HW239533   4.875   1.945   3.046 -0.4667 -2.0517 -0.2087
12698SOL     OW39534   0.385   2.651   8.781 -0.0308  0.1106  0.0363
12698SOL    HW139535   0.372   2.567   8.737  0.0031  0.5337 -0.7941
12698SOL    HW239536   0.479   2.657   8.795 -0.1266 -0.4305  1.0020
12699SOL     OW39537   2.184   0.172   7.092  0.2752  0.6392  0.2456
12699SOL    HW139538   2.234   0.092   7.109 -0.4463 -0.2511 -1.5074
12699SOL    HW239539   2.135   0.187   7.173 -1.0163 -1.8299  0.0370
12700SOL     OW39540   1.243   2.506   5.940  0.3349  0.3746 -0.1547
12700SOL    HW139541   1.213   2.441   6.003  1.6468  1.2860  1.4883
12700SOL    HW239542   1.222   2.468   5.855 -0.6939 -1.3002  0.7919
12701SOL     OW39543   5.271   0.138   4.171  0.1044 -0.3999 -0.4619
12701SOL    HW139544   5.252   0.231   4.174 -1.5883 -0.7383  0.3514
12701SOL    HW239545   5.288   0.113   4.262 -1.1092 -1.1811 -0.4269
12702SOL     OW39546   4.825   6.272   0.816  0.0791 -0.2823  0.0261
12702SOL    HW139547   4.752   6.326   0.846  1.0355  0.3706  1.2400
12702SOL    HW239548   4.783   6.194   0.779 -1.2150 -0.2455  1.3298
12703SOL     OW39549   2.006   3.167   3.019  0.3725  0.1067 -0.5336
12703SOL    HW139550   1.957   3.092   3.053  0.8612 -0.1773 -0.4414
12703SOL    HW239551   2.084   3.171   3.074  0.0813  1.0347 -0.1727
12704SOL     OW39552   6.573   5.067   3.817  0.1063  0.7640  0.6570
12704SOL    HW139553   6.510   4.995   3.816  1.0884 -0.1171  0.9151
12704SOL    HW239554   6.638   5.044   3.751  1.3159  0.5780  1.8698
12705SOL     OW39555   1.378   0.754   9.239 -0.3619 -0.1913 -0.5974
12705SOL    HW139556   1.305   0.735   9.298  0.5870 -3.9116 -0.3850
12705SOL    HW239557   1.350   0.721   9.154 -0.1553  1.4809 -1.3654
12706SOL     OW39558   3.346   2.089   1.501 -0.2752 -0.3607  0.0536
12706SOL    HW139559   3.396   2.136   1.433  0.1202  0.0817  0.6394
12706SOL    HW239560   3.359   2.142   1.580  1.8615 -2.4896  1.2546
12707SOL     OW39561   2.262   2.487   1.732 -0.2651 -0.5132 -0.1776
12707SOL    HW139562   2.168   2.505   1.737 -0.5084 -1.9955  1.1101
12707SOL    HW239563   2.272   2.439   1.650 -0.3133  1.1554 -1.2267
12708SOL     OW39564   3.956   3.632  10.957  0.8364  0.4831 -0.2794
12708SOL    HW139565   3.908   3.604  10.879 -2.3997 -1.6632  2.1902
12708SOL    HW239566   4.003   3.553  10.985  3.7485  1.8130 -1.1017
12709SOL     OW39567   3.268   0.845   1.804  0.4905  0.3777 -0.1214
12709SOL    HW139568   3.303   0.765   1.765 -1.2018  0.2743 -1.5325
12709SOL    HW239569   3.253   0.903   1.730 -1.9781  0.5199  0.4157
12710SOL     OW39570   4.503   4.272   4.781 -0.0834  0.2742  0.2493
12710SOL    HW139571   4.488   4.273   4.875  0.8209  0.0025  0.4055
12710SOL    HW239572   4.591   4.235   4.771  0.3719  1.5515 -0.6298
12711SOL     OW39573   4.010   1.074   2.523 -0.2449  0.0611 -0.3746
12711SOL    HW139574   4.104   1.060   2.532 -0.5497 -1.5934  0.6931
12711SOL    HW239575   3.993   1.156   2.571  0.5699  0.0778 -0.0949
12712SOL     OW39576   7.222   2.235   3.264  0.6040 -0.1358 -0.0016
12712SOL    HW139577   7.290   2.298   3.240 -0.5318  1.0063 -0.3744
12712SOL    HW239578   7.215   2.242   3.359  0.0098  0.8669 -0.0965
12713SOL     OW39579   6.861   5.537   5.654 -0.4547  0.7262 -0.5039
12713SOL    HW139580   6.876   5.444   5.673 -1.3455  0.7714  0.5070
12713SOL    HW239581   6.883   5.547   5.561  0.8625 -0.2222 -0.3254
12714SOL     OW39582   1.243   5.182   8.976  0.2293  0.1357 -0.4651
12714SOL    HW139583   1.181   5.159   9.045  1.0704 -1.4872 -0.1883
12714SOL    HW239584   1.228   5.117   8.907  0.2624  0.9627 -1.2747
12715SOL     OW39585   7.918   3.133  11.805  0.6518 -0.9557  0.3197
12715SOL    HW139586   7.970   3.173  11.736  1.6976  0.3267  1.7885
12715SOL    HW239587   7.917   3.198  11.875 -2.3845 -1.1989  0.6371
12716SOL     OW39588   2.368   3.633   7.240  0.2099 -0.0919  0.9644
12716SOL    HW139589   2.366   3.538   7.230  1.3899 -0.0740  0.3688
12716SOL    HW239590   2.276   3.659   7.241 -0.1909 -1.3943  2.9164
12717SOL     OW39591   7.488   6.886   4.796 -0.0967 -0.3365 -0.1379
12717SOL    HW139592   7.531   6.828   4.860  0.3143  1.2802  1.1106
12717SOL    HW239593   7.402   6.904   4.834 -0.3678 -0.4028 -0.7054
12718SOL     OW39594   0.507   2.155  10.003 -0.0286 -0.3097  0.4474
12718SOL    HW139595   0.460   2.237  10.019 -0.7681 -0.3370 -1.3929
12718SOL    HW239596   0.598   2.182   9.992 -0.5490  0.5902 -2.1819
12719SOL     OW39597   4.489   0.186   6.876 -0.4247 -0.2222 -0.3778
12719SOL    HW139598   4.532   0.172   6.960  1.3466 -0.2431 -1.2418
12719SOL    HW239599   4.404   0.224   6.899  0.1144  0.0132  1.4029
12720SOL     OW39600   2.499   5.514   4.422  0.3643 -0.1245 -0.4452
12720SOL    HW139601   2.424   5.566   4.451  1.6656  0.7154  1.5552
12720SOL    HW239602   2.539   5.566   4.353  0.3970  0.4948  0.0378
12721SOL     OW39603   5.810   0.305  12.302 -0.5350  0.1443 -0.5136
12721SOL    HW139604   5.738   0.242  12.293  0.0388 -0.8164  1.1828
12721SOL    HW239605   5.799   0.340  12.391  0.4398  0.8059 -0.6487
12722SOL     OW39606   2.717   2.548   3.661  0.0037  0.0807  0.5005
12722SOL    HW139607   2.806   2.585   3.662  0.2223 -0.2331 -1.8040
12722SOL    HW239608   2.730   2.456   3.684  0.2448  0.0755  0.3466
12723SOL     OW39609   4.395   4.265   1.931 -0.0927  0.6417  0.1941
12723SOL    HW139610   4.325   4.328   1.913  1.1907  2.5773  1.5660
12723SOL    HW239611   4.469   4.295   1.878 -0.3893 -1.7858 -1.7960
12724SOL     OW39612   5.877   3.125   1.405 -0.0058  0.2076 -0.9071
12724SOL    HW139613   5.836   3.160   1.484 -1.3475 -0.7557 -1.1375
12724SOL    HW239614   5.970   3.118   1.426 -0.2624  0.5380  0.3732
12725SOL     OW39615   0.227   7.692   1.722 -0.2631  0.7834 -0.0193
12725SOL    HW139616   0.222   7.726   1.633  0.1764  1.7933  0.3226
12725SOL    HW239617   0.320   7.696   1.744 -0.3346  0.2936  0.3900
12726SOL     OW39618   6.562   6.997   0.007 -0.5161 -0.4267  0.3958
12726SOL    HW139619   6.620   6.950   0.066  0.6213 -1.6122 -1.5596
12726SOL    HW239620   6.619   7.028  -0.063 -2.1205 -1.2973 -1.3973
12727SOL     OW39621   0.868   1.327   2.018  0.4530  0.5788  0.8685
12727SOL    HW139622   0.953   1.364   1.994  0.2350  2.3094  2.5543
12727SOL    HW239623   0.890   1.249   2.069  1.0623  1.0676  1.3782
12728SOL     OW39624   3.473   5.261   7.781  0.4662  0.6125  0.5633
12728SOL    HW139625   3.485   5.222   7.868 -2.2663 -1.4659  0.1357
12728SOL    HW239626   3.387   5.304   7.785 -0.0886 -0.2176 -1.3063
12729SOL     OW39627   3.842   2.817   7.463 -0.1776  0.3926 -0.3348
12729SOL    HW139628   3.847   2.910   7.440  2.2400  0.5220  0.4776
12729SOL    HW239629   3.841   2.816   7.558  3.0863 -0.3950 -0.1962
12730SOL     OW39630   1.783   6.017   4.092 -0.1366  0.4198  0.4348
12730SOL    HW139631   1.778   6.074   4.168 -0.0134  1.5246 -0.3528
12730SOL    HW239632   1.877   6.004   4.077 -0.1023  1.6106 -0.5153
12731SOL     OW39633   7.101   3.799   9.508 -0.3231 -0.1745  0.2767
12731SOL    HW139634   7.100   3.740   9.584  0.8041 -0.1428  0.3383
12731SOL    HW239635   7.186   3.843   9.513 -0.9981  1.1873  0.0124
12732SOL     OW39636   0.404   7.199   8.804  0.0985 -0.3540  0.1720
12732SOL    HW139637   0.439   7.126   8.856  1.3832 -0.5701 -0.9454
12732SOL    HW239638   0.352   7.158   8.735  1.1210 -0.2556 -0.6764
12733SOL     OW39639   2.141   6.999   2.073 -0.3054  0.4936 -0.1205
12733SOL    HW139640   2.074   6.940   2.038  0.7423  0.5250 -2.3756
12733SOL    HW239641   2.204   6.941   2.116  1.5234 -0.4068 -3.6421
12734SOL     OW39642   1.777   4.085   1.590  0.3425  0.4255 -0.6112
12734SOL    HW139643   1.712   4.021   1.621 -0.7478  0.7811 -2.0592
12734SOL    HW239644   1.859   4.036   1.588 -0.3142 -0.7115 -0.8996
12735SOL     OW39645   5.619   1.453   1.652  0.3323 -0.5860 -0.2753
12735SOL    HW139646   5.709   1.452   1.686 -0.1303 -1.5619  1.0209
12735SOL    HW239647   5.589   1.542   1.667  0.5694 -0.6639  0.7972
12736SOL     OW39648   4.383   3.615   6.093 -0.0180 -0.7361  0.4620
12736SOL    HW139649   4.464   3.601   6.044  0.0882 -0.5956  0.5927
12736SOL    HW239650   4.369   3.534   6.141  1.3460  0.0477  2.3013
12737SOL     OW39651   4.109   2.296   2.647 -0.3004  0.2545  0.1798
12737SOL    HW139652   4.177   2.341   2.698  0.3907 -0.5619  0.0079
12737SOL    HW239653   4.143   2.296   2.557 -1.9296  2.5131 -0.5096
12738SOL     OW39654   0.579   7.557   1.252 -0.3797  0.0208  0.1853
12738SOL    HW139655   0.591   7.598   1.166  0.7327  1.3454  0.9361
12738SOL    HW239656   0.667   7.546   1.286 -0.7877 -0.9027  0.9927
12739SOL     OW39657   5.273   3.968   9.561  0.0465  0.7433 -0.8073
12739SOL    HW139658   5.331   3.996   9.490  0.1516  0.1873 -0.9488
12739SOL    HW239659   5.186   3.997   9.534  0.3758  2.5689 -0.0785
12740SOL     OW39660   5.553   6.680   2.560 -0.4899  0.0600  0.7315
12740SOL    HW139661   5.647   6.679   2.542 -0.4916  0.3499  0.6992
12740SOL    HW239662   5.547   6.700   2.654 -0.5062 -0.5042  0.8549
12741SOL     OW39663   5.746   1.424   3.315 -0.1760  0.1383 -0.2846
12741SOL    HW139664   5.753   1.518   3.299  2.1251 -0.2890 -2.3709
12741SOL    HW239665   5.819   1.403   3.373 -0.0743 -0.5087 -0.6373
12742SOL     OW39666   4.938   7.192  11.020 -0.0253  0.2411  0.1425
12742SOL    HW139667   4.895   7.216  11.102 -2.0109  0.2945 -0.8444
12742SOL    HW239668   4.914   7.262  10.959  1.3459  0.1646 -0.5158
12743SOL     OW39669   6.238   2.294   0.848  0.1350  0.2706 -0.0493
12743SOL    HW139670   6.274   2.378   0.876 -0.5982 -0.1971  2.5019
12743SOL    HW239671   6.297   2.229   0.885  1.0315 -0.4176 -2.4868
12744SOL     OW39672   1.774   5.191   2.897  0.2719 -0.1783 -0.1311
12744SOL    HW139673   1.821   5.114   2.930  1.2039  0.1173 -0.7409
12744SOL    HW239674   1.807   5.264   2.949 -1.1951 -0.2616  1.0062
12745SOL     OW39675   2.174   7.012  10.175  0.4280 -0.1982 -0.2141
12745SOL    HW139676   2.183   7.102  10.146  2.1401  0.0817  1.0316
12745SOL    HW239677   2.100   7.013  10.235  1.1037  0.6456  0.6378
12746SOL     OW39678   2.778   4.464   6.935 -0.5825 -0.5493 -0.2807
12746SOL    HW139679   2.707   4.402   6.921 -0.6421 -0.1824 -1.7850
12746SOL    HW239680   2.738   4.535   6.986 -0.8733 -1.0816  0.2342
12747SOL     OW39681   1.925   4.773   6.710 -0.0578 -0.1213 -0.2943
12747SOL    HW139682   1.892   4.768   6.621  2.2817 -2.4313 -1.1707
12747SOL    HW239683   1.873   4.842   6.752 -4.7831 -2.3057 -1.8724
12748SOL     OW39684   7.378   3.096  12.264 -0.0257 -0.1138 -0.0139
12748SOL    HW139685   7.333   3.061  12.341 -1.6674  0.5225 -0.6602
12748SOL    HW239686   7.415   3.179  12.294  1.0234 -0.7581  0.5864
12749SOL     OW39687   5.068   6.378   3.786  0.0486 -0.1103 -0.4218
12749SOL    HW139688   5.142   6.357   3.844 -1.4454 -2.1029  0.8788
12749SOL    HW239689   5.022   6.295   3.774 -0.5233  0.5002 -3.4133
12750SOL     OW39690   1.374   3.507   0.145 -0.4807  0.3215 -0.2114
12750SOL    HW139691   1.458   3.505   0.098 -0.5499  0.3448 -0.3366
12750SOL    HW239692   1.350   3.415   0.155  0.3259  0.2505  1.2042
12751SOL     OW39693   7.429   2.904   2.448  0.5520 -0.2808 -0.4288
12751SOL    HW139694   7.357   2.945   2.400  1.8828  1.8352 -0.7357
12751SOL    HW239695   7.468   2.844   2.384 -1.1380 -1.7964 -0.1194
12752SOL     OW39696   7.107   7.098   9.770 -0.2615  0.3839 -0.1663
12752SOL    HW139697   7.133   7.034   9.703  3.5474  1.4691  0.0736
12752SOL    HW239698   7.070   7.045   9.840  1.0561 -1.4083 -0.7521
12753SOL     OW39699   7.018   4.510   9.973 -0.0334  0.2477 -1.0530
12753SOL    HW139700   6.970   4.497  10.054  1.0542  0.1319 -0.4178
12753SOL    HW239701   6.951   4.539   9.910 -0.6287  1.9901  0.2987
12754SOL     OW39702   6.118   1.384   8.635 -0.7579 -0.0017  0.2626
12754SOL    HW139703   6.208   1.391   8.668 -1.2866 -0.6685  1.9498
12754SOL    HW239704   6.098   1.471   8.602 -0.1440  0.6934  1.6450
12755SOL     OW39705   4.362   3.039   2.897  0.9310  0.0556  0.4380
12755SOL    HW139706   4.309   3.088   2.961  1.9442  2.9173 -0.7649
12755SOL    HW239707   4.385   2.958   2.943 -1.2060  0.4385  2.4070
12756SOL     OW39708   2.664   6.362  10.444  0.4643 -0.0329 -0.0922
12756SOL    HW139709   2.723   6.296  10.407 -0.7668  0.0756 -2.4450
12756SOL    HW239710   2.710   6.445  10.434  1.5282 -0.3227  1.8172
12757SOL     OW39711   5.457   2.790   5.413 -0.1264  0.0063  0.3916
12757SOL    HW139712   5.369   2.783   5.375  0.5044  0.7517 -1.3200
12757SOL    HW239713   5.465   2.882   5.437 -0.0381 -0.1974  1.1731
12758SOL     OW39714   3.178   7.707   9.961 -0.4400  0.2024 -0.0327
12758SOL    HW139715   3.197   7.662   9.878 -1.1254 -0.5698  0.2102
12758SOL    HW239716   3.224   7.791   9.954 -0.6943  0.2551 -1.2966
12759SOL     OW39717   0.647   3.263   5.426 -0.2292 -0.1493 -1.0857
12759SOL    HW139718   0.689   3.281   5.510 -0.1672 -0.9644 -0.9392
12759SOL    HW239719   0.712   3.291   5.361  0.4300 -1.1187 -0.8605
12760SOL     OW39720   7.862   0.264   4.329  0.3127 -0.0220  0.0160
12760SOL    HW139721   7.847   0.345   4.379  1.9420  0.9726 -1.0069
12760SOL    HW239722   7.774   0.232   4.310 -0.3795  1.3185  0.7535
12761SOL     OW39723   1.247   3.942   7.058 -0.3746  0.4191  0.1183
12761SOL    HW139724   1.273   4.032   7.036 -0.8351  0.5095 -0.0728
12761SOL    HW239725   1.243   3.897   6.973 -0.9325  0.4357  0.1293
12762SOL     OW39726   1.116   4.617  10.323 -0.3680  0.2997 -0.1247
12762SOL    HW139727   1.182   4.578  10.265 -0.0418 -0.9110  1.0042
12762SOL    HW239728   1.127   4.711  10.313  0.1282  0.1067 -1.5142
12763SOL     OW39729   1.777   5.350  12.263  0.1743 -0.2268  0.7983
12763SOL    HW139730   1.695   5.383  12.226 -0.5042 -0.1716  2.2963
12763SOL    HW239731   1.841   5.420  12.246  0.0879 -0.5066 -0.8767
12764SOL     OW39732   4.804   7.785   6.693  0.3485  0.2056 -0.4586
12764SOL    HW139733   4.837   7.708   6.646  0.2750 -0.3208  0.3230
12764SOL    HW239734   4.851   7.859   6.655  0.5189 -0.2445 -1.1350
12765SOL     OW39735   5.051   7.635   5.181 -0.3744  0.0656  0.3338
12765SOL    HW139736   5.115   7.655   5.249  0.0956 -0.3368  0.0184
12765SOL    HW239737   5.084   7.680   5.103 -1.0906  0.8066  0.4436
12766SOL     OW39738   4.590   7.459   9.675  0.7030 -0.2438  0.5207
12766SOL    HW139739   4.625   7.378   9.712  1.6122 -0.3069 -0.4352
12766SOL    HW239740   4.648   7.479   9.602  0.6189  1.3925  0.8701
12767SOL     OW39741   4.774   5.714   6.234  0.2055 -0.3660 -0.5312
12767SOL    HW139742   4.762   5.796   6.186  1.6176  0.3987  0.3505
12767SOL    HW239743   4.837   5.735   6.302  0.4778 -2.1621 -0.1735
12768SOL     OW39744   0.908   2.686   6.943 -0.1897  0.5569  0.0820
12768SOL    HW139745   0.971   2.741   6.989 -0.6017 -0.5529  2.1114
12768SOL    HW239746   0.923   2.598   6.978 -1.3248 -0.1358 -1.0940
12769SOL     OW39747   5.800   1.784   9.908  0.1297 -0.1000 -0.0087
12769SOL    HW139748   5.765   1.872   9.899 -1.4527 -0.8096 -1.1899
12769SOL    HW239749   5.813   1.773  10.002 -0.6686  1.0154  0.2509
12770SOL     OW39750   3.225   7.472   4.541  0.2691  0.2531  0.1208
12770SOL    HW139751   3.296   7.442   4.484  2.4667 -1.6544  3.4601
12770SOL    HW239752   3.161   7.401   4.539  1.2767 -0.7507  1.3522
12771SOL     OW39753   5.173   3.442   7.106  0.4679  0.0487 -0.1061
12771SOL    HW139754   5.159   3.535   7.124 -3.1986  0.1411 -2.3713
12771SOL    HW239755   5.157   3.398   7.190  0.6520  1.3399  0.6268
12772SOL     OW39756   2.785   1.291   1.401  0.6552 -0.1756 -0.2637
12772SOL    HW139757   2.846   1.295   1.327  0.9516  0.2666  0.0017
12772SOL    HW239758   2.744   1.205   1.393  1.3423 -0.4976 -0.4213
12773SOL     OW39759   4.897   0.562  10.646 -0.5484 -0.4925 -0.2281
12773SOL    HW139760   4.914   0.473  10.616 -1.9993 -0.8308 -0.1427
12773SOL    HW239761   4.847   0.551  10.727 -1.9196  0.3574 -0.9075
12774SOL     OW39762   3.464   7.854   3.664 -0.4639 -0.3850 -0.1297
12774SOL    HW139763   3.546   7.895   3.639 -0.3257 -0.0693  0.8020
12774SOL    HW239764   3.487   7.801   3.741 -0.7917 -1.6179 -0.8568
12775SOL     OW39765   5.152   1.063   4.226 -0.4870  0.4796  0.0814
12775SOL    HW139766   5.154   1.095   4.316  1.7358  0.4459  0.1136
12775SOL    HW239767   5.151   1.142   4.172  0.2690  0.5482  0.1568
12776SOL     OW39768   5.674   7.943   9.336 -0.5576 -0.3923 -0.6658
12776SOL    HW139769   5.578   7.947   9.332 -0.6243 -1.8270 -1.0547
12776SOL    HW239770   5.692   7.878   9.404  0.2061  1.5338  1.0645
12777SOL     OW39771   3.333   2.462  10.831 -0.1669 -0.2167  0.3131
12777SOL    HW139772   3.237   2.465  10.826 -0.2171 -1.7577 -0.2566
12777SOL    HW239773   3.357   2.540  10.881 -1.6165  0.9470 -0.7341
12778SOL     OW39774   3.630   6.570   6.774 -0.2033  1.0441  0.0248
12778SOL    HW139775   3.564   6.634   6.798 -0.8186  0.8756 -1.1687
12778SOL    HW239776   3.687   6.565   6.851 -2.6150 -0.2052  1.8813
12779SOL     OW39777   7.658   6.674  10.113 -0.0451  0.1358  0.1659
12779SOL    HW139778   7.698   6.696  10.029 -0.7036  1.0522  0.0790
12779SOL    HW239779   7.729   6.634  10.164  0.0523 -1.6104 -1.2446
12780SOL     OW39780   2.716   2.761  12.422 -0.3190  0.1457  0.6029
12780SOL    HW139781   2.649   2.709  12.468 -0.4044 -0.5595 -0.2868
12780SOL    HW239782   2.775   2.695  12.385 -0.0330  0.7201  0.0350
12781SOL     OW39783   3.163   4.783   7.245  0.4920 -0.0158 -0.3207
12781SOL    HW139784   3.085   4.783   7.189  1.5610  1.4617 -1.8914
12781SOL    HW239785   3.198   4.695   7.237 -0.0220 -0.1659 -1.0475
12782SOL     OW39786   3.256   2.265   9.928 -0.0268 -0.1907 -0.0625
12782SOL    HW139787   3.258   2.321  10.006  0.2832  0.4344 -0.5069
12782SOL    HW239788   3.200   2.191   9.952  0.9487 -0.5847  1.1411
12783SOL     OW39789   5.689   6.675  11.217 -0.0410  0.1962 -0.2433
12783SOL    HW139790   5.743   6.621  11.160 -1.2848 -0.0938 -1.1904
12783SOL    HW239791   5.676   6.757  11.169  1.1840  1.0685  0.8476
12784SOL     OW39792   6.330   0.518   5.699 -1.2088 -0.0829 -0.0212
12784SOL    HW139793   6.335   0.489   5.608 -0.4810 -1.9998  0.5787
12784SOL    HW239794   6.413   0.491   5.738 -2.0850 -0.6692  1.5704
12785SOL     OW39795   7.127   2.205   8.851 -0.2945  0.0688 -0.4345
12785SOL    HW139796   7.052   2.172   8.899  0.8273 -0.3959  1.0694
12785SOL    HW239797   7.195   2.218   8.917  0.9127  0.6082 -1.7167
12786SOL     OW39798   7.294   1.238   8.167 -0.5007  0.3705 -0.4062
12786SOL    HW139799   7.360   1.169   8.165 -0.2564  0.5894  0.0888
12786SOL    HW239800   7.332   1.309   8.115  0.0218  0.8185  0.5612
12787SOL     OW39801   4.226   7.780  10.641 -0.3127  0.6167 -0.2952
12787SOL    HW139802   4.249   7.692  10.611 -0.4897  0.5575 -0.2596
12787SOL    HW239803   4.197   7.826  10.562 -0.1592  0.6625 -0.3249
12788SOL     OW39804   5.854   0.852   7.931  0.0482  0.3520  0.8028
12788SOL    HW139805   5.883   0.915   7.997 -0.5262  2.2363 -0.6658
12788SOL    HW239806   5.761   0.841   7.947 -0.1495  1.0258  0.1658
12789SOL     OW39807   4.053   1.357   4.901 -0.5213 -0.6015 -0.0279
12789SOL    HW139808   4.024   1.394   4.817  0.6738  1.6081  0.4548
12789SOL    HW239809   4.109   1.425   4.938 -0.3082 -1.9132  2.1693
12790SOL     OW39810   5.679   7.569   0.814 -0.5325  0.1313 -0.3639
12790SOL    HW139811   5.737   7.582   0.739 -2.1901 -0.9855 -1.9124
12790SOL    HW239812   5.682   7.653   0.861  0.6343  0.8289 -1.6046
12791SOL     OW39813   5.530   5.199   1.841 -0.3276  0.4280 -0.1230
12791SOL    HW139814   5.463   5.266   1.858  1.4414  2.0230  1.0092
12791SOL    HW239815   5.587   5.239   1.775  0.6837  0.0105  0.4685
12792SOL     OW39816   2.017   2.061   9.176  0.0652  0.1803  0.3821
12792SOL    HW139817   1.927   2.028   9.170  1.1485 -3.0623  0.2766
12792SOL    HW239818   2.009   2.155   9.159 -3.2971  0.0342  0.5453
12793SOL     OW39819   1.393   0.103  12.446 -0.3774  0.2384  0.0243
12793SOL    HW139820   1.333   0.047  12.399  0.5001 -1.4951  0.8869
12793SOL    HW239821   1.444   0.147  12.378 -0.9088 -0.2125 -0.6676
12794SOL     OW39822   2.630   0.923   9.810 -0.1908 -0.7732  0.5001
12794SOL    HW139823   2.600   1.002   9.856  0.6586 -0.0222 -0.2045
12794SOL    HW239824   2.644   0.952   9.720 -1.1231 -2.0500 -0.0899
12795SOL     OW39825   5.022   4.314   8.034  0.2517  0.8019  0.1451
12795SOL    HW139826   5.030   4.343   8.125  2.6800 -2.2552  1.1082
12795SOL    HW239827   4.951   4.250   8.035  0.3694  0.6656 -0.0709
12796SOL     OW39828   5.221   6.745   3.314  0.3103 -0.5400 -0.5033
12796SOL    HW139829   5.232   6.825   3.263 -0.4955 -0.0731  0.0229
12796SOL    HW239830   5.273   6.679   3.268  1.1591  0.3393 -0.8151
12797SOL     OW39831   5.915   5.103  12.223 -0.6900  0.0567 -0.4921
12797SOL    HW139832   5.927   5.012  12.196 -0.8089 -0.1856  0.2552
12797SOL    HW239833   5.824   5.108  12.252  0.0712 -0.3789  2.3038
12798SOL     OW39834   7.631   5.951   6.208 -0.4118 -0.0932  0.2019
12798SOL    HW139835   7.599   5.901   6.283 -1.1246 -0.1781 -0.1503
12798SOL    HW239836   7.584   5.915   6.133 -0.4549  0.6763 -0.1465
12799SOL     OW39837   0.387   1.823   2.553  0.0481  0.0858 -0.0777
12799SOL    HW139838   0.483   1.826   2.557  0.0787 -1.4284  1.4868
12799SOL    HW239839   0.359   1.892   2.614  0.1093  0.9796 -1.0375
12800SOL     OW39840   2.927   5.470   7.063  0.3467 -0.6864  0.0625
12800SOL    HW139841   2.888   5.471   6.975 -1.3629  0.7946  0.7701
12800SOL    HW239842   2.913   5.381   7.093 -0.4971 -0.7976 -0.5916
12801SOL     OW39843   0.229   3.328   9.536 -0.2425 -0.4564 -0.6970
12801SOL    HW139844   0.253   3.415   9.565  0.4557 -1.4108  1.8233
12801SOL    HW239845   0.140   3.315   9.570 -0.0663 -0.9779 -0.4223
12802SOL     OW39846   7.288   7.671   5.489  0.4035  0.2865  0.0083
12802SOL    HW139847   7.274   7.710   5.576 -0.3215  0.8939 -0.3639
12802SOL    HW239848   7.375   7.701   5.463  0.3073  0.7425  0.2041
12803SOL     OW39849   2.281   5.508   6.059  0.4742 -0.3836 -0.1012
12803SOL    HW139850   2.263   5.565   6.134  0.0248  0.0330 -0.5189
12803SOL    HW239851   2.261   5.420   6.091 -0.3571 -0.1388  0.0737
12804SOL     OW39852   6.725   4.927   9.741  0.1314  0.7594 -0.2710
12804SOL    HW139853   6.702   5.014   9.709  2.8850  1.5372 -0.4220
12804SOL    HW239854   6.729   4.873   9.663 -3.0750  0.0007 -0.0364
12805SOL     OW39855   0.459   0.400   5.279  0.9923  0.4132 -1.0723
12805SOL    HW139856   0.429   0.478   5.233 -1.2880  0.4637  0.3556
12805SOL    HW239857   0.530   0.366   5.225  0.8797  2.4829 -2.6403
12806SOL     OW39858   0.255   4.299  12.385 -0.0377  0.2156 -0.1558
12806SOL    HW139859   0.222   4.215  12.416 -0.5430  1.0924  1.8812
12806SOL    HW239860   0.183   4.360  12.400 -0.1609  0.8180 -2.8258
12807SOL     OW39861   7.019   0.360   9.256  0.3292 -0.5659 -0.1834
12807SOL    HW139862   7.029   0.271   9.222  2.2839 -0.2010 -0.6801
12807SOL    HW239863   7.022   0.349   9.351  0.9761 -1.0020 -0.2444
12808SOL     OW39864   2.726   0.264   1.219  0.4632 -0.1265 -0.1910
12808SOL    HW139865   2.716   0.169   1.224  0.1249 -0.0479  0.8783
12808SOL    HW239866   2.792   0.285   1.286 -1.0941  0.6025  1.1916
12809SOL     OW39867   3.281   0.048   6.602 -0.3943 -0.1752 -0.2356
12809SOL    HW139868   3.327  -0.036   6.611  1.4572  0.7844 -0.2200
12809SOL    HW239869   3.343   0.104   6.555 -1.1633  1.4876  0.6584
12810SOL     OW39870   6.089   0.786   9.651 -0.3297  0.0877 -0.7599
12810SOL    HW139871   6.118   0.723   9.717  0.0852  0.1607 -0.8705
12810SOL    HW239872   6.169   0.816   9.609 -0.5356  0.5882 -0.8049
12811SOL     OW39873   1.623   6.341  12.384  0.3001 -0.0198 -0.3234
12811SOL    HW139874   1.706   6.294  12.398  0.1420 -0.4883 -0.9378
12811SOL    HW239875   1.638   6.394  12.306  0.0938  0.0637 -0.3056
12812SOL     OW39876   1.852   6.770   5.600 -0.4568  0.0498  0.5045
12812SOL    HW139877   1.817   6.757   5.512 -1.6390 -1.7679  1.1920
12812SOL    HW239878   1.911   6.845   5.591 -2.7641  1.8059 -1.1871
12813SOL     OW39879   0.442   2.243  12.461  0.1624 -0.3731  0.4310
12813SOL    HW139880   0.360   2.195  12.447 -0.1534  0.3978 -0.4529
12813SOL    HW239881   0.465   2.226  12.552  0.4985 -2.8672 -0.0476
12814SOL     OW39882   5.668   1.933   9.339 -0.8839 -0.4161 -0.2479
12814SOL    HW139883   5.590   1.940   9.394 -0.2446 -0.1567  0.6371
12814SOL    HW239884   5.741   1.923   9.400 -0.3190 -1.7208 -1.1046
12815SOL     OW39885   6.868   0.287   0.343 -0.3631  0.3193  0.0558
12815SOL    HW139886   6.916   0.244   0.272 -2.3565 -1.1823 -0.4755
12815SOL    HW239887   6.858   0.377   0.314 -0.1321  0.0107 -1.0343
12816SOL     OW39888   6.638   6.418  11.760  0.1757  0.0736 -0.5004
12816SOL    HW139889   6.727   6.439  11.788 -0.1870 -0.1062  0.8528
12816SOL    HW239890   6.627   6.466  11.678  1.9337 -0.8591 -1.3543
12817SOL     OW39891   4.036   1.653  10.376 -0.6498  0.0528 -0.0622
12817SOL    HW139892   4.104   1.597  10.338  0.8523 -0.4259  3.0582
12817SOL    HW239893   4.042   1.735  10.327  0.3327 -0.8888 -1.5878
12818SOL     OW39894   5.898   3.835   7.668 -0.6298 -0.3608 -0.1205
12818SOL    HW139895   5.991   3.830   7.647 -0.6960 -0.1227 -0.4827
12818SOL    HW239896   5.867   3.911   7.619 -0.6709  0.5836  1.3330
12819SOL     OW39897   2.670   0.273   9.807 -0.3132  0.0704 -0.3936
12819SOL    HW139898   2.650   0.216   9.733 -0.4180  0.0629 -0.3599
12819SOL    HW239899   2.707   0.214   9.873  0.7961  0.2480 -0.8332
12820SOL     OW39900   7.916   0.885   9.309  0.0720 -0.3696  0.4829
12820SOL    HW139901   7.866   0.806   9.330  0.4810 -0.9747 -0.7504
12820SOL    HW239902   8.001   0.871   9.352  0.0043 -0.4074  0.6054
12821SOL     OW39903   4.952   5.932   3.337 -0.4172  0.0720 -0.6489
12821SOL    HW139904   4.912   5.986   3.268 -2.3765 -0.5694 -0.0632
12821SOL    HW239905   4.912   5.846   3.326 -1.3544  0.1424  1.7084
12822SOL     OW39906   1.238   6.800   0.661 -0.1701  0.5000  0.5281
12822SOL    HW139907   1.229   6.895   0.656 -2.3999  0.3537  0.7728
12822SOL    HW239908   1.238   6.771   0.569 -0.4713  0.6875  0.4658
12823SOL     OW39909   2.917   5.148   9.477  0.0633  0.0198  0.1130
12823SOL    HW139910   2.888   5.211   9.543  0.2206 -0.1428  0.3373
12823SOL    HW239911   2.976   5.199   9.420  3.1198 -0.7272  2.3721
12824SOL     OW39912   2.361   0.717   2.366  1.0280  0.3007 -0.1149
12824SOL    HW139913   2.439   0.768   2.344  1.0240  1.5250  2.3011
12824SOL    HW239914   2.350   0.731   2.460 -0.8426 -1.6585  0.0281
12825SOL     OW39915   3.130   6.652   5.221 -0.0359 -0.0798 -0.2431
12825SOL    HW139916   3.061   6.628   5.283  0.1820  0.0041  0.0365
12825SOL    HW239917   3.166   6.569   5.191 -0.0128 -0.1201 -0.1072
12826SOL     OW39918   4.146   2.181   0.372 -0.0179  0.3448 -0.2280
12826SOL    HW139919   4.166   2.224   0.455 -0.2776 -0.0543  0.0505
12826SOL    HW239920   4.053   2.159   0.378 -0.8016  2.8134 -1.7952
12827SOL     OW39921   3.856   5.679   9.594  0.0534 -0.1935  0.0455
12827SOL    HW139922   3.780   5.734   9.609  0.3156 -0.0329  0.8533
12827SOL    HW239923   3.828   5.615   9.528 -0.6296  0.1485  0.0054
12828SOL     OW39924   6.353   1.906   6.753 -0.3694  0.5294  0.1556
12828SOL    HW139925   6.265   1.915   6.790 -0.2403 -0.6237  0.8107
12828SOL    HW239926   6.388   1.995   6.751 -1.0594  0.8439  1.1326
12829SOL     OW39927   7.064   0.610   1.997  0.4178  0.1529  0.8984
12829SOL    HW139928   7.073   0.572   1.910 -2.0988 -3.4307  1.9906
12829SOL    HW239929   7.144   0.661   2.009  0.7676  1.1011 -3.5242
12830SOL     OW39930   1.218   7.290   5.605 -0.2499 -0.0216  0.3236
12830SOL    HW139931   1.279   7.337   5.549 -0.2881  0.0634  0.3528
12830SOL    HW239932   1.140   7.345   5.608 -0.2585 -0.0378  0.4370
12831SOL     OW39933   0.528   5.685   4.243 -0.1568 -0.2735  0.1425
12831SOL    HW139934   0.490   5.725   4.165  2.6716  2.3290 -0.0927
12831SOL    HW239935   0.549   5.595   4.216 -0.4291  0.1658 -1.6520
12832SOL     OW39936   5.004   3.832   2.202  0.0908  0.1003 -0.1683
12832SOL    HW139937   4.923   3.793   2.170  0.4110 -0.5070 -0.2518
12832SOL    HW239938   5.073   3.775   2.168  0.6507  1.4034 -1.3051
12833SOL     OW39939   4.157   0.961   3.987 -0.2799  0.3897 -0.2520
12833SOL    HW139940   4.168   0.876   4.030 -1.3998  0.3556 -0.0180
12833SOL    HW239941   4.239   1.007   4.005 -0.7101  0.3831  1.9647
12834SOL     OW39942   2.080   0.168  10.484  0.2051 -0.0842  0.6652
12834SOL    HW139943   2.126   0.100  10.533  0.3715 -0.2033  0.3434
12834SOL    HW239944   2.120   0.250  10.515  2.1808 -0.2690 -1.1405
12835SOL     OW39945   5.514   4.042   8.898  0.1169 -0.0486 -0.3209
12835SOL    HW139946   5.502   4.094   8.819 -0.5771  1.9965  1.0191
12835SOL    HW239947   5.535   4.107   8.966 -0.5417 -1.5421  1.4027
12836SOL     OW39948   7.285   3.203   2.726  0.3120 -0.6177 -0.3859
12836SOL    HW139949   7.216   3.161   2.777 -0.0069 -0.7800 -0.9435
12836SOL    HW239950   7.237   3.256   2.661  0.6557  1.5781  1.0310
12837SOL     OW39951   7.824   1.393   1.657 -0.3004 -0.1576 -0.8185
12837SOL    HW139952   7.781   1.469   1.696  0.4152 -0.5552  0.8108
12837SOL    HW239953   7.854   1.341   1.731  1.2492 -0.8829 -1.8962
12838SOL     OW39954   2.484   0.108   5.906 -0.1896 -0.2596  0.3903
12838SOL    HW139955   2.513   0.036   5.962 -0.3555 -0.0910  0.6960
12838SOL    HW239956   2.495   0.186   5.960  0.8850  0.0664 -0.2568
12839SOL     OW39957   4.800   1.258   4.203  0.3861 -0.0832 -0.2122
12839SOL    HW139958   4.738   1.244   4.131  1.2186  0.2449 -1.0078
12839SOL    HW239959   4.844   1.340   4.181 -0.1386  0.6302  1.2620
12840SOL     OW39960   1.506   0.204   3.706  0.3313  0.6230  0.4908
12840SOL    HW139961   1.543   0.124   3.742  1.2459 -0.1397 -1.9163
12840SOL    HW239962   1.523   0.271   3.773  3.5478 -0.3061  0.7815
12841SOL     OW39963   1.452   6.601   3.690 -0.3810 -0.0185 -0.2117
12841SOL    HW139964   1.542   6.616   3.716 -0.8399  0.2733  1.2783
12841SOL    HW239965   1.400   6.660   3.746 -1.5550 -0.8064 -0.4321
12842SOL     OW39966   6.717   6.750   4.295  0.5509 -0.0933 -0.4385
12842SOL    HW139967   6.635   6.752   4.345  0.4110 -2.9387 -0.3785
12842SOL    HW239968   6.785   6.762   4.362  0.2624  0.5990 -0.2524
12843SOL     OW39969   4.982   5.257   6.097 -0.2114  0.3257 -0.0734
12843SOL    HW139970   4.947   5.274   6.184  0.0224 -0.4881  0.1834
12843SOL    HW239971   4.928   5.185   6.063  0.6967 -0.4129  0.0222
12844SOL     OW39972   0.143   7.009   2.389  0.2635  0.5872 -0.2377
12844SOL    HW139973   0.206   7.081   2.392 -1.5960  2.3156 -0.9413
12844SOL    HW239974   0.072   7.037   2.446  0.1371 -1.4038  0.6706
12845SOL     OW39975   6.657   5.701   8.199 -0.3063  0.5142 -0.1489
12845SOL    HW139976   6.630   5.766   8.133 -1.0752  0.2221 -0.1250
12845SOL    HW239977   6.749   5.721   8.215  0.0187  0.3262 -1.6303
12846SOL     OW39978   5.969   6.548   4.569  0.2006 -0.0601  0.3719
12846SOL    HW139979   6.025   6.574   4.496 -1.7946  0.4497 -1.0689
12846SOL    HW239980   5.960   6.627   4.622  2.0319 -0.5516  1.5229
12847SOL     OW39981   5.674   5.951   7.271 -0.2191 -0.2142 -0.0713
12847SOL    HW139982   5.643   5.904   7.348 -1.1503  0.8213  0.2102
12847SOL    HW239983   5.596   5.996   7.238  0.8170  1.9106  0.2506
12848SOL     OW39984   4.708   7.976   0.172 -0.0627 -0.5157 -0.2585
12848SOL    HW139985   4.621   8.008   0.147  0.6899  1.7052 -0.2125
12848SOL    HW239986   4.766   8.006   0.103  0.7778 -1.5351 -0.0255
12849SOL     OW39987   7.270   4.801   6.437 -0.6675  0.2395  0.0958
12849SOL    HW139988   7.195   4.744   6.449  0.0598 -0.5385  1.0862
12849SOL    HW239989   7.287   4.839   6.523 -0.6735  1.3707 -0.3844
12850SOL     OW39990   2.208   6.581   1.591 -0.0036 -0.2820  0.1331
12850SOL    HW139991   2.225   6.501   1.641  0.5416  0.6222  1.4597
12850SOL    HW239992   2.132   6.621   1.634  0.0750  0.1912 -0.1595
12851SOL     OW39993   6.041   5.682   4.895 -0.3717  0.0004  0.2303
12851SOL    HW139994   5.972   5.748   4.898 -0.8837 -0.5457  2.8145
12851SOL    HW239995   5.996   5.602   4.868 -0.0064  0.3573 -1.5702
12852SOL     OW39996   0.311   2.368  11.955  0.0104 -0.2748 -0.1701
12852SOL    HW139997   0.327   2.296  12.016 -0.3319 -0.0106  0.2422
12852SOL    HW239998   0.228   2.347  11.913  0.8103 -1.0434 -1.4246
12853SOL     OW39999   6.710   5.637  11.707 -0.2102  0.8181 -0.1163
12853SOL    HW140000   6.714   5.732  11.697  0.1662  0.6602 -1.7890
12853SOL    HW240001   6.652   5.608  11.636  0.0659 -0.2447  0.0702
12854SOL     OW40002   4.294   4.986  11.089  0.1525  0.2951  0.5563
12854SOL    HW140003   4.201   4.994  11.107 -0.0461  1.1797 -0.7223
12854SOL    HW240004   4.300   4.925  11.015  0.6075  0.0244  0.8121
12855SOL     OW40005   4.255   6.507  12.327 -0.4188  0.2551 -0.3374
12855SOL    HW140006   4.258   6.495  12.232 -0.4511  0.6390 -0.3896
12855SOL    HW240007   4.346   6.492  12.355 -0.2935  0.7018 -0.5004
12856SOL     OW40008   1.856   7.546   9.819 -0.3222  0.6115  0.4972
12856SOL    HW140009   1.870   7.469   9.875 -2.0883  0.1750  0.4013
12856SOL    HW240010   1.902   7.525   9.738 -0.3209 -0.0937  0.6737
12857SOL     OW40011   6.012   1.291   1.859  0.0908  0.0470 -0.0202
12857SOL    HW140012   5.970   1.275   1.944  0.8259 -0.5729  0.2373
12857SOL    HW240013   6.073   1.218   1.848  0.6649  0.6036 -0.6582
12858SOL     OW40014   3.633   2.829   4.050 -0.1220 -0.3465  0.3123
12858SOL    HW140015   3.546   2.791   4.066  0.0782 -1.2409 -0.6157
12858SOL    HW240016   3.625   2.871   3.964  0.3070 -0.2604  0.3137
12859SOL     OW40017   6.564   5.043   1.022  0.3508  0.3694 -0.0079
12859SOL    HW140018   6.630   4.984   1.060  1.2293  1.4753  0.2521
12859SOL    HW240019   6.582   5.128   1.063 -1.3000  0.6863  0.1143
12860SOL     OW40020   5.913   4.025   1.170 -0.1440 -0.2329 -0.2115
12860SOL    HW140021   5.981   4.082   1.137  0.0410  0.0698  0.6566
12860SOL    HW240022   5.840   4.084   1.191 -0.6026 -0.5297 -0.9523
12861SOL     OW40023   4.013   6.507  10.094 -0.2249 -0.0573 -0.2330
12861SOL    HW140024   4.059   6.423  10.091 -0.9716 -0.4583 -1.0262
12861SOL    HW240025   4.083   6.573  10.095  0.3664 -0.6680 -0.4834
12862SOL     OW40026   1.994   6.302   3.143 -0.1401  0.2839 -0.6651
12862SOL    HW140027   2.064   6.311   3.078  0.3664 -1.5414 -0.4413
12862SOL    HW240028   1.915   6.328   3.097  0.1517 -1.3376 -2.1808
12863SOL     OW40029   2.035   7.796  12.399  0.5437 -0.0322 -0.0809
12863SOL    HW140030   2.110   7.782  12.341  0.5546 -1.6192  0.2688
12863SOL    HW240031   1.990   7.712  12.401 -2.0240  1.2018 -1.2870
12864SOL     OW40032   4.004   1.925   5.178 -0.4697  0.1373 -0.4626
12864SOL    HW140033   3.953   1.883   5.247 -1.8389  1.1798 -0.7849
12864SOL    HW240034   4.054   1.994   5.222 -0.3245 -0.0594 -0.3220
12865SOL     OW40035   5.637   7.887   7.959  0.1030  0.3690  0.3730
12865SOL    HW140036   5.617   7.859   8.048  0.3025  1.2031  0.6917
12865SOL    HW240037   5.610   7.979   7.957 -0.4334  0.2036 -0.5983
12866SOL     OW40038   5.526   1.723  11.386  0.1515 -0.2338  0.5388
12866SOL    HW140039   5.491   1.776  11.314  0.4880  0.6901  1.0391
12866SOL    HW240040   5.448   1.689  11.430 -0.0808 -2.1317 -1.1649
12867SOL     OW40041   0.514   0.203  11.596 -0.1149  0.0165 -0.1977
12867SOL    HW140042   0.438   0.224  11.542  0.2272 -1.1919 -1.2145
12867SOL    HW240043   0.572   0.278  11.587 -0.4042  0.1600 -0.9087
12868SOL     OW40044   6.928   7.463   2.888  0.1023  0.2948 -0.0447
12868SOL    HW140045   6.940   7.512   2.806 -0.2410  0.4375 -0.0111
12868SOL    HW240046   6.835   7.443   2.891  0.3360 -0.8641 -0.3309
12869SOL     OW40047   2.684   6.563   4.683 -0.1225  0.4094  1.0353
12869SOL    HW140048   2.756   6.525   4.733 -0.3476  0.3862  1.3447
12869SOL    HW240049   2.605   6.539   4.732 -0.2034  2.3434  1.9773
12870SOL     OW40050   0.681   4.667   1.161 -0.1703 -0.0686 -0.1530
12870SOL    HW140051   0.647   4.660   1.250  0.2026  0.3560  0.0255
12870SOL    HW240052   0.744   4.739   1.165  0.1184 -0.2922 -0.6757
12871SOL     OW40053   0.835   1.718   3.830 -0.8712  0.0452 -0.1786
12871SOL    HW140054   0.757   1.748   3.876 -1.2172 -0.8381 -0.1565
12871SOL    HW240055   0.844   1.778   3.755 -1.8348 -0.1090 -0.4322
12872SOL     OW40056   1.539   7.527  11.351 -0.3426  0.2103  0.0494
12872SOL    HW140057   1.574   7.460  11.409 -1.8482 -0.9104 -0.2672
12872SOL    HW240058   1.597   7.602  11.363  2.8113 -1.7943 -1.2671
12873SOL     OW40059   4.068   0.283  12.363 -0.1021 -0.1061 -0.1484
12873SOL    HW140060   4.068   0.351  12.295  1.5336  0.9797  0.8593
12873SOL    HW240061   3.995   0.306  12.420 -1.5527 -1.0855 -1.5341
12874SOL     OW40062   0.114   6.066  10.080 -0.3148  0.2349  0.2643
12874SOL    HW140063   0.185   6.009  10.107 -0.0663 -0.6301 -1.9510
12874SOL    HW240064   0.114   6.137  10.143  1.3349 -0.6757  1.3586
12875SOL     OW40065   2.628   3.477   8.692  0.0828  0.1777 -0.0940
12875SOL    HW140066   2.575   3.413   8.739 -1.0946  1.1162 -0.0865
12875SOL    HW240067   2.715   3.438   8.688 -0.5823 -1.3915 -0.0472
12876SOL     OW40068   2.719   3.282  11.965 -0.2677  0.1246  0.0789
12876SOL    HW140069   2.664   3.240  11.898 -0.4415  0.1892  0.1801
12876SOL    HW240070   2.798   3.228  11.968  0.2611  0.7888 -1.0275
12877SOL     OW40071   2.715   1.424  11.830  0.2206 -0.2671 -0.4642
12877SOL    HW140072   2.632   1.471  11.826  0.8065  0.7019 -2.0589
12877SOL    HW240073   2.758   1.458  11.909 -0.6463 -0.3791  0.0685
12878SOL     OW40074   5.606   6.189   8.879 -0.4201  0.3879 -0.1170
12878SOL    HW140075   5.625   6.262   8.938  0.2405  1.0028 -1.0541
12878SOL    HW240076   5.618   6.226   8.791 -1.5613 -0.4414 -0.6534
12879SOL     OW40077   4.099   0.260   7.932  0.2943 -0.1770  0.0442
12879SOL    HW140078   4.042   0.259   8.008 -2.2645 -0.3595 -1.7612
12879SOL    HW240079   4.103   0.352   7.906 -0.7506 -0.3825 -0.9041
12880SOL     OW40080   7.267   4.946  11.081 -0.5229  0.4636  0.2581
12880SOL    HW140081   7.211   4.968  11.155 -0.7589  2.3238 -0.4078
12880SOL    HW240082   7.327   5.021  11.073  0.7742 -0.5842 -0.2525
12881SOL     OW40083   3.438   3.632   8.830 -0.8015 -0.2172  0.4768
12881SOL    HW140084   3.471   3.593   8.748 -2.9822 -1.5946  0.1630
12881SOL    HW240085   3.344   3.642   8.815 -1.1730 -0.0367  2.6658
12882SOL     OW40086   6.116   4.456   0.969 -1.3891 -0.4668 -0.3424
12882SOL    HW140087   6.027   4.491   0.961 -1.4718 -0.1174  1.5357
12882SOL    HW240088   6.168   4.530   1.001 -0.6619 -0.9587 -0.3714
12883SOL     OW40089   4.974   4.079   7.294 -0.1023  0.6486  0.3491
12883SOL    HW140090   5.023   4.131   7.230 -0.6476  0.0253 -0.6066
12883SOL    HW240091   4.885   4.073   7.258 -0.4101  0.2432  1.1417
12884SOL     OW40092   0.581   2.560   7.349 -0.1134 -0.4094 -0.3177
12884SOL    HW140093   0.590   2.608   7.431 -0.5678 -1.2472  0.2383
12884SOL    HW240094   0.486   2.558   7.334  0.0228  0.7476 -1.4887
12885SOL     OW40095   3.347   0.444   3.199 -0.0345 -0.0651  0.5222
12885SOL    HW140096   3.284   0.427   3.129  0.0592  0.5568  0.2840
12885SOL    HW240097   3.432   0.428   3.159  0.0661  1.1520  0.2358
12886SOL     OW40098   0.734   3.274  11.731 -0.5775 -0.3662 -0.1538
12886SOL    HW140099   0.661   3.290  11.671 -0.9859  0.1683  0.4603
12886SOL    HW240100   0.709   3.320  11.811  0.7807  0.4755 -0.1797
12887SOL     OW40101   5.218   7.027   2.320  0.2024 -0.5090 -0.1621
12887SOL    HW140102   5.183   7.105   2.278 -0.3255 -1.2373 -1.1097
12887SOL    HW240103   5.218   6.960   2.251  1.6164 -1.0691  0.3384
12888SOL     OW40104   2.123   7.131  10.495 -0.0744  0.3553 -0.6692
12888SOL    HW140105   2.130   7.099  10.585  3.9387  0.4352 -0.7524
12888SOL    HW240106   2.103   7.225  10.504 -1.2994  0.0391  0.0275
12889SOL     OW40107   1.828   6.931   7.722 -0.0611  0.1476 -0.4899
12889SOL    HW140108   1.832   6.980   7.804 -1.2653  0.5237 -0.6418
12889SOL    HW240109   1.743   6.954   7.684  0.1772 -0.5705 -1.5004
12890SOL     OW40110   0.365   4.942   7.814  0.3566 -0.0418  0.0892
12890SOL    HW140111   0.295   5.007   7.812 -1.8760 -2.3009 -0.8117
12890SOL    HW240112   0.385   4.931   7.907 -0.4314  0.6831  0.3608
12891SOL     OW40113   1.386   5.062   5.004  0.7277 -0.1156  0.1549
12891SOL    HW140114   1.358   4.971   5.007  0.5434 -0.2677 -3.0712
12891SOL    HW240115   1.481   5.059   5.017  1.1691 -1.1816 -2.5831
12892SOL     OW40116   6.264   4.170   8.597  0.2434 -0.1374  0.1977
12892SOL    HW140117   6.276   4.118   8.518 -1.7178 -0.4430  0.0519
12892SOL    HW240118   6.263   4.106   8.668 -0.0575 -0.0728  0.2511
12893SOL     OW40119   3.475   3.174   5.290  0.8333  0.0730  0.1633
12893SOL    HW140120   3.385   3.198   5.271  0.5927 -0.6736  0.3653
12893SOL    HW240121   3.495   3.102   5.231  1.4539  0.5360 -0.2057
12894SOL     OW40122   2.024   2.078   9.904  0.2991 -0.5480 -0.9866
12894SOL    HW140123   2.044   2.029   9.983 -0.3076  1.4416  0.4905
12894SOL    HW240124   2.102   2.071   9.850  0.6159 -2.1832 -0.3443
12895SOL     OW40125   2.100   5.488   8.587  0.5579  0.0822  0.0559
12895SOL    HW140126   2.120   5.562   8.529  2.3354  0.2494  0.8152
12895SOL    HW240127   2.096   5.527   8.674 -2.7894 -0.0430  0.0878
12896SOL     OW40128   4.789   2.695   2.911  0.3630  0.2223  0.2455
12896SOL    HW140129   4.777   2.743   2.993 -0.1484 -0.1602  0.3984
12896SOL    HW240130   4.779   2.603   2.935 -2.2251  0.1791 -0.6086
12897SOL     OW40131   6.690   6.774   6.814  0.2502  0.1887 -0.6402
12897SOL    HW140132   6.735   6.853   6.785 -1.1394  0.4274 -2.3268
12897SOL    HW240133   6.600   6.786   6.786 -0.0976 -1.8021 -0.5461
12898SOL     OW40134   3.501   4.226   5.363  0.8835 -0.3852  0.2580
12898SOL    HW140135   3.501   4.139   5.323  0.4779 -0.2976  0.0630
12898SOL    HW240136   3.568   4.275   5.315  3.0645 -1.3528  2.0906
12899SOL     OW40137   3.158   7.013   4.184 -0.3352 -0.1108 -0.1985
12899SOL    HW140138   3.078   6.970   4.153  0.0263 -1.3739  0.5794
12899SOL    HW240139   3.199   6.950   4.243  1.4804  0.3483 -0.9096
12900SOL     OW40140   0.163   2.904   0.695 -0.0387 -0.3629  0.6235
12900SOL    HW140141   0.151   2.941   0.782  1.0601 -0.5431  0.8639
12900SOL    HW240142   0.156   2.809   0.707  1.1522 -0.4572  0.7173
12901SOL     OW40143   6.503   0.589   7.910  0.2398  0.2821 -0.1097
12901SOL    HW140144   6.580   0.540   7.941  0.8654  1.4178  0.1962
12901SOL    HW240145   6.480   0.645   7.983 -0.4596  0.4545 -0.4583
12902SOL     OW40146   4.653   0.141   7.129  0.5383 -0.3766  0.1324
12902SOL    HW140147   4.737   0.109   7.096  0.2835 -0.5396 -0.3758
12902SOL    HW240148   4.618   0.068   7.179  1.0437 -0.0395  1.0064
12903SOL     OW40149   4.889   7.187   9.367  0.1248  0.7923  0.0754
12903SOL    HW140150   4.869   7.096   9.346  2.0437  0.4970 -0.7631
12903SOL    HW240151   4.967   7.181   9.423 -0.3546  1.8884  0.8781
12904SOL     OW40152   4.171   4.240  10.897 -0.3600 -0.0226  0.5556
12904SOL    HW140153   4.155   4.220  10.990 -0.8833  0.8459  0.6643
12904SOL    HW240154   4.239   4.178  10.871  0.2909  0.1648  1.7053
12905SOL     OW40155   0.406   7.939  11.710 -0.2934 -0.1518  0.4872
12905SOL    HW140156   0.468   7.876  11.674 -1.4054 -1.5843  0.9691
12905SOL    HW240157   0.419   8.018  11.658  1.7257 -0.4848  0.4159
12906SOL     OW40158   2.953   6.090   4.393 -0.4954  0.6188  0.4587
12906SOL    HW140159   2.978   6.148   4.464  2.7017 -0.4213  0.3750
12906SOL    HW240160   2.999   6.125   4.316 -0.6332 -0.5284 -0.1726
12907SOL     OW40161   3.765   2.306   2.140  0.2132 -0.1546  0.2026
12907SOL    HW140162   3.709   2.232   2.161  0.4768 -0.7114 -0.9552
12907SOL    HW240163   3.714   2.357   2.078 -0.1429  0.8946  1.3204
12908SOL     OW40164   4.199   0.273   1.800  0.1113 -0.1362 -0.1132
12908SOL    HW140165   4.166   0.210   1.736  2.2317  0.2645 -1.6836
12908SOL    HW240166   4.182   0.231   1.885 -1.3323 -1.3836 -0.9598
12909SOL     OW40167   4.764   3.717   2.814  0.2031 -0.2245  0.1421
12909SOL    HW140168   4.850   3.677   2.823  0.4852  0.1911 -0.6118
12909SOL    HW240169   4.706   3.662   2.867  0.7936 -0.9348  0.0648
12910SOL     OW40170   1.197   6.691   6.937  0.2956 -0.0151 -0.2502
12910SOL    HW140171   1.285   6.681   6.972  0.5757 -0.1513 -0.9646
12910SOL    HW240172   1.195   6.780   6.901  1.2359 -1.0100 -3.0713
12911SOL     OW40173   6.725   1.229  12.318 -0.0235  0.4578 -0.0313
12911SOL    HW140174   6.676   1.163  12.270 -0.5768  1.2360 -0.5710
12911SOL    HW240175   6.756   1.290  12.251 -0.0173  1.0582  0.4997
12912SOL     OW40176   2.454   5.617  12.138 -0.1493  0.0715  0.7048
12912SOL    HW140177   2.475   5.566  12.217 -1.1890  0.2597  1.1169
12912SOL    HW240178   2.359   5.610  12.130 -0.0405 -0.0351 -0.6096
12913SOL     OW40179   7.786   3.650   2.189  0.4266 -0.3874 -0.9109
12913SOL    HW140180   7.793   3.718   2.256 -1.3857  0.3096 -1.3759
12913SOL    HW240181   7.877   3.630   2.166  1.0904 -0.2408  1.3017
12914SOL     OW40182   0.446   0.139  10.195 -0.5861 -0.4741 -0.1632
12914SOL    HW140183   0.509   0.112  10.261 -1.2502 -1.0231  0.2619
12914SOL    HW240184   0.444   0.234  10.201 -2.0730 -0.5609  2.0173
12915SOL     OW40185   7.164   1.271   3.028 -0.2121  0.1186  0.3307
12915SOL    HW140186   7.257   1.294   3.031 -0.6389  2.1443 -0.5101
12915SOL    HW240187   7.122   1.334   3.088 -1.1989  0.1750 -0.4053
12916SOL     OW40188   7.239   4.431   3.516  0.5362 -0.0190 -0.2079
12916SOL    HW140189   7.193   4.508   3.481  0.8505  0.0583 -0.4537
12916SOL    HW240190   7.307   4.412   3.451  0.1318 -0.8287 -0.4191
12917SOL     OW40191   7.804   5.483   4.133 -0.4420  0.3477  0.2547
12917SOL    HW140192   7.870   5.421   4.163  0.4074  1.3567  0.5071
12917SOL    HW240193   7.731   5.428   4.105  0.7126 -0.8074 -0.5773
12918SOL     OW40194   1.586   6.790  10.317  0.0176  0.3445 -0.0827
12918SOL    HW140195   1.640   6.804  10.239 -0.4270  2.0840 -0.1181
12918SOL    HW240196   1.643   6.741  10.376  1.1992  1.0017 -0.6212
12919SOL     OW40197   3.348   4.362   4.499 -0.3300  0.2595 -0.9004
12919SOL    HW140198   3.276   4.418   4.472 -0.3983 -0.5801 -2.6284
12919SOL    HW240199   3.424   4.393   4.449  0.0099 -0.1769 -0.6707
12920SOL     OW40200   6.508   2.393   2.436  0.0888  0.0501 -0.5582
12920SOL    HW140201   6.458   2.475   2.432 -0.4612 -0.1974  0.6667
12920SOL    HW240202   6.491   2.350   2.352 -2.6854 -0.5283  0.1954
12921SOL     OW40203   5.935   2.656   9.706  0.2037 -0.3941 -0.1459
12921SOL    HW140204   5.866   2.680   9.768 -0.4877 -0.3874 -0.9096
12921SOL    HW240205   5.933   2.560   9.705  0.8650 -0.4278  0.5506
12922SOL     OW40206   7.694   3.072   8.336  0.4484 -0.1745  0.1331
12922SOL    HW140207   7.787   3.094   8.338  0.2177  0.8280  0.3610
12922SOL    HW240208   7.674   3.057   8.244  0.3363  1.9615 -0.2420
12923SOL     OW40209   0.070   1.012  11.981 -0.2070  0.0857  0.1601
12923SOL    HW140210   0.090   0.920  11.960 -2.4038  0.0112 -2.0754
12923SOL    HW240211   0.089   1.059  11.900 -1.6870  1.1388  0.3834
12924SOL     OW40212   3.612   5.198   2.742  0.4316  0.2684 -0.2148
12924SOL    HW140213   3.517   5.183   2.740  0.4965 -0.1362 -0.4670
12924SOL    HW240214   3.640   5.163   2.826  0.3332  0.5425 -0.0675
12925SOL     OW40215   2.433   0.302   8.612 -0.0233  0.3240  0.1664
12925SOL    HW140216   2.436   0.298   8.707 -0.4747 -1.5204  0.1442
12925SOL    HW240217   2.508   0.249   8.583 -0.3836  0.1544 -0.4794
12926SOL     OW40218   6.909   2.487   7.251 -0.1681 -0.7505 -0.1482
12926SOL    HW140219   6.952   2.416   7.297 -0.2981 -0.2069  0.8361
12926SOL    HW240220   6.842   2.518   7.312 -0.9633 -0.6143 -1.0654
12927SOL     OW40221   0.080   0.280   2.848 -0.2102 -0.1569 -0.0153
12927SOL    HW140222   0.102   0.330   2.927  0.6859  0.0361 -0.3781
12927SOL    HW240223   0.029   0.206   2.881 -0.9528  0.5949  0.6051
12928SOL     OW40224   6.266   6.911   3.110 -0.6110  0.2221  0.0178
12928SOL    HW140225   6.337   6.918   3.174  0.5892  0.8794 -1.3330
12928SOL    HW240226   6.242   6.819   3.110  1.8866 -0.4941 -1.1652
12929SOL     OW40227   2.668   0.075   2.445 -0.4453 -0.3061 -0.1810
12929SOL    HW140228   2.705   0.113   2.365 -0.8750 -0.9852 -0.7121
12929SOL    HW240229   2.595   0.133   2.468  0.0052  0.1918  0.0314
12930SOL     OW40230   7.310   3.211  11.960  0.6901  0.6834  0.7182
12930SOL    HW140231   7.377   3.259  11.911 -1.6608  2.4865 -0.9372
12930SOL    HW240232   7.278   3.274  12.025 -0.0227  0.1795  0.8677
12931SOL     OW40233   2.906   6.282  11.581  1.3308 -0.0731 -0.5771
12931SOL    HW140234   2.851   6.358  11.599  1.5038 -0.1697  0.4374
12931SOL    HW240235   2.995   6.319  11.574  1.3587 -0.1283 -0.5141
12932SOL     OW40236   2.772   7.035   0.239  0.4291  0.2958 -0.1633
12932SOL    HW140237   2.777   7.046   0.334 -1.8435  1.6468 -0.1451
12932SOL    HW240238   2.799   6.944   0.225  0.9000  0.0871  1.7349
12933SOL     OW40239   5.931   7.945   6.416 -0.0531 -0.5568  0.3029
12933SOL    HW140240   5.937   7.850   6.404  0.5908 -0.6081  0.9668
12933SOL    HW240241   6.010   7.968   6.465 -0.7830  0.1449  1.1861
12934SOL     OW40242   6.157   7.211   9.536  0.0571 -0.0334 -0.0234
12934SOL    HW140243   6.096   7.279   9.565  0.8205  0.7946 -0.2880
12934SOL    HW240244   6.243   7.250   9.549  0.7123 -2.1047  2.7880
12935SOL     OW40245   2.146   2.272   9.639  0.4672  0.6300 -0.0016
12935SOL    HW140246   2.198   2.209   9.689 -1.4584  0.8604  2.4913
12935SOL    HW240247   2.088   2.218   9.585 -0.1003  0.2411  0.9610
12936SOL     OW40248   4.361   1.348   1.000  0.1753 -0.5377  0.4400
12936SOL    HW140249   4.379   1.257   0.976  0.9231 -1.1250  2.9493
12936SOL    HW240250   4.424   1.399   0.949 -2.2227 -0.9772 -3.3932
12937SOL     OW40251   3.104   1.464   2.327 -0.1677  0.7258  0.3080
12937SOL    HW140252   3.052   1.419   2.260 -0.0923  0.0687  0.6760
12937SOL    HW240253   3.040   1.515   2.377 -0.2096  1.2883 -0.3207
12938SOL     OW40254   5.371   5.850   0.869 -0.4203  0.1240  0.1444
12938SOL    HW140255   5.348   5.847   0.776 -0.5969  2.0430  0.0909
12938SOL    HW240256   5.467   5.841   0.871 -0.4150  0.1074 -0.2234
12939SOL     OW40257   6.229   0.433  12.142 -0.1802  0.4257 -0.2657
12939SOL    HW140258   6.258   0.506  12.086  0.3020  0.2240 -0.2809
12939SOL    HW240259   6.144   0.407  12.105 -0.1080  0.6349 -0.5856
12940SOL     OW40260   4.574   1.836   7.849 -0.2999  0.1860 -0.2650
12940SOL    HW140261   4.513   1.849   7.922  0.7073  0.4799  0.5555
12940SOL    HW240262   4.518   1.829   7.772 -1.5444 -1.8269  0.7100
12941SOL     OW40263   2.456   2.299  10.496 -0.0913  0.2768 -0.0068
12941SOL    HW140264   2.483   2.370  10.554 -0.7061  0.1205  0.4835
12941SOL    HW240265   2.366   2.322  10.471 -0.3638 -0.4285  0.3122
12942SOL     OW40266   3.181   2.895   6.409  0.6264 -0.2978  0.2428
12942SOL    HW140267   3.123   2.962   6.446  0.3666 -0.4397  0.0926
12942SOL    HW240268   3.269   2.923   6.435  0.5282  0.1623  0.0925
12943SOL     OW40269   0.441   2.150   1.502 -0.1210  0.1841 -0.1465
12943SOL    HW140270   0.428   2.118   1.413  1.4511  1.7945 -1.0228
12943SOL    HW240271   0.426   2.244   1.496  2.7018  0.7877  0.6109
12944SOL     OW40272   7.198   1.970   2.529  0.6162 -0.0363 -0.2619
12944SOL    HW140273   7.290   1.944   2.532  0.6378 -0.0416 -0.7681
12944SOL    HW240274   7.153   1.908   2.586  0.9069 -0.1206 -0.1229
12945SOL     OW40275   4.702   0.580   6.338 -0.5153 -0.9930  0.0565
12945SOL    HW140276   4.620   0.614   6.301  0.0046 -1.4532 -1.5469
12945SOL    HW240277   4.771   0.630   6.294  0.0987 -0.4072  1.5999
12946SOL     OW40278   0.855   3.838  11.675  0.4063 -0.0484  0.0533
12946SOL    HW140279   0.835   3.897  11.748 -1.7088 -2.6761  1.7836
12946SOL    HW240280   0.796   3.866  11.605 -1.3936 -0.6962  1.2385
12947SOL     OW40281   5.365   7.239   6.383  0.0081  0.4144  0.1579
12947SOL    HW140282   5.305   7.244   6.458  0.5136 -0.9250  0.6890
12947SOL    HW240283   5.342   7.314   6.329  0.2955  2.0359  2.1488
12948SOL     OW40284   5.659   5.114  12.294 -0.4256  0.4111  0.3306
12948SOL    HW140285   5.640   5.201  12.329  0.7617  0.2723  1.4294
12948SOL    HW240286   5.619   5.054  12.358  0.0397  0.1596  0.3912
12949SOL     OW40287   5.027   3.776  10.540  0.3337  0.0035 -0.4594
12949SOL    HW140288   4.938   3.782  10.575  0.6330 -0.1949  0.3673
12949SOL    HW240289   5.017   3.794  10.447 -0.7283 -1.1240 -0.6008
12950SOL     OW40290   5.822   6.813  12.364  0.3826 -0.3190 -0.3790
12950SOL    HW140291   5.833   6.816  12.269  0.4197 -0.7994 -0.3901
12950SOL    HW240292   5.752   6.876  12.381 -0.2494 -0.8801 -0.8229
12951SOL     OW40293   2.114   6.112   0.908  0.3461 -0.1487 -0.6940
12951SOL    HW140294   2.123   6.033   0.855  0.0276  0.3915 -1.5699
12951SOL    HW240295   2.023   6.114   0.935  0.4000 -0.1846 -0.5068
12952SOL     OW40296   3.964   7.593  12.357 -0.1992  0.1163 -0.0209
12952SOL    HW140297   3.992   7.530  12.290  0.9032  1.8737 -1.2847
12952SOL    HW240298   3.893   7.642  12.316  0.3306  1.0564  0.1631
12953SOL     OW40299   5.777   4.988   4.444 -0.1420 -0.3578 -0.1258
12953SOL    HW140300   5.734   5.004   4.360 -0.2839  2.2972  0.3463
12953SOL    HW240301   5.713   5.016   4.510  0.5421 -0.8875  0.7937
12954SOL     OW40302   1.136   2.020   6.114 -0.0399  0.6172 -0.9289
12954SOL    HW140303   1.177   2.015   6.200  1.6258 -0.2900 -1.7359
12954SOL    HW240304   1.080   1.942   6.110  2.4393 -1.2488 -1.8600
12955SOL     OW40305   7.081   5.283   2.245 -0.1990  0.1761  0.1939
12955SOL    HW140306   7.136   5.247   2.175 -1.0042  0.3477 -0.5470
12955SOL    HW240307   7.123   5.366   2.267 -1.1275  1.1976 -1.6458
12956SOL     OW40308   0.936   0.808  10.159 -0.4386  0.0995  0.4328
12956SOL    HW140309   0.959   0.768  10.243  1.2729 -1.8594 -0.8721
12956SOL    HW240310   0.867   0.752  10.125 -0.5406  0.4002  0.1415
12957SOL     OW40311   3.987   3.671   2.783 -0.1322  0.3144 -0.4092
12957SOL    HW140312   3.925   3.735   2.818  0.0687  0.2181  0.1300
12957SOL    HW240313   4.023   3.713   2.704 -0.7219  0.4575 -0.6060
12958SOL     OW40314   4.916   2.114   6.221 -0.5345 -0.4269  0.0621
12958SOL    HW140315   4.896   2.206   6.239 -1.5616 -0.4215 -1.0153
12958SOL    HW240316   4.847   2.085   6.162 -0.1835 -1.8803  0.3226
12959SOL     OW40317   4.993   1.336   3.329  0.3848 -0.5335 -0.0625
12959SOL    HW140318   5.060   1.271   3.352 -0.2200 -0.7499  1.1624
12959SOL    HW240319   4.922   1.320   3.391 -0.9670 -0.5253 -1.5558
12960SOL     OW40320   2.539   4.402  11.828  0.2115 -0.6142  0.3059
12960SOL    HW140321   2.538   4.492  11.797 -1.2301  0.1870  2.4648
12960SOL    HW240322   2.595   4.403  11.906  1.3615 -1.9336 -0.4562
12961SOL     OW40323   6.583   0.378   1.915 -0.0718 -0.4912  0.3762
12961SOL    HW140324   6.490   0.394   1.923  0.1211  0.3363  1.0950
12961SOL    HW240325   6.611   0.432   1.841  0.1317  0.6016  1.2334
12962SOL     OW40326   4.478   5.361   1.224 -0.3355 -0.3497  0.7728
12962SOL    HW140327   4.421   5.312   1.283 -0.6181  0.0357  0.8262
12962SOL    HW240328   4.490   5.304   1.148 -0.6241 -0.5164  0.8538
12963SOL     OW40329   3.757   6.625   6.549 -0.0074 -0.2138 -0.0668
12963SOL    HW140330   3.742   6.717   6.531  0.8252 -0.0110  0.2092
12963SOL    HW240331   3.718   6.611   6.636  0.8250  0.1651  0.3880
12964SOL     OW40332   1.597   3.388   5.230 -0.0987 -0.8304  0.1386
12964SOL    HW140333   1.588   3.310   5.285  0.4535 -1.2488 -0.3509
12964SOL    HW240334   1.546   3.368   5.151 -1.0079 -0.1758  0.5441
12965SOL     OW40335   0.234   6.076   8.073 -0.3021  0.4079  0.4266
12965SOL    HW140336   0.148   6.107   8.104 -0.3853  0.6034  0.0054
12965SOL    HW240337   0.213   5.999   8.020 -0.2601  0.7417 -0.0758
12966SOL     OW40338   0.167   3.544   9.230  0.2125  0.0272  0.8731
12966SOL    HW140339   0.137   3.610   9.293  1.5187  1.3519  0.1532
12966SOL    HW240340   0.134   3.461   9.265  0.8113  0.7209  3.2567
12967SOL     OW40341   2.813   7.528  10.314  0.0214 -0.3548 -0.2649
12967SOL    HW140342   2.863   7.527  10.233  0.7556 -1.7497  0.1688
12967SOL    HW240343   2.818   7.438  10.347 -3.0915 -0.6724 -0.3579
12968SOL     OW40344   2.501   1.777   9.714  0.4841 -0.0179 -0.1517
12968SOL    HW140345   2.415   1.801   9.680  1.1621 -1.5799 -3.3129
12968SOL    HW240346   2.559   1.848   9.685  0.7393 -0.3788 -0.5311
12969SOL     OW40347   2.109   5.492  11.538  0.1307 -0.1171  0.1681
12969SOL    HW140348   2.104   5.424  11.471 -0.8811 -0.1996  0.3220
12969SOL    HW240349   2.019   5.505  11.567  0.3280  1.1383  0.2964
12970SOL     OW40350   0.586   0.883   8.079 -0.0027  0.0170  0.1583
12970SOL    HW140351   0.619   0.849   7.996  0.5760  0.6601  0.1150
12970SOL    HW240352   0.501   0.922   8.058  0.7129  1.3434 -0.4100
12971SOL     OW40353   3.296   6.857   6.202 -0.0519 -0.6730 -0.2932
12971SOL    HW140354   3.369   6.856   6.141  0.7094  0.6352  0.5419
12971SOL    HW240355   3.330   6.816   6.282 -0.2393 -0.1027  0.0868
12972SOL     OW40356   1.052   6.944  12.172  0.4598 -0.0824 -0.8681
12972SOL    HW140357   1.028   6.995  12.250  0.0951 -0.0724 -0.9865
12972SOL    HW240358   1.094   7.007  12.114  3.6908 -0.6719  0.5908
12973SOL     OW40359   5.093   4.706   7.414  0.2521 -0.0748  0.3359
12973SOL    HW140360   5.098   4.667   7.326  0.1548 -1.9632  1.1235
12973SOL    HW240361   5.168   4.766   7.417 -0.0516  0.4380 -1.2131
12974SOL     OW40362   6.692   3.098   5.505 -0.8916 -0.3329  0.2376
12974SOL    HW140363   6.718   3.077   5.415 -1.8050 -0.4290 -0.0145
12974SOL    HW240364   6.662   3.189   5.500 -2.3680 -0.8040  0.1108
12975SOL     OW40365   6.046   4.766   5.515  0.6247  0.6637 -0.1096
12975SOL    HW140366   5.963   4.769   5.561  1.1283  2.3445  0.8054
12975SOL    HW240367   6.100   4.706   5.567  0.2216  0.1309 -0.2969
12976SOL     OW40368   1.725   3.469   3.029  0.2183  0.1315 -0.3110
12976SOL    HW140369   1.669   3.430   2.963 -0.1242 -0.8640  0.5442
12976SOL    HW240370   1.749   3.397   3.087  0.9265  0.8795  0.3631
12977SOL     OW40371   4.893   7.019   1.172  0.7321  0.3459  0.3738
12977SOL    HW140372   4.863   7.089   1.114 -0.1008  0.4589  0.9231
12977SOL    HW240373   4.932   7.065   1.246  0.1219  0.2334  0.7666
12978SOL     OW40374   2.379   6.837   5.410  0.3086 -0.1173  0.8262
12978SOL    HW140375   2.434   6.877   5.477  0.1624  0.4982  0.5802
12978SOL    HW240376   2.295   6.821   5.454 -0.3365  1.7827  0.3699
12979SOL     OW40377   4.415   5.128   0.778  0.1277 -0.4313 -0.5382
12979SOL    HW140378   4.481   5.189   0.746  0.4514 -0.1339  0.6282
12979SOL    HW240379   4.399   5.069   0.705 -1.1940  1.8346 -2.2262
12980SOL     OW40380   7.555   4.530   9.914 -0.6162 -0.2407  0.1839
12980SOL    HW140381   7.513   4.465   9.970  0.8336 -0.5476  0.9781
12980SOL    HW240382   7.591   4.594   9.975 -2.8494  1.9174 -0.6098
12981SOL     OW40383   2.515   2.329  11.030 -0.2635 -0.3424  0.0624
12981SOL    HW140384   2.422   2.342  11.049 -0.1298 -0.0706  0.5476
12981SOL    HW240385   2.560   2.387  11.091  0.2556 -1.1448  0.4698
12982SOL     OW40386   3.710   3.663   9.505  0.5174 -0.5632  0.1698
12982SOL    HW140387   3.747   3.700   9.585 -2.5149 -1.5000  2.1840
12982SOL    HW240388   3.630   3.712   9.490 -0.7738 -2.6397 -0.2041
12983SOL     OW40389   0.935   4.788   6.769  0.3417 -0.3370 -0.1961
12983SOL    HW140390   0.986   4.723   6.722  0.1166 -0.9926  0.4484
12983SOL    HW240391   1.000   4.843   6.813  0.5159 -1.1384  0.5855
12984SOL     OW40392   4.366   5.813   3.171 -0.3032 -0.4468 -0.3528
12984SOL    HW140393   4.423   5.862   3.230 -0.1072  1.5213 -2.0570
12984SOL    HW240394   4.280   5.854   3.182 -0.2956 -0.1603 -1.2788
12985SOL     OW40395   1.356   2.417  12.165 -0.2724  0.6462  0.3410
12985SOL    HW140396   1.442   2.385  12.192 -0.3132  0.5690  0.3797
12985SOL    HW240397   1.352   2.397  12.071 -0.5834 -0.1174  0.5079
12986SOL     OW40398   0.638   2.109   7.773 -0.4315 -0.2654  0.0615
12986SOL    HW140399   0.668   2.156   7.696 -2.0274 -0.3027 -0.6180
12986SOL    HW240400   0.702   2.039   7.785 -0.1866 -0.2848 -1.2571
12987SOL     OW40401   3.237   7.831   5.470 -0.3890 -0.2159 -0.3129
12987SOL    HW140402   3.211   7.763   5.408 -1.6894 -2.1065  2.1249
12987SOL    HW240403   3.306   7.790   5.522  0.5381  1.2477 -0.3584
12988SOL     OW40404   2.525   7.547  11.489 -0.9330  0.2306  0.2799
12988SOL    HW140405   2.573   7.514  11.565  2.4480  0.8851 -1.3815
12988SOL    HW240406   2.545   7.485  11.419 -1.1965  1.4261 -0.8974
12989SOL     OW40407   5.350   7.135   8.943 -0.5119 -0.2809  0.2240
12989SOL    HW140408   5.404   7.155   9.020 -1.4276 -3.5673  1.8880
12989SOL    HW240409   5.408   7.087   8.885 -0.0974  1.3493 -0.7664
12990SOL     OW40410   0.425   1.175   4.534  0.2490 -0.3136  0.1927
12990SOL    HW140411   0.422   1.134   4.448 -3.1057 -0.4457  0.2143
12990SOL    HW240412   0.362   1.247   4.528 -0.7457 -0.8488  2.7429
12991SOL     OW40413   0.817   1.829   7.196 -0.5915  0.5999  0.0028
12991SOL    HW140414   0.788   1.790   7.114 -0.3882  0.6182 -0.0788
12991SOL    HW240415   0.863   1.909   7.171 -0.0930  0.3522  0.0948
12992SOL     OW40416   1.999   3.418  12.232  0.1507  0.2490 -0.0040
12992SOL    HW140417   2.073   3.371  12.194  1.5078 -0.1428  2.7914
12992SOL    HW240418   1.968   3.361  12.303 -0.9022  1.7021  0.7723
12993SOL     OW40419   0.782   4.382   7.730  0.6221  0.3270 -0.2921
12993SOL    HW140420   0.792   4.383   7.825 -1.2808  1.4580 -0.0405
12993SOL    HW240421   0.824   4.301   7.702 -0.4788 -1.0432  1.7580
12994SOL     OW40422   3.802   7.703  12.178  0.0794  0.6009 -0.8379
12994SOL    HW140423   3.727   7.760  12.160  0.1244  0.4249 -1.6231
12994SOL    HW240424   3.810   7.648  12.100 -0.2057 -0.7599  0.0480
12995SOL     OW40425   2.174   3.298   5.510 -0.2626 -0.2493  0.4477
12995SOL    HW140426   2.171   3.389   5.478  0.2453  0.8284  3.1696
12995SOL    HW240427   2.084   3.279   5.536 -0.6975 -1.1635 -1.5514
12996SOL     OW40428   4.767   0.837  10.740 -0.2512 -0.5086  0.0898
12996SOL    HW140429   4.787   0.744  10.729  0.9684 -0.1717 -0.6719
12996SOL    HW240430   4.832   0.883  10.686  0.8452  0.9067  2.4752
12997SOL     OW40431   1.770   4.493   3.875  0.1971  0.1002  0.1206
12997SOL    HW140432   1.783   4.528   3.963 -0.7101 -0.4458  0.4964
12997SOL    HW240433   1.813   4.407   3.876  0.2967  0.1485 -0.0104
12998SOL     OW40434   6.814   4.490  10.181  0.1221  0.3342  0.7160
12998SOL    HW140435   6.821   4.557  10.248  1.0423  2.4598 -1.3785
12998SOL    HW240436   6.726   4.501  10.146 -0.1998 -0.4805  1.2377
12999SOL     OW40437   5.216   7.751   4.556 -0.0576 -0.1054  0.2082
12999SOL    HW140438   5.146   7.690   4.578  0.4508 -1.1516 -0.9763
12999SOL    HW240439   5.247   7.722   4.470  1.1445  0.9588  0.2629
13000SOL     OW40440   1.884   3.724   9.343 -0.2677 -0.3601 -0.0921
13000SOL    HW140441   1.939   3.671   9.285 -1.3416 -1.2443 -0.3295
13000SOL    HW240442   1.887   3.812   9.304  1.2305 -0.2960  0.0966
13001SOL     OW40443   4.913   1.324   2.658 -0.1393 -0.3143 -0.7414
13001SOL    HW140444   4.879   1.248   2.610 -0.3955 -0.3332 -0.5286
13001SOL    HW240445   4.924   1.391   2.591 -0.0044 -0.5066 -0.9146
13002SOL     OW40446   0.282   0.883  11.728 -0.1590  0.0803 -0.0512
13002SOL    HW140447   0.366   0.845  11.703 -0.1781  0.3088 -0.4657
13002SOL    HW240448   0.261   0.945  11.659 -0.2499  0.6752  0.4967
13003SOL     OW40449   1.054   6.176   3.823 -0.0661 -0.6152  0.8110
13003SOL    HW140450   1.098   6.249   3.779 -0.3913 -0.9974 -0.1945
13003SOL    HW240451   1.039   6.112   3.753 -1.6412 -0.7662  1.2512
13004SOL     OW40452   6.050   3.951   6.168 -0.0130 -0.7569  0.2389
13004SOL    HW140453   5.978   3.946   6.106 -0.1029  0.9749  0.1608
13004SOL    HW240454   6.009   3.973   6.252  0.4339  0.8620  0.0664
13005SOL     OW40455   3.732   0.204   5.016 -0.8608 -0.7340  0.1018
13005SOL    HW140456   3.728   0.243   5.103  0.0887 -0.5154  0.0648
13005SOL    HW240457   3.641   0.189   4.991 -1.1718 -0.0227  0.7849
13006SOL     OW40458   2.573   2.281   9.119 -0.5406 -0.4790 -0.1153
13006SOL    HW140459   2.576   2.209   9.182  0.2342 -0.9849 -0.7024
13006SOL    HW240460   2.663   2.287   9.087 -0.8102  0.1357 -0.7618
13007SOL     OW40461   1.265   5.791   2.449  0.2704 -0.2057 -0.0206
13007SOL    HW140462   1.237   5.741   2.525 -0.9122  0.1648 -0.1753
13007SOL    HW240463   1.282   5.726   2.381 -0.5525 -0.4584 -0.0015
13008SOL     OW40464   0.560   3.504   9.518 -0.2178  0.4359 -0.2310
13008SOL    HW140465   0.568   3.548   9.434 -0.1262  0.8971  0.0163
13008SOL    HW240466   0.479   3.538   9.556 -1.2378 -1.0990 -0.8967
13009SOL     OW40467   6.529   1.830   5.283 -0.1064 -0.4938  0.3831
13009SOL    HW140468   6.511   1.789   5.368  2.1054 -1.1397  0.6036
13009SOL    HW240469   6.508   1.922   5.295 -2.1484 -0.9829  0.8564
13010SOL     OW40470   0.581   6.125  11.014  0.6521  0.1334  0.0399
13010SOL    HW140471   0.673   6.149  11.007  0.4106  1.4869  1.1619
13010SOL    HW240472   0.536   6.183  10.953  0.4093  0.2757  0.3540
13011SOL     OW40473   6.121   7.531  11.525  0.3624 -0.4196  0.1800
13011SOL    HW140474   6.085   7.539  11.437 -0.5944  1.6004  0.6956
13011SOL    HW240475   6.054   7.484  11.574 -0.2887  0.7494  0.4328
13012SOL     OW40476   1.878   3.245   5.308 -0.5916  0.2520  0.6169
13012SOL    HW140477   1.878   3.282   5.397 -0.5780  0.6676  0.4453
13012SOL    HW240478   1.789   3.212   5.296 -0.9007  1.1189  0.4113
13013SOL     OW40479   1.878   0.265   8.229  0.7045 -0.7601 -0.6936
13013SOL    HW140480   1.897   0.176   8.260 -4.1594 -1.4224  1.2930
13013SOL    HW240481   1.892   0.321   8.306 -1.8340 -0.8418 -0.0950
13014SOL     OW40482   1.626   1.474   0.550 -0.0247 -0.1981  0.1236
13014SOL    HW140483   1.648   1.412   0.620  2.7382  1.4131  0.8273
13014SOL    HW240484   1.570   1.539   0.592  0.9570  0.3174  0.6624
13015SOL     OW40485   1.511   5.782   5.906 -0.2609 -0.2346 -0.8138
13015SOL    HW140486   1.552   5.743   5.828 -1.2947  0.3291 -1.6586
13015SOL    HW240487   1.424   5.743   5.909 -0.9725  1.2759 -1.1316
13016SOL     OW40488   6.808   4.255   2.253 -0.0311  0.5681  0.1498
13016SOL    HW140489   6.806   4.242   2.158  0.3618  1.4158  0.0128
13016SOL    HW240490   6.858   4.336   2.265 -0.2058  0.5520  1.0714
13017SOL     OW40491   0.862   2.559   4.677 -0.3485 -0.1114  0.4860
13017SOL    HW140492   0.791   2.571   4.615 -0.0153  2.1723  0.4565
13017SOL    HW240493   0.890   2.648   4.699  2.9755 -0.9024 -0.0359
13018SOL     OW40494   7.476   6.751  12.208  0.0107 -0.3901 -0.1591
13018SOL    HW140495   7.394   6.710  12.237 -0.6785  0.0435 -1.4159
13018SOL    HW240496   7.455   6.788  12.122  1.2070  0.7486  0.0079
13019SOL     OW40497   0.265   6.645   1.662  0.1874 -0.9880 -0.3380
13019SOL    HW140498   0.189   6.612   1.710 -0.1302 -0.1029 -0.2082
13019SOL    HW240499   0.232   6.664   1.574  0.0792  0.0117 -0.0986
13020SOL     OW40500   6.475   3.433   2.854  0.5278  0.4149  0.2976
13020SOL    HW140501   6.424   3.509   2.828  1.3289  0.3457 -1.6422
13020SOL    HW240502   6.482   3.441   2.949 -0.7959  1.8504  0.3200
13021SOL     OW40503   5.169   7.259   5.004  0.2344  0.0613 -0.6735
13021SOL    HW140504   5.104   7.304   4.950  0.4253  1.5322  0.2581
13021SOL    HW240505   5.237   7.325   5.020 -0.1696 -0.0378  1.9584
13022SOL     OW40506   5.407   5.957   6.142  0.0093  0.6798  0.5297
13022SOL    HW140507   5.452   5.891   6.090 -1.0077  1.0279 -0.8422
13022SOL    HW240508   5.408   5.921   6.231  3.1596  0.7884  0.6530
13023SOL     OW40509   4.538   0.193   3.967  0.0240 -0.0157  0.2844
13023SOL    HW140510   4.593   0.172   4.043  1.4758  0.2154 -0.6727
13023SOL    HW240511   4.582   0.266   3.925 -0.9384  0.0611 -0.6267
13024SOL     OW40512   0.995   2.734   1.887 -0.1990  0.2411  0.4018
13024SOL    HW140513   1.019   2.646   1.916 -0.8124 -0.1152 -0.1485
13024SOL    HW240514   0.954   2.720   1.802  1.5464  1.2347 -0.6786
13025SOL     OW40515   2.592   5.785   1.216 -0.2665  0.3264 -0.5963
13025SOL    HW140516   2.591   5.873   1.179 -0.0572 -0.4516 -2.5546
13025SOL    HW240517   2.684   5.769   1.237 -0.1732  0.2752 -1.0293
13026SOL     OW40518   6.992   2.332   5.819  0.1131  0.8546 -0.1023
13026SOL    HW140519   7.025   2.262   5.762  0.5407 -0.4168  1.6240
13026SOL    HW240520   6.898   2.337   5.799 -0.3382 -1.5677  1.0245
13027SOL     OW40521   6.285   4.363  12.121  0.6413  0.4182 -0.2161
13027SOL    HW140522   6.232   4.285  12.106  0.8669  0.2638 -0.2294
13027SOL    HW240523   6.271   4.417  12.044  0.2291  0.5384 -0.0575
13028SOL     OW40524   4.872   5.975   9.167 -0.3090 -0.3006  0.4304
13028SOL    HW140525   4.889   5.890   9.127 -1.5783 -0.7815  0.8595
13028SOL    HW240526   4.846   5.955   9.257  1.3849  0.6917  1.1924
13029SOL     OW40527   1.821   1.598  12.305  0.2135  0.2263 -0.1701
13029SOL    HW140528   1.732   1.572  12.282 -0.0973  1.8650 -0.9938
13029SOL    HW240529   1.877   1.543  12.249 -0.2835 -0.4215 -0.0451
13030SOL     OW40530   6.356   1.488   5.816  0.3787 -0.1410  0.1417
13030SOL    HW140531   6.290   1.554   5.797  1.5109  1.3262  1.0836
13030SOL    HW240532   6.364   1.437   5.735 -0.0389  1.3086 -0.8463
13031SOL     OW40533   7.109   5.976   8.308 -0.2111  0.4539  0.9594
13031SOL    HW140534   7.129   6.032   8.233  1.1687 -2.0693 -0.7119
13031SOL    HW240535   7.167   6.007   8.378 -1.5351  2.8586  1.0699
13032SOL     OW40536   1.005   2.881   8.154  0.0853 -0.1155  0.2337
13032SOL    HW140537   1.031   2.798   8.114  1.9376  0.0895  0.9239
13032SOL    HW240538   1.066   2.946   8.118 -0.8481  0.8145  0.2834
13033SOL     OW40539   6.875   4.266   6.401  0.3094 -0.4823  0.0002
13033SOL    HW140540   6.892   4.199   6.467  2.1027  0.4725  0.5636
13033SOL    HW240541   6.804   4.319   6.438 -0.4322 -1.4550 -0.0051
13034SOL     OW40542   2.256   4.518   0.054  0.0628 -0.3279 -0.1597
13034SOL    HW140543   2.312   4.534  -0.021  0.1692  0.7552  0.1311
13034SOL    HW240544   2.304   4.454   0.107  0.1473 -0.8253 -0.8255
13035SOL     OW40545   4.456   5.220  11.586  0.0890 -0.0555 -0.3699
13035SOL    HW140546   4.465   5.315  11.595  0.1293 -0.1559  0.9792
13035SOL    HW240547   4.511   5.197  11.512  0.3638  0.9335 -0.4848
13036SOL     OW40548   2.069   2.701   5.068  0.0696  0.2666  0.0260
13036SOL    HW140549   2.128   2.763   5.110 -0.7226  0.4727  0.8862
13036SOL    HW240550   2.006   2.755   5.021 -0.4329  0.1279  0.5152
13037SOL     OW40551   1.262   4.598   3.559 -0.5301  0.3690  0.4679
13037SOL    HW140552   1.259   4.598   3.463  1.7621  2.0113  0.3222
13037SOL    HW240553   1.353   4.581   3.580 -1.3788 -2.4353  2.5015
13038SOL     OW40554   1.989   7.030   3.767 -0.1058  0.1103  0.8595
13038SOL    HW140555   1.925   7.080   3.818 -1.3459 -1.5802  1.0349
13038SOL    HW240556   1.938   6.992   3.696  0.6560 -1.4533  1.1138
13039SOL     OW40557   3.730   7.521   7.987  0.0430 -0.4318 -0.3990
13039SOL    HW140558   3.720   7.601   7.936  0.1467  0.7865  1.4273
13039SOL    HW240559   3.659   7.524   8.050  0.0790 -1.7765 -0.2681
13040SOL     OW40560   7.053   2.875   0.040  0.3955 -0.6001 -0.3175
13040SOL    HW140561   6.969   2.892   0.083  0.1603 -0.4255 -0.8416
13040SOL    HW240562   7.107   2.951   0.061  0.3455 -0.6039 -0.1733
13041SOL     OW40563   7.207   7.448  10.831  0.7866  0.5924 -0.6672
13041SOL    HW140564   7.223   7.375  10.890 -0.0381  0.7570 -0.2307
13041SOL    HW240565   7.171   7.517  10.886 -0.0474  0.7302 -1.3564
13042SOL     OW40566   6.197   5.750   9.497  0.4614  0.0648  0.0314
13042SOL    HW140567   6.194   5.815   9.427  0.6928 -0.5891 -0.5912
13042SOL    HW240568   6.164   5.670   9.457 -0.5618 -0.0276  1.0067
13043SOL     OW40569   2.602   5.776   2.780  0.0410 -0.3637 -0.8104
13043SOL    HW140570   2.580   5.869   2.788 -1.2497 -0.7777  0.9644
13043SOL    HW240571   2.518   5.733   2.764  0.2526 -1.4438  0.7766
13044SOL     OW40572   1.997   1.867   0.145 -0.2177 -0.2922 -0.5100
13044SOL    HW140573   2.046   1.824   0.075  0.0391 -1.3717  0.3090
13044SOL    HW240574   2.060   1.879   0.216 -0.5136  0.6368 -0.3881
13045SOL     OW40575   2.246   4.303   6.498  0.3154  0.4751  0.1910
13045SOL    HW140576   2.204   4.255   6.426 -0.5090  0.9213  0.3645
13045SOL    HW240577   2.333   4.265   6.504  0.3871  0.3889 -1.0179
13046SOL     OW40578   4.144   0.060   1.957  1.2687  0.2123  0.1892
13046SOL    HW140579   4.077   0.006   1.998  1.0548 -0.2037 -0.6817
13046SOL    HW240580   4.218   0.001   1.945  1.2731  0.2866 -0.1576
13047SOL     OW40581   2.632   7.651   7.576  0.0533 -0.2372  0.7466
13047SOL    HW140582   2.581   7.617   7.650  0.3082  1.8607  1.9710
13047SOL    HW240583   2.576   7.718   7.536  0.6466 -0.0493  0.2007
13048SOL     OW40584   7.459   1.713   1.477 -0.1532 -0.6897 -0.3333
13048SOL    HW140585   7.376   1.733   1.520  1.1081  0.9666  1.5446
13048SOL    HW240586   7.442   1.633   1.427 -1.9875 -2.4899  2.7874
13049SOL     OW40587   5.759   3.041   7.373 -0.0668  0.7423 -0.6532
13049SOL    HW140588   5.756   2.959   7.422 -2.8398 -1.5078 -4.0257
13049SOL    HW240589   5.715   3.104   7.430 -2.1442 -1.3913  0.3050
13050SOL     OW40590   4.896   3.129  10.424 -0.4516  0.0445 -0.1755
13050SOL    HW140591   4.889   3.223  10.437  1.4559  0.2477 -0.2907
13050SOL    HW240592   4.935   3.120  10.337  1.0380 -0.7551  0.5345
13051SOL     OW40593   5.060   1.555  11.207 -0.1530  0.2867 -0.0109
13051SOL    HW140594   5.024   1.534  11.293 -0.9513 -0.9692 -0.6281
13051SOL    HW240595   5.153   1.533  11.215 -0.3771 -0.5960  0.3064
13052SOL     OW40596   0.331   6.809   9.867  0.0762  0.1193  0.3712
13052SOL    HW140597   0.387   6.883   9.842  2.6187 -2.9118 -4.4310
13052SOL    HW240598   0.256   6.815   9.808 -0.4798 -0.3044  1.0270
13053SOL     OW40599   6.923   3.584   6.610  0.2439  0.2807 -0.1260
13053SOL    HW140600   6.938   3.616   6.699 -0.7299 -1.0651  0.5516
13053SOL    HW240601   6.999   3.529   6.591  0.2271  0.1937  0.0571
13054SOL     OW40602   4.074   1.026   0.322  0.2241  0.9290 -0.8036
13054SOL    HW140603   4.011   0.982   0.377  2.1596 -0.3499  0.5086
13054SOL    HW240604   4.021   1.071   0.256 -1.9803 -0.6448 -0.2170
13055SOL     OW40605   5.165   0.482   7.628  0.0544 -0.1231  0.1507
13055SOL    HW140606   5.088   0.458   7.679 -1.1961 -1.5476 -2.2447
13055SOL    HW240607   5.132   0.542   7.561  0.8065 -1.3621 -1.4043
13056SOL     OW40608   2.055   4.722   3.523 -0.1923  0.1743  0.2292
13056SOL    HW140609   2.033   4.796   3.581 -0.2143  0.4853 -0.1758
13056SOL    HW240610   2.007   4.739   3.443  0.7250  0.3355 -0.3006
13057SOL     OW40611   7.738   4.611   7.615  0.7809  0.6297  0.3154
13057SOL    HW140612   7.668   4.589   7.676  1.2597  0.1270  0.7012
13057SOL    HW240613   7.818   4.583   7.660  1.0233 -1.4881 -1.2880
13058SOL     OW40614   1.643   1.079   7.321  0.9607  0.0937  0.3849
13058SOL    HW140615   1.635   1.171   7.297  0.0720  0.1624  0.8978
13058SOL    HW240616   1.609   1.031   7.245  0.0817  0.2417  0.6768
13059SOL     OW40617   4.160   0.735   7.988  0.3362  0.3277 -0.5474
13059SOL    HW140618   4.150   0.656   7.936  0.1277  1.4827 -2.3797
13059SOL    HW240619   4.080   0.740   8.040  0.5275 -0.8375 -0.1198
13060SOL     OW40620   4.079   3.052   4.110 -0.6020  0.1284 -0.2823
13060SOL    HW140621   4.001   3.107   4.098 -0.9116 -0.1388  0.4390
13060SOL    HW240622   4.060   2.973   4.059  0.1702  0.9597 -1.9620
13061SOL     OW40623   6.966   5.846   0.913 -0.3255 -0.9976  0.4283
13061SOL    HW140624   7.004   5.842   0.825 -0.3248 -1.9839  0.4673
13061SOL    HW240625   7.018   5.786   0.965  2.5356  2.6756  2.2852
13062SOL     OW40626   4.391   0.085  11.387 -0.4669  0.1647 -0.8985
13062SOL    HW140627   4.317   0.031  11.415  1.3650 -0.9503  2.3722
13062SOL    HW240628   4.396   0.154  11.453  0.0344  1.6366 -2.4125
13063SOL     OW40629   6.033   6.146   9.765  0.0542 -0.0985 -0.7614
13063SOL    HW140630   6.094   6.197   9.711 -1.4758 -1.3833 -4.0032
13063SOL    HW240631   6.060   6.055   9.752 -1.3966 -0.5470 -0.7533
13064SOL     OW40632   0.120   7.282   6.312  0.5531 -0.8941 -0.5188
13064SOL    HW140633   0.137   7.191   6.289 -0.7603 -1.4828  0.6864
13064SOL    HW240634   0.110   7.282   6.407  0.0235  0.4188 -0.5437
13065SOL     OW40635   3.292   0.420  11.643 -0.1797 -0.1114 -0.0800
13065SOL    HW140636   3.246   0.504  11.639  0.6995  0.3299 -1.4779
13065SOL    HW240637   3.295   0.389  11.553  0.4586 -1.1357  0.2729
13066SOL     OW40638   3.881   0.756  11.628  0.4528  0.1758 -0.3221
13066SOL    HW140639   3.901   0.716  11.543 -1.0339  0.6069 -0.9142
13066SOL    HW240640   3.820   0.827  11.607  1.4891  1.5023  0.9176
13067SOL     OW40641   3.129   0.218   9.592  0.0507 -0.1646  0.0148
13067SOL    HW140642   3.059   0.158   9.619  0.7298 -0.1945  1.8113
13067SOL    HW240643   3.167   0.176   9.514 -0.9266 -0.9135 -0.0858
13068SOL     OW40644   3.458   6.460   7.286 -0.0118 -0.1148 -0.0337
13068SOL    HW140645   3.474   6.445   7.379  1.2753  0.3035 -0.1616
13068SOL    HW240646   3.408   6.541   7.283 -1.9126 -1.2119  0.3697
13069SOL     OW40647   6.701   6.361   5.935  0.5225  0.0342  0.4497
13069SOL    HW140648   6.735   6.285   5.887 -0.5147  0.5294 -1.1769
13069SOL    HW240649   6.740   6.354   6.022  1.3483 -1.7284 -0.0055
13070SOL     OW40650   2.345   0.865   9.618 -0.0270 -0.3623 -0.0375
13070SOL    HW140651   2.401   0.811   9.674 -2.7298 -1.0558  2.2960
13070SOL    HW240652   2.301   0.803   9.560 -0.6640 -0.2667  0.3291
13071SOL     OW40653   7.744   0.464   7.867 -0.3428 -0.2426  0.3920
13071SOL    HW140654   7.760   0.452   7.773  0.6110  0.9032  0.3796
13071SOL    HW240655   7.766   0.380   7.906 -1.0163 -0.8174 -0.4395
13072SOL     OW40656   5.194   6.616   2.182 -0.2313 -0.0258  0.1123
13072SOL    HW140657   5.238   6.552   2.126 -0.1564  1.3476 -1.4920
13072SOL    HW240658   5.249   6.624   2.259  0.2968 -1.1160 -0.1435
13073SOL     OW40659   2.047   1.917   5.347 -0.0466 -0.8266  0.2130
13073SOL    HW140660   2.084   1.838   5.386 -0.8744 -0.9643  0.7467
13073SOL    HW240661   2.099   1.989   5.384  1.4579 -1.1520 -1.1399
13074SOL     OW40662   6.515   5.419  12.253  0.0062  0.4020  0.3758
13074SOL    HW140663   6.488   5.481  12.185  0.2820  0.3815  0.2456
13074SOL    HW240664   6.597   5.381  12.220  1.1328  1.7191  1.5078
13075SOL     OW40665   0.893   1.297   2.402  0.1048 -0.5481  0.2414
13075SOL    HW140666   0.846   1.223   2.441  1.9401 -0.7739  2.2569
13075SOL    HW240667   0.956   1.256   2.342 -0.0340 -0.4732  0.0414
13076SOL     OW40668   2.690   3.453   8.259  0.2688 -0.0876  0.2356
13076SOL    HW140669   2.647   3.392   8.199  2.2302 -0.1045 -1.2286
13076SOL    HW240670   2.637   3.533   8.251  0.2123 -0.2279 -1.2063
13077SOL     OW40671   6.104   2.472   4.449  0.0370 -0.6444 -0.4090
13077SOL    HW140672   6.159   2.410   4.401  2.1683 -0.9194  2.1806
13077SOL    HW240673   6.047   2.418   4.503 -0.9087 -0.3229 -1.0560
13078SOL     OW40674   1.428   5.983   3.594 -0.2502  0.4385  0.0310
13078SOL    HW140675   1.465   5.907   3.639  3.7787  3.0688  1.6901
13078SOL    HW240676   1.456   5.973   3.503 -0.4653 -0.4073  0.0427
13079SOL     OW40677   0.587   6.563   2.244  0.0378  0.2126  0.1095
13079SOL    HW140678   0.540   6.646   2.250 -0.1338  0.0303  1.5196
13079SOL    HW240679   0.678   6.585   2.265 -0.0132  0.0445  0.5165
13080SOL     OW40680   1.783   0.820   1.970 -0.2627 -0.6445  0.0288
13080SOL    HW140681   1.801   0.892   1.910  1.5026 -1.7165 -0.8047
13080SOL    HW240682   1.730   0.759   1.919 -1.2061 -0.2706  0.5281
13081SOL     OW40683   4.229   5.945   1.942 -0.4772 -0.4463  0.1403
13081SOL    HW140684   4.291   5.938   2.015  0.2153 -0.4833 -0.4497
13081SOL    HW240685   4.215   6.040   1.932  0.8531 -0.3282 -0.8548
13082SOL     OW40686   1.075   2.071   3.320  0.0050 -0.8491 -0.1389
13082SOL    HW140687   1.078   2.079   3.415 -0.7904 -3.4744  0.1889
13082SOL    HW240688   1.151   2.121   3.289  1.8926 -2.1606  2.0956
13083SOL     OW40689   0.161   0.962   4.716  0.8956 -0.5058 -0.3591
13083SOL    HW140690   0.155   0.960   4.621 -0.6725 -1.6490 -0.2801
13083SOL    HW240691   0.254   0.946   4.735  1.4687  1.0399 -1.6821
13084SOL     OW40692   2.024   5.452  10.392  0.0534  0.1191 -0.0894
13084SOL    HW140693   2.065   5.418  10.472  0.8896 -0.4747 -0.7564
13084SOL    HW240694   1.934   5.419  10.396  0.1674 -0.1410  0.4664
13085SOL     OW40695   4.460   5.672   8.857 -0.3310  0.8708 -0.1008
13085SOL    HW140696   4.382   5.701   8.810 -1.4865 -0.4917  0.8854
13085SOL    HW240697   4.532   5.719   8.815 -1.3958  0.4920 -2.5175
13086SOL     OW40698   7.091   1.197   8.321 -0.0420  0.5738 -0.5716
13086SOL    HW140699   7.126   1.217   8.408 -0.5110  0.5321 -0.3733
13086SOL    HW240700   7.162   1.220   8.261  0.8234 -0.7251 -0.0905
13087SOL     OW40701   4.418   5.193   9.887  0.4489  0.0417  0.8243
13087SOL    HW140702   4.410   5.101   9.914  0.3087  0.4755  2.3738
13087SOL    HW240703   4.328   5.224   9.878  0.4641 -0.3573 -1.2771
13088SOL     OW40704   6.937   7.372   3.203  0.3884  0.8691  0.0726
13088SOL    HW140705   6.939   7.437   3.273 -1.1156  0.9987  0.0215
13088SOL    HW240706   6.962   7.421   3.124 -0.4195  1.3346  0.0905
13089SOL     OW40707   7.009   6.623   5.486 -0.1642  1.0195  0.0277
13089SOL    HW140708   7.049   6.653   5.405 -1.0851 -1.1429 -1.3127
13089SOL    HW240709   6.925   6.586   5.460 -1.2738  1.7954  2.2198
13090SOL     OW40710   0.107   2.042   9.288  0.1052 -0.8861  0.0145
13090SOL    HW140711   0.092   2.045   9.382 -1.3693 -0.7313 -0.2049
13090SOL    HW240712   0.095   1.950   9.264  1.6726 -1.1423  0.1423
13091SOL     OW40713   5.053   5.778   6.075 -0.4108 -0.0896  0.4344
13091SOL    HW140714   4.998   5.704   6.100 -0.6823  0.7159  2.3886
13091SOL    HW240715   4.997   5.833   6.020 -1.4795  0.5182  2.0689
13092SOL     OW40716   1.597   1.681  10.959  0.4726 -0.2793 -0.3200
13092SOL    HW140717   1.617   1.641  10.875  0.7035  0.9685 -0.8792
13092SOL    HW240718   1.502   1.698  10.955  0.1999 -1.5594  0.2826
13093SOL     OW40719   6.020   3.590   2.094  0.1870 -0.0136 -0.0102
13093SOL    HW140720   5.937   3.637   2.099  0.9256  1.1988  1.8869
13093SOL    HW240721   5.995   3.498   2.085 -1.3032  0.5279 -2.2258
13094SOL     OW40722   3.581   5.830   6.630  0.3800  0.3683 -0.4170
13094SOL    HW140723   3.671   5.852   6.603  0.4999 -0.3438 -0.6057
13094SOL    HW240724   3.583   5.736   6.648  0.4797  0.8959  2.8268
13095SOL     OW40725   0.175   0.846   7.026 -0.3262 -0.3600 -0.0440
13095SOL    HW140726   0.144   0.836   6.936 -0.2620 -1.0225  0.0058
13095SOL    HW240727   0.264   0.878   7.017 -0.4685 -0.0051 -0.2092
13096SOL     OW40728   7.105   2.506   1.348 -0.1117 -0.0116 -0.0374
13096SOL    HW140729   7.193   2.475   1.369  0.1253  0.8939  0.3437
13096SOL    HW240730   7.116   2.598   1.326 -0.8436 -0.1063 -0.8616
13097SOL     OW40731   3.600   5.482  10.237 -0.4353  0.4908  0.4446
13097SOL    HW140732   3.614   5.552  10.301 -1.6930  1.7710 -0.6163
13097SOL    HW240733   3.652   5.409  10.270 -0.3980  1.3703  2.4761
13098SOL     OW40734   7.972   2.651   6.347  0.4919  0.4367 -0.1075
13098SOL    HW140735   8.046   2.606   6.388  0.5003  0.4394 -0.1193
13098SOL    HW240736   7.905   2.654   6.414  0.0580 -0.6314 -0.4886
13099SOL     OW40737   5.937   4.747   3.237 -0.0046 -0.1180 -0.2748
13099SOL    HW140738   5.993   4.776   3.165  1.5566  1.1952  1.3737
13099SOL    HW240739   5.896   4.827   3.269 -0.2647 -0.5962  0.6204
13100SOL     OW40740   2.955   2.987  10.162 -0.1605  0.1367  0.1645
13100SOL    HW140741   2.892   2.997  10.233  0.1517 -0.7440  0.5882
13100SOL    HW240742   2.928   2.907  10.117 -0.7298  1.0136 -1.1156
13101SOL     OW40743   3.158   6.647   1.329  0.1874 -0.2234  0.1163
13101SOL    HW140744   3.122   6.725   1.372  0.1188  0.1431 -0.5823
13101SOL    HW240745   3.088   6.583   1.332 -0.5212  0.4485 -1.1349
13102SOL     OW40746   5.255   4.553   4.591  0.2666 -0.3293  0.6100
13102SOL    HW140747   5.248   4.467   4.633 -0.0111  0.7690  2.9216
13102SOL    HW240748   5.337   4.548   4.541  0.4908 -1.7683  1.0713
13103SOL     OW40749   6.664   3.146  11.111 -0.1576 -0.2967  0.0411
13103SOL    HW140750   6.587   3.192  11.077 -1.2625 -2.7513 -1.0270
13103SOL    HW240751   6.738   3.184  11.064 -0.8044  1.3794  0.3083
13104SOL     OW40752   4.145   6.802  12.256  0.1010 -0.1026  0.2202
13104SOL    HW140753   4.121   6.814  12.347  0.9190  0.9221  0.3155
13104SOL    HW240754   4.165   6.708  12.249  1.4260  0.0499  1.4614
13105SOL     OW40755   7.520   3.168   5.975  0.3304  0.5434 -0.3498
13105SOL    HW140756   7.448   3.120   6.016 -0.8746  1.6776 -1.0524
13105SOL    HW240757   7.598   3.118   5.997 -0.5432 -0.1475  1.3453
13106SOL     OW40758   1.446   0.202   5.864  0.2072 -0.0081  0.1220
13106SOL    HW140759   1.495   0.162   5.792  0.3605  1.0501 -0.3715
13106SOL    HW240760   1.441   0.132   5.930  0.2167 -0.9335 -0.8236
13107SOL     OW40761   6.311   6.111   8.098  0.5627  0.6262 -0.4000
13107SOL    HW140762   6.292   6.161   8.019 -2.6123  2.3695  1.2883
13107SOL    HW240763   6.351   6.174   8.158  4.1318 -0.9511 -0.8008
13108SOL     OW40764   3.031   6.987  10.101 -0.9763  0.0340  0.5840
13108SOL    HW140765   2.962   6.982  10.167 -0.3009 -2.0145  1.2120
13108SOL    HW240766   3.112   6.977  10.151 -0.4997 -3.0280 -0.6039
13109SOL     OW40767   0.991   4.414   5.969  0.7039 -0.4470  0.1343
13109SOL    HW140768   1.038   4.427   5.886  2.3255 -0.7522  0.9622
13109SOL    HW240769   1.048   4.356   6.019 -1.5341 -2.5166  0.4316
13110SOL     OW40770   2.064   5.740   5.124 -0.1065 -0.5710  0.8174
13110SOL    HW140771   1.985   5.711   5.169 -1.2236  0.2853 -0.5024
13110SOL    HW240772   2.125   5.764   5.194 -0.8571 -1.6374  1.8554
13111SOL     OW40773   5.576   6.056   0.482 -0.3235 -0.4790 -0.1695
13111SOL    HW140774   5.640   5.991   0.454 -2.2108 -2.7342  0.4562
13111SOL    HW240775   5.554   6.103   0.402  1.4016 -0.2388 -0.5590
13112SOL     OW40776   0.757   3.978  10.113 -0.0094 -0.1290  0.7914
13112SOL    HW140777   0.785   4.051  10.168 -0.3387  0.0315  0.7508
13112SOL    HW240778   0.661   3.982  10.115 -0.0257 -0.2946  0.4342
13113SOL     OW40779   0.283   5.873   5.305 -0.5905  0.3441  0.1386
13113SOL    HW140780   0.251   5.954   5.266 -0.3110  0.4680  0.1642
13113SOL    HW240781   0.311   5.819   5.231 -0.8250  0.2505  0.1182
13114SOL     OW40782   2.465   1.102  11.599  0.1742  0.5210  0.0828
13114SOL    HW140783   2.380   1.074  11.566 -0.8403  1.0558  2.0739
13114SOL    HW240784   2.478   1.189  11.561 -0.8047  0.9819  0.7517
13115SOL     OW40785   6.256   1.351   3.892  0.5140 -0.2109 -0.0795
13115SOL    HW140786   6.311   1.310   3.960  0.4208 -0.6019 -0.2354
13115SOL    HW240787   6.204   1.279   3.857  1.6486 -0.3289 -1.6408
13116SOL     OW40788   0.009   1.609   9.518  0.0670  0.1805  0.4559
13116SOL    HW140789  -0.078   1.647   9.517 -0.0148  0.0016 -0.6852
13116SOL    HW240790   0.033   1.606   9.611 -0.8049  0.9661  0.7222
13117SOL     OW40791   5.837   0.416   0.101  0.4519  0.2955 -0.2735
13117SOL    HW140792   5.915   0.471   0.105 -0.4167  1.4796  1.3723
13117SOL    HW240793   5.862   0.336   0.147  0.5811  0.8715  0.6955
13118SOL     OW40794   3.345   1.377   9.081 -0.0666  0.1236  0.1161
13118SOL    HW140795   3.337   1.469   9.106 -0.8085  0.0846  0.0393
13118SOL    HW240796   3.419   1.345   9.132 -1.2023  0.1845  1.9201
13119SOL     OW40797   0.714   6.607   1.046 -0.3598 -0.3365  0.3490
13119SOL    HW140798   0.620   6.619   1.032 -0.4699 -1.0722  0.4305
13119SOL    HW240799   0.729   6.513   1.035  0.7649  0.0407 -2.0783
13120SOL     OW40800   5.131   7.810   1.323  0.1280  0.0446  0.3607
13120SOL    HW140801   5.046   7.855   1.327 -1.1000 -2.1857  1.1279
13120SOL    HW240802   5.169   7.840   1.240 -1.5058  0.9395 -0.1258
13121SOL     OW40803   0.758   0.384   9.412 -0.1885  0.4660  0.4587
13121SOL    HW140804   0.701   0.448   9.455 -0.0035  0.8787  0.0948
13121SOL    HW240805   0.722   0.299   9.438 -0.3763  0.7137  1.0236
13122SOL     OW40806   3.373   0.033  12.303 -0.5761 -0.5879  0.0347
13122SOL    HW140807   3.307  -0.028  12.270 -0.2487 -0.7012 -0.4269
13122SOL    HW240808   3.455  -0.017  12.298 -0.2709 -0.0285 -0.5674
13123SOL     OW40809   1.609   2.598   2.899  0.6197 -0.1169  0.0153
13123SOL    HW140810   1.637   2.573   2.987  0.4093  0.0876  0.1439
13123SOL    HW240811   1.540   2.536   2.877 -2.5672  2.4312  1.8312
13124SOL     OW40812   4.292   5.708  10.933 -0.2482  0.2829  0.1245
13124SOL    HW140813   4.312   5.627  10.978  3.1579 -0.3557 -2.1082
13124SOL    HW240814   4.248   5.681  10.852  0.4398  0.6391 -0.3876
13125SOL     OW40815   0.637   7.627   0.018 -0.2782  0.2410  0.1287
13125SOL    HW140816   0.630   7.721   0.000  1.7587  0.0543 -2.1824
13125SOL    HW240817   0.683   7.621   0.101  0.6089  1.3177 -0.2636
13126SOL     OW40818   4.879   3.860   1.654 -0.0273 -0.0796 -0.0745
13126SOL    HW140819   4.959   3.862   1.706  0.0388  2.1241 -0.1546
13126SOL    HW240820   4.810   3.838   1.717  0.3590  0.2965  0.4968
13127SOL     OW40821   5.900   5.580   8.641 -0.0716 -0.2720  0.3948
13127SOL    HW140822   5.917   5.630   8.561  0.9766 -1.0543  0.1089
13127SOL    HW240823   5.896   5.489   8.612 -1.0834 -0.4459  1.0408
13128SOL     OW40824   3.263   6.089   9.798  0.5049  0.5211 -0.4751
13128SOL    HW140825   3.267   6.135   9.882 -0.8966 -0.1801  0.0022
13128SOL    HW240826   3.241   5.999   9.821 -0.0724  0.3615 -1.6018
13129SOL     OW40827   0.273   0.032   7.070  0.1115 -0.4611  0.7885
13129SOL    HW140828   0.202  -0.019   7.109  0.2994 -1.0672  0.3411
13129SOL    HW240829   0.334  -0.033   7.036  0.8204  0.0551  1.0390
13130SOL     OW40830   3.397   1.759   1.680 -0.4954 -0.2575  0.1008
13130SOL    HW140831   3.485   1.774   1.645 -0.7976 -0.6926 -0.8966
13130SOL    HW240832   3.400   1.794   1.769 -0.1764  2.4760 -0.8819
13131SOL     OW40833   1.040   0.848   8.813  0.0579  0.1376  0.2615
13131SOL    HW140834   0.963   0.877   8.764  0.2633 -0.1463 -0.2454
13131SOL    HW240835   1.107   0.833   8.745  0.4628  0.0861  0.6650
13132SOL     OW40836   0.972   0.412   4.536 -0.3950  0.0515  0.2840
13132SOL    HW140837   0.895   0.425   4.592 -1.0463  2.9445 -1.0810
13132SOL    HW240838   1.040   0.465   4.577 -0.2036  0.3277 -0.3756
13133SOL     OW40839   4.402   1.791   3.196  0.0084 -0.1757 -0.6603
13133SOL    HW140840   4.351   1.711   3.205 -1.4741  0.6614 -1.1430
13133SOL    HW240841   4.382   1.841   3.275  1.4200 -0.5133 -0.0552
13134SOL     OW40842   0.961   0.029   0.807  0.2143  0.1129 -0.4365
13134SOL    HW140843   0.997  -0.051   0.845 -0.0062  0.0522 -0.3516
13134SOL    HW240844   0.968   0.017   0.713  1.3895  0.5520 -0.4143
13135SOL     OW40845   1.046   4.342   3.562 -0.1707  0.4923 -0.0036
13135SOL    HW140846   1.110   4.321   3.493  0.4103  1.3844  0.2478
13135SOL    HW240847   0.970   4.374   3.515 -0.2840 -0.1710 -0.2870
13136SOL     OW40848   6.540   0.506  10.661 -0.1962  0.2469  0.2501
13136SOL    HW140849   6.505   0.572  10.602  0.4319  0.3139 -0.0576
13136SOL    HW240850   6.469   0.488  10.723 -0.6853  0.5381 -0.2221
13137SOL     OW40851   6.039   2.651   7.058 -0.1900 -0.4208 -0.6014
13137SOL    HW140852   6.082   2.714   7.001 -0.1500 -0.4047 -0.5542
13137SOL    HW240853   6.089   2.655   7.140 -0.9812  0.4394 -0.1475
13138SOL     OW40854   7.215   1.105   5.612 -0.1565 -0.4601 -0.2198
13138SOL    HW140855   7.197   1.160   5.536  0.6089  0.9171  0.5581
13138SOL    HW240856   7.240   1.167   5.681  1.4586 -1.8041  0.4799
13139SOL     OW40857   0.176   2.121   7.270 -0.1491 -0.2554 -0.4028
13139SOL    HW140858   0.245   2.057   7.254 -1.4058 -1.3353 -1.7869
13139SOL    HW240859   0.188   2.187   7.203 -0.0374 -0.0816 -0.2109
13140SOL     OW40860   7.918   0.032   8.909  0.4346 -0.1571 -0.4778
13140SOL    HW140861   7.966   0.095   8.962  0.4126 -0.3958 -0.1729
13140SOL    HW240862   7.982  -0.036   8.888  0.2898 -0.3627 -0.2579
13141SOL     OW40863   4.071   2.631   0.130  0.2018  0.0444  0.3257
13141SOL    HW140864   4.144   2.664   0.078  0.1206  0.0734  0.2297
13141SOL    HW240865   3.993   2.667   0.087  0.1233 -0.1226  0.3287
13142SOL     OW40866   5.687   1.226   9.430 -0.6061 -0.2121  0.1184
13142SOL    HW140867   5.776   1.216   9.462 -1.0420  1.1491  1.9459
13142SOL    HW240868   5.643   1.145   9.457 -0.4083 -0.0203  1.0570
13143SOL     OW40869   5.374   0.354  12.425 -0.4284  0.3321 -0.0309
13143SOL    HW140870   5.364   0.259  12.438  0.2199  0.3282  0.4871
13143SOL    HW240871   5.447   0.378  12.481 -0.9274  1.2424  0.2347
13144SOL     OW40872   7.709   5.771   8.844 -0.3218 -0.4166  0.3911
13144SOL    HW140873   7.694   5.717   8.922 -1.2118  0.2980  0.7288
13144SOL    HW240874   7.701   5.861   8.875  2.7089  0.0421  0.1728
13145SOL     OW40875   1.568   5.230   9.114  0.4867  0.4523 -0.1456
13145SOL    HW140876   1.586   5.211   9.022 -1.1276 -1.1666 -0.1673
13145SOL    HW240877   1.547   5.323   9.115  0.4523  0.4794 -1.4203
13146SOL     OW40878   5.870   5.955  10.294  0.3995  0.5411 -0.9055
13146SOL    HW140879   5.866   5.890  10.364  1.0036 -1.8586 -2.9488
13146SOL    HW240880   5.778   5.975  10.274  0.2214  0.8816  0.1821
13147SOL     OW40881   2.025   1.853   1.548  0.1420 -0.2071 -0.5705
13147SOL    HW140882   2.101   1.869   1.604  0.1834 -0.0533 -0.6702
13147SOL    HW240883   2.049   1.775   1.498 -0.5384 -1.3228  0.7648
13148SOL     OW40884   1.990   3.804  12.471  0.3779 -0.2875  0.2176
13148SOL    HW140885   1.954   3.722  12.504  1.9320 -2.1031 -2.2588
13148SOL    HW240886   1.927   3.833  12.405 -0.3586  0.7939  1.3466
13149SOL     OW40887   6.143   5.737   5.629 -0.3759 -0.6096 -0.2380
13149SOL    HW140888   6.180   5.816   5.591 -0.9907 -0.1895  0.0346
13149SOL    HW240889   6.055   5.762   5.657 -0.1083 -1.0302  1.0399
13150SOL     OW40890   6.723   3.500   8.805 -0.4102  0.4845  0.4349
13150SOL    HW140891   6.669   3.424   8.825 -1.2515  0.3778 -1.9963
13150SOL    HW240892   6.781   3.470   8.735 -0.3232  1.8915 -0.1175
13151SOL     OW40893   6.296   2.668   1.213 -0.1816  0.3587 -0.2351
13151SOL    HW140894   6.241   2.716   1.275  0.9917  1.9204 -0.3492
13151SOL    HW240895   6.251   2.678   1.129  0.2823  1.6834 -0.3404
13152SOL     OW40896   0.342   0.931  10.792 -0.1867 -0.0103 -0.1497
13152SOL    HW140897   0.419   0.988  10.799 -0.0320  0.0702 -2.1070
13152SOL    HW240898   0.279   0.969  10.853  1.0281  0.3589  0.9406
13153SOL     OW40899   3.169   0.959   0.640  0.9426  0.5849  0.6012
13153SOL    HW140900   3.215   1.042   0.654 -0.9165  1.5088  1.6610
13153SOL    HW240901   3.113   0.976   0.564  1.2390 -0.0473  0.2295
13154SOL     OW40902   6.841   0.582   0.275  0.7539 -0.2794 -0.5455
13154SOL    HW140903   6.823   0.659   0.329  3.7091 -0.0442  0.3045
13154SOL    HW240904   6.765   0.573   0.218 -0.6461  1.9363  0.8637
13155SOL     OW40905   7.648   0.985   1.166  0.1389  0.0608  0.2656
13155SOL    HW140906   7.681   0.988   1.257  0.5515 -1.3695  0.1929
13155SOL    HW240907   7.722   1.016   1.114  0.4528 -0.6158  0.3039
13156SOL     OW40908   4.455   7.491  10.611  0.6705  0.1685 -0.4760
13156SOL    HW140909   4.506   7.423  10.567  1.2987  1.3082 -1.5695
13156SOL    HW240910   4.518   7.559  10.633 -0.4001  1.9090 -2.4228
13157SOL     OW40911   0.350   4.206   8.239  0.6492 -0.1212  0.2402
13157SOL    HW140912   0.289   4.144   8.281 -0.0316  0.7928  0.6306
13157SOL    HW240913   0.410   4.232   8.308 -0.0082  0.8092  0.4767
13158SOL     OW40914   5.308   3.171   5.502 -0.0825 -0.0717 -0.4941
13158SOL    HW140915   5.348   3.256   5.523  0.5014 -0.3839 -0.3190
13158SOL    HW240916   5.374   3.127   5.448 -0.4624 -0.3414 -0.7427
13159SOL     OW40917   3.347   0.272   9.225 -0.4800  0.3888 -1.3915
13159SOL    HW140918   3.411   0.283   9.155 -0.7753  1.4334 -1.5036
13159SOL    HW240919   3.281   0.213   9.188  1.0470 -1.8063 -0.8228
13160SOL     OW40920   1.159   7.000   6.967 -0.2665 -0.2219 -0.5904
13160SOL    HW140921   1.100   7.059   6.920  0.9847  1.4303 -0.2196
13160SOL    HW240922   1.115   6.983   7.050  0.1157  1.7491  0.0721
13161SOL     OW40923   1.299   4.029   9.979 -0.1185  0.0638  0.4299
13161SOL    HW140924   1.385   4.053   9.944  0.6353 -1.8518  0.8605
13161SOL    HW240925   1.243   4.103   9.956  1.0524  0.2813 -2.0460
13162SOL     OW40926   3.509   1.952   8.783 -0.5987 -0.0243  0.1259
13162SOL    HW140927   3.505   1.942   8.688 -1.0537 -0.9727  0.2371
13162SOL    HW240928   3.471   2.038   8.800 -1.2264 -0.1755 -0.4874
13163SOL     OW40929   0.329   7.928   2.540 -0.2690  0.1253 -0.2755
13163SOL    HW140930   0.398   7.949   2.603 -1.2652 -0.6558  1.1283
13163SOL    HW240931   0.266   7.876   2.590 -0.7112 -1.2169 -2.1326
13164SOL     OW40932   3.804   5.930   7.815  0.0420  0.1971 -0.1706
13164SOL    HW140933   3.715   5.906   7.790  0.2405 -0.6434 -0.1010
13164SOL    HW240934   3.832   5.993   7.748 -1.2761  1.9863  0.8887
13165SOL     OW40935   4.265   6.777   4.022  0.0255  0.0882  0.1000
13165SOL    HW140936   4.291   6.720   3.950 -0.8709  0.7749 -0.7836
13165SOL    HW240937   4.173   6.798   4.005  0.0058  0.8345  1.0516
13166SOL     OW40938   0.365   5.586  11.341  0.2390  0.3979 -0.4483
13166SOL    HW140939   0.438   5.620  11.392 -0.6781  1.6604  0.0926
13166SOL    HW240940   0.381   5.492  11.334  1.7985  0.6317 -0.1946
13167SOL     OW40941   0.038   0.021   4.209  0.0131  0.6286  0.5272
13167SOL    HW140942  -0.015   0.088   4.252 -0.6264  0.1006  0.5903
13167SOL    HW240943   0.123   0.025   4.252 -0.5577  0.2282  1.7158
13168SOL     OW40944   7.871   7.007   9.553 -0.3485 -0.8391 -0.4706
13168SOL    HW140945   7.785   7.046   9.567 -0.9459 -1.7026 -1.6818
13168SOL    HW240946   7.876   6.991   9.459  1.5376  0.1022 -0.5954
13169SOL     OW40947   4.240   7.116   5.072 -0.1034 -0.0073 -0.3236
13169SOL    HW140948   4.306   7.136   5.006  0.7023  0.3800  0.5902
13169SOL    HW240949   4.179   7.190   5.067  0.7214  0.7356  0.3162
13170SOL     OW40950   3.569   2.438  10.270  0.1005  0.6022 -0.1237
13170SOL    HW140951   3.614   2.521  10.284  0.2558  0.7784 -1.5468
13170SOL    HW240952   3.482   2.451  10.308  0.7984  0.6913  1.5074
13171SOL     OW40953   3.112   6.373   2.510 -0.3889  0.1835 -0.0761
13171SOL    HW140954   3.108   6.463   2.477 -0.3149  0.3928  0.4693
13171SOL    HW240955   3.035   6.364   2.565  1.8811  1.4712  3.6561
13172SOL     OW40956   1.563   6.806   5.689 -0.4879  0.0778  0.3057
13172SOL    HW140957   1.624   6.804   5.616 -1.1528 -0.4230 -0.2424
13172SOL    HW240958   1.552   6.715   5.715  0.1637  0.2913  1.3975
13173SOL     OW40959   3.520   4.429   3.463 -0.3287 -0.1989 -0.0536
13173SOL    HW140960   3.539   4.398   3.375  0.6875  0.3786 -0.0550
13173SOL    HW240961   3.521   4.525   3.456 -0.4598 -0.1487  0.5365
13174SOL     OW40962   1.748   6.223   9.936 -0.2818 -0.4022  0.4937
13174SOL    HW140963   1.774   6.308   9.972 -1.0871 -0.5752  1.5235
13174SOL    HW240964   1.664   6.238   9.893  0.4293 -0.3109 -0.9148
13175SOL     OW40965   5.003   0.395   9.516 -0.0142 -0.4610  0.5773
13175SOL    HW140966   4.943   0.322   9.530 -0.8258  0.1687  0.4441
13175SOL    HW240967   5.060   0.395   9.593 -0.0508 -1.1857  0.6083
13176SOL     OW40968   3.897   3.255  10.086  0.4377 -0.2744 -0.0999
13176SOL    HW140969   3.991   3.265  10.071  0.9045 -1.3132  1.8051
13176SOL    HW240970   3.889   3.175  10.138 -1.2824  0.8989  1.5699
13177SOL     OW40971   4.616   5.966  10.565  0.2010  0.6467 -0.3305
13177SOL    HW140972   4.677   5.900  10.597 -2.4294 -1.3027  1.0347
13177SOL    HW240973   4.532   5.921  10.560 -1.0030  2.8679 -3.2193
13178SOL     OW40974   3.863   7.166  12.175 -0.4978  0.0700 -0.4542
13178SOL    HW140975   3.868   7.100  12.244  1.4760 -0.5678 -1.1461
13178SOL    HW240976   3.881   7.118  12.095  1.9123  1.5245 -0.8890
13179SOL     OW40977   6.088   2.083  11.491 -0.1752 -0.4106  0.3386
13179SOL    HW140978   6.051   2.028  11.561  0.1762 -2.6489 -1.1329
13179SOL    HW240979   6.050   2.049  11.411  1.4092  0.3703 -0.7972
13180SOL     OW40980   5.905   2.397   3.351  0.3495  0.1678 -0.3496
13180SOL    HW140981   5.821   2.443   3.352 -0.4722 -1.2566 -0.7286
13180SOL    HW240982   5.932   2.399   3.259 -0.8838 -2.0743 -0.8437
13181SOL     OW40983   3.537   0.054   4.404 -0.2202  0.6299 -0.4065
13181SOL    HW140984   3.518  -0.029   4.360  1.2976  0.1347 -0.2000
13181SOL    HW240985   3.536   0.032   4.498 -0.9760  1.1224 -0.2872
13182SOL     OW40986   4.026   2.249   3.715 -0.1974  0.0469  0.2613
13182SOL    HW140987   4.079   2.278   3.640 -0.2934  0.2733  0.2792
13182SOL    HW240988   4.085   2.255   3.790  0.2468 -1.2782  0.0377
13183SOL     OW40989   4.585   6.770   7.920  0.6354  0.2416  0.6119
13183SOL    HW140990   4.532   6.777   8.000  0.3885 -0.0393  0.4752
13183SOL    HW240991   4.659   6.829   7.935  0.0198  1.0440  0.6056
13184SOL     OW40992   3.016   7.107  10.740  0.3492 -0.4239 -0.0426
13184SOL    HW140993   2.978   7.187  10.778 -1.2218  0.2831 -2.8165
13184SOL    HW240994   3.109   7.127  10.730 -0.1528  1.4843 -1.5042
13185SOL     OW40995   5.188   2.762   8.471 -0.0802 -0.3952  0.5758
13185SOL    HW140996   5.157   2.687   8.522 -1.3058  1.1824  2.2909
13185SOL    HW240997   5.117   2.780   8.409  0.1133 -0.5014  0.3214
13186SOL     OW40998   5.944   7.418  11.682 -0.3033 -0.2419 -0.2116
13186SOL    HW140999   5.882   7.476  11.725  0.1268 -0.1288  0.2603
13186SOL    HW241000   5.897   7.335  11.673 -1.6545  0.6578 -2.6538
13187SOL     OW41001   7.094   3.893   1.847 -0.0833  0.0941  0.1431
13187SOL    HW141002   7.131   3.922   1.930  0.4244  0.3925 -0.1837
13187SOL    HW241003   7.165   3.847   1.804  0.5746  2.3259 -1.3308
13188SOL     OW41004   6.771   1.061   8.673  0.5509 -0.4444  0.1642
13188SOL    HW141005   6.692   1.066   8.727  0.1029  1.2409 -0.5933
13188SOL    HW241006   6.840   1.036   8.734  0.2718  2.4441  1.8127
13189SOL     OW41007   1.808   2.250   4.152 -0.1724 -0.1012  0.1963
13189SOL    HW141008   1.738   2.199   4.110 -0.1731  0.3865 -0.4174
13189SOL    HW241009   1.883   2.237   4.095 -0.3837  1.2089 -0.4075
13190SOL     OW41010   1.206   5.866  12.031  0.5631 -0.1470  0.2977
13190SOL    HW141011   1.226   5.874  11.938 -0.1686 -1.0577  0.0404
13190SOL    HW241012   1.232   5.777  12.054  0.7132  0.0616  0.9587
13191SOL     OW41013   5.669   2.813  12.088 -0.1641 -0.0382 -0.2429
13191SOL    HW141014   5.739   2.877  12.076 -0.9278  1.1647  1.2859
13191SOL    HW241015   5.589   2.861  12.068 -0.5970 -1.4133 -2.0390
13192SOL     OW41016   4.830   2.341   1.659  0.3333 -0.3729 -0.1209
13192SOL    HW141017   4.922   2.326   1.680  0.2184  0.1692  0.8012
13192SOL    HW241018   4.784   2.329   1.742 -0.2635  0.7546 -0.2695
13193SOL     OW41019   5.649   0.754   4.409  1.0253 -0.2305  0.4325
13193SOL    HW141020   5.570   0.805   4.393  0.8679 -0.2914  1.0084
13193SOL    HW241021   5.696   0.757   4.326  0.2273 -0.5314 -0.0452
13194SOL     OW41022   4.071   4.817   2.019  0.2537  0.3078  0.1155
13194SOL    HW141023   4.012   4.800   2.093  0.2072  1.9026  0.4738
13194SOL    HW241024   4.157   4.787   2.050  0.0204 -0.1268  0.3605
13195SOL     OW41025   5.159   0.662   7.431 -0.3452 -0.3889  0.3124
13195SOL    HW141026   5.122   0.743   7.467 -2.0070 -0.3887 -1.2659
13195SOL    HW241027   5.118   0.653   7.345  3.1015 -0.6131 -1.4870
13196SOL     OW41028   2.946   0.899   1.291  0.1809  0.0180  0.1923
13196SOL    HW141029   2.864   0.948   1.285  0.7816  1.2960  1.7001
13196SOL    HW241030   2.919   0.807   1.293 -1.3082  0.4327  1.4318
13197SOL     OW41031   7.870   0.209   6.728 -0.0189 -0.1813  0.3807
13197SOL    HW141032   7.953   0.218   6.774  0.8896  0.1487 -1.2443
13197SOL    HW241033   7.887   0.146   6.658 -1.2042 -0.3254  0.1895
13198SOL     OW41034   0.204   6.295   9.148 -0.5797 -0.5411 -0.8306
13198SOL    HW141035   0.200   6.238   9.224 -1.8950 -2.1240 -2.0270
13198SOL    HW241036   0.261   6.250   9.086 -0.0948  0.3886 -1.0950
13199SOL     OW41037   3.202   2.905   2.484  0.2506  0.5693 -0.0574
13199SOL    HW141038   3.224   2.997   2.471 -0.1577  0.7108  0.2229
13199SOL    HW241039   3.113   2.896   2.449  0.0890  0.4007  0.3822
13200SOL     OW41040   3.520   2.167   2.901 -0.0083  0.0860  0.1194
13200SOL    HW141041   3.527   2.098   2.966 -2.7878 -1.5879 -1.1582
13200SOL    HW241042   3.590   2.147   2.838 -1.0041 -1.9294 -0.4464
13201SOL     OW41043   4.142   2.172   2.393 -0.8256  0.0457  0.6312
13201SOL    HW141044   4.214   2.123   2.353 -0.3958  1.1026  0.0768
13201SOL    HW241045   4.088   2.105   2.435 -0.7741 -1.0029 -0.8972
13202SOL     OW41046   3.490   1.967   3.120 -0.5359 -0.4928 -0.3035
13202SOL    HW141047   3.425   1.909   3.160 -0.7517 -0.4937 -0.6434
13202SOL    HW241048   3.539   1.910   3.061 -1.6664 -0.0844 -1.7137
13203SOL     OW41049   5.176   7.324   1.025  0.4929  0.2845  0.1615
13203SOL    HW141050   5.111   7.393   1.037 -1.9485 -1.8982  0.2254
13203SOL    HW241051   5.144   7.274   0.950  2.6405 -0.3333 -0.4046
13204SOL     OW41052   5.575   0.112  11.905  0.2697 -0.5951  0.0115
13204SOL    HW141053   5.659   0.073  11.880 -0.2735 -1.8419  0.0520
13204SOL    HW241054   5.509   0.056  11.863 -0.5440  0.3075  0.0589
13205SOL     OW41055   5.279   6.317   7.157  0.5647  0.2032  1.1605
13205SOL    HW141056   5.286   6.390   7.095 -1.6903 -0.3891  0.1043
13205SOL    HW241057   5.189   6.322   7.190  0.3253 -2.0945  1.0314
13206SOL     OW41058   4.180   0.535   7.816 -0.2031 -0.1023 -0.5635
13206SOL    HW141059   4.132   0.500   7.741  0.0078  0.6574 -1.0657
13206SOL    HW241060   4.270   0.545   7.785  0.0354 -0.4380  0.0109
13207SOL     OW41061   1.385   1.492   4.538  0.2718  0.0730  0.6116
13207SOL    HW141062   1.356   1.490   4.446  1.7411 -1.6118  0.1331
13207SOL    HW241063   1.336   1.422   4.580  0.6324 -0.0745  0.7820
13208SOL     OW41064   2.319   7.341   7.895 -0.0090 -0.0400  0.2960
13208SOL    HW141065   2.233   7.346   7.935 -0.4147  2.1171 -0.7047
13208SOL    HW241066   2.302   7.309   7.806  0.2648  0.0101  0.2242
13209SOL     OW41067   4.848   4.918  10.988  0.2407 -0.1709 -0.0158
13209SOL    HW141068   4.880   4.828  10.994  2.4755  0.4728 -1.1490
13209SOL    HW241069   4.770   4.912  10.933  2.6221 -1.0481 -3.6627
13210SOL     OW41070   2.653   1.988   9.933 -0.3734  0.3945  0.5168
13210SOL    HW141071   2.616   2.002  10.020 -1.8137  2.1935 -0.3173
13210SOL    HW241072   2.585   2.018   9.873  0.9465  0.0750 -1.2222
13211SOL     OW41073   6.001   4.127   3.741 -0.3536 -0.1576 -0.7344
13211SOL    HW141074   6.024   4.040   3.707 -0.9910 -0.8033  0.4323
13211SOL    HW241075   6.053   4.135   3.821 -0.8996  0.2090 -0.4182
13212SOL     OW41076   5.573   7.369   1.243 -0.0907 -0.0468  0.0278
13212SOL    HW141077   5.481   7.346   1.256 -0.0701 -0.1136  0.0543
13212SOL    HW241078   5.622   7.295   1.280 -0.0260  0.0424  0.1208
13213SOL     OW41079   7.341   6.247   6.689  0.5940  0.2523 -0.3524
13213SOL    HW141080   7.282   6.299   6.634 -0.3414 -0.0694  0.3324
13213SOL    HW241081   7.385   6.312   6.744  1.0272  0.5126 -0.9973
13214SOL     OW41082   3.650   2.533  12.336 -0.1851  0.3727 -0.4140
13214SOL    HW141083   3.743   2.549  12.326  0.3809 -2.1728  0.2587
13214SOL    HW241084   3.610   2.620  12.324  2.2035  1.4988 -0.8604
13215SOL     OW41085   6.809   1.470   9.872 -0.1997  0.3179  0.1832
13215SOL    HW141086   6.784   1.539   9.934 -0.8856  1.3990 -1.2360
13215SOL    HW241087   6.892   1.500   9.835  0.2258 -0.3383  0.5956
13216SOL     OW41088   2.685   7.377   4.419 -0.5452 -0.3812 -0.1147
13216SOL    HW141089   2.619   7.407   4.356 -0.0608 -1.1903 -1.0187
13216SOL    HW241090   2.767   7.376   4.370  0.0105 -0.1652  0.7846
13217SOL     OW41091   3.094   1.677   4.566 -0.6521  0.2425 -0.0542
13217SOL    HW141092   3.062   1.767   4.578 -1.2422  0.0389 -0.0600
13217SOL    HW241093   3.119   1.649   4.654 -2.9257 -0.4826  0.4217
13218SOL     OW41094   6.005   7.455   4.069  0.0028  0.4631  0.2589
13218SOL    HW141095   5.917   7.472   4.035 -0.0485  0.0999  0.2078
13218SOL    HW241096   6.062   7.509   4.014 -0.0997  0.0450 -0.2711
13219SOL     OW41097   7.914   4.756  11.940  0.2627  0.4145 -0.1358
13219SOL    HW141098   7.999   4.788  11.909 -0.3252 -0.1586 -2.5379
13219SOL    HW241099   7.874   4.716  11.863 -1.9291  0.0808  1.0966
13220SOL     OW41100   4.298   1.160   4.422  0.1156  0.2001  0.2463
13220SOL    HW141101   4.316   1.252   4.442 -1.5705  0.8097 -0.8554
13220SOL    HW241102   4.247   1.162   4.341 -1.8905 -1.5468  1.3562
13221SOL     OW41103   2.304   7.409   5.652 -0.7683 -0.7303  0.0133
13221SOL    HW141104   2.378   7.469   5.641 -1.4262 -0.4220 -4.7060
13221SOL    HW241105   2.345   7.322   5.653 -0.2008 -0.4697 -0.1212
13222SOL     OW41106   0.534   7.447   8.691 -0.2738 -0.5224  0.0127
13222SOL    HW141107   0.627   7.428   8.699 -0.0025  0.0266 -1.4019
13222SOL    HW241108   0.490   7.375   8.736  0.8451  0.3457  2.6476
13223SOL     OW41109   0.168   5.976   3.439  0.5674 -0.1687  0.1329
13223SOL    HW141110   0.174   5.901   3.498  1.1526 -0.4086 -0.2181
13223SOL    HW241111   0.209   6.048   3.488  1.6883 -0.5357 -0.2314
13224SOL     OW41112   3.464   4.313   1.802  0.1504 -0.1814  0.3336
13224SOL    HW141113   3.468   4.257   1.724  1.7876  0.3805 -0.0201
13224SOL    HW241114   3.396   4.273   1.856 -2.1645  0.2860 -2.0167
13225SOL     OW41115   3.124   3.218   6.051  0.0209  0.2653 -0.8078
13225SOL    HW141116   3.211   3.236   6.015  0.9301 -1.9864  0.0788
13225SOL    HW241117   3.112   3.285   6.118 -0.0709  2.1442 -2.5779
13226SOL     OW41118   0.197   6.675   3.936 -0.0081 -0.4421  0.0821
13226SOL    HW141119   0.139   6.704   3.866  1.1175  1.5688 -0.0921
13226SOL    HW241120   0.140   6.663   4.012 -1.0173 -1.1978 -0.7716
13227SOL     OW41121   2.375   1.503   0.285  0.2635 -0.3411  0.4453
13227SOL    HW141122   2.458   1.547   0.306  0.3462 -0.7847  1.0489
13227SOL    HW241123   2.362   1.439   0.355 -0.7704 -0.0396  0.5452
13228SOL     OW41124   0.904   4.132   7.681  0.2376  0.4934  0.0181
13228SOL    HW141125   0.985   4.095   7.718  0.4992  2.6646  1.7948
13228SOL    HW241126   0.877   4.068   7.615  1.4129 -2.1105  1.8904
13229SOL     OW41127   3.436   7.297   4.943  0.0177  0.1011 -0.0346
13229SOL    HW141128   3.500   7.279   4.874 -0.6481 -1.1287 -0.3612
13229SOL    HW241129   3.423   7.212   4.986 -0.6188  0.5580  0.7032
13230SOL     OW41130   7.660   0.822   1.970 -0.6804  0.1190  1.0388
13230SOL    HW141131   7.635   0.905   2.012  0.0620  0.7549  0.2701
13230SOL    HW241132   7.626   0.754   2.028 -1.4753  0.9630  1.5852
13231SOL     OW41133   6.906   1.222   9.313  0.4529 -0.0461  0.6281
13231SOL    HW141134   6.891   1.197   9.222  2.2881 -0.1505  0.3232
13231SOL    HW241135   6.853   1.301   9.325  2.0218  1.4214 -1.3095
13232SOL     OW41136   0.635   6.613   0.571  0.0026  0.1081 -0.0780
13232SOL    HW141137   0.546   6.585   0.549 -0.3161  1.2723 -0.3178
13232SOL    HW241138   0.623   6.696   0.618  0.9289 -0.0854  0.5279
13233SOL     OW41139   2.423   5.432   7.366  0.1856 -0.2132  0.2786
13233SOL    HW141140   2.482   5.501   7.338  0.5584 -0.7237 -0.2143
13233SOL    HW241141   2.477   5.372   7.416  0.1975 -0.8959 -0.5156
13234SOL     OW41142   6.297   6.471   7.773 -0.3415  0.3868 -0.0351
13234SOL    HW141143   6.392   6.464   7.771 -0.3681  0.0742 -0.4156
13234SOL    HW241144   6.279   6.553   7.818  0.0729 -0.5702  1.9577
13235SOL     OW41145   1.894   7.815   3.895  0.5531  0.0313  0.0797
13235SOL    HW141146   1.956   7.844   3.827  0.8461  1.0589  0.7535
13235SOL    HW241147   1.943   7.825   3.977  0.0057 -0.6428  0.4943
13236SOL     OW41148   1.114   1.825   1.394 -0.3874  0.0167 -0.1471
13236SOL    HW141149   1.167   1.755   1.432 -0.8915 -0.6637 -0.6702
13236SOL    HW241150   1.029   1.784   1.376 -0.5422  0.6378 -0.8967
13237SOL     OW41151   7.659   0.868  10.027  0.2767  0.1713 -0.2893
13237SOL    HW141152   7.658   0.820  10.110 -1.0868  0.7903  0.0782
13237SOL    HW241153   7.670   0.801   9.960 -1.0679 -0.6353  0.2537
13238SOL     OW41154   6.937   6.390   7.973 -0.0375 -0.0765 -0.0121
13238SOL    HW141155   6.868   6.327   7.998  0.4067 -0.1414  1.1019
13238SOL    HW241156   6.889   6.470   7.952 -0.4784 -0.1649  0.6022
13239SOL     OW41157   5.893   2.859   4.917  0.1998 -0.0268  0.1136
13239SOL    HW141158   5.950   2.782   4.916 -0.0934 -0.2954  1.5429
13239SOL    HW241159   5.858   2.861   5.006 -1.4384  0.5635 -0.5167
13240SOL     OW41160   2.256   0.218   1.452 -0.6796 -0.0209 -0.0646
13240SOL    HW141161   2.331   0.271   1.479 -0.9124  0.1423  0.2715
13240SOL    HW241162   2.182   0.257   1.498 -1.1841  0.6096 -1.3614
13241SOL     OW41163   7.456   1.931   6.397  0.1494  0.2118 -0.0915
13241SOL    HW141164   7.551   1.921   6.395  0.1480  0.0614 -1.8917
13241SOL    HW241165   7.438   1.982   6.476  1.6030 -0.7530  0.9050
13242SOL     OW41166   7.366   5.062   7.794 -0.2921  0.0357 -0.5482
13242SOL    HW141167   7.323   5.136   7.751  0.1243 -0.2750 -1.5225
13242SOL    HW241168   7.457   5.067   7.765 -0.1500 -0.5752 -0.2256
13243SOL     OW41169   6.295   0.106   1.217 -0.3893 -0.2981 -0.4097
13243SOL    HW141170   6.351   0.029   1.219  1.6768  1.0591 -1.9070
13243SOL    HW241171   6.243   0.097   1.137  1.4332  0.8213 -1.7881
13244SOL     OW41172   6.834   4.961   3.173  0.5398 -0.5095 -0.2532
13244SOL    HW141173   6.795   4.875   3.187  0.6360 -0.6488 -0.8267
13244SOL    HW241174   6.841   4.969   3.078 -0.4180  0.5497 -0.2660
13245SOL     OW41175   5.141   2.533  11.034  0.4755 -0.7569  0.5689
13245SOL    HW141176   5.067   2.565  10.983  1.6501  1.9180  0.3568
13245SOL    HW241177   5.108   2.524  11.123 -0.8995 -2.8952 -0.0838
13246SOL     OW41178   3.570   5.562   9.077 -0.5480 -0.2248  0.4126
13246SOL    HW141179   3.633   5.625   9.111 -0.4272  0.3365 -0.7984
13246SOL    HW241180   3.592   5.480   9.121  0.1118  0.2886  1.0586
13247SOL     OW41181   5.601   0.496   1.098  0.8131  0.2260  0.8820
13247SOL    HW141182   5.543   0.564   1.133  0.6159  1.0947 -1.0000
13247SOL    HW241183   5.612   0.434   1.171 -1.8886  0.3946  1.5311
13248SOL     OW41184   1.834   1.993   4.332  0.2337  0.2466  0.2793
13248SOL    HW141185   1.758   1.934   4.333  1.4486 -1.4015  1.6506
13248SOL    HW241186   1.806   2.066   4.277 -1.5143 -1.3768 -1.1714
13249SOL     OW41187   4.770   7.542  10.155 -0.1997  0.2074 -0.2307
13249SOL    HW141188   4.724   7.612  10.109  0.7493  1.4209  0.5798
13249SOL    HW241189   4.701   7.484  10.187 -1.1415  1.6881  0.5056
13250SOL     OW41190   2.421   6.712   6.295  0.8131  0.5531 -0.1716
13250SOL    HW141191   2.413   6.672   6.382 -1.6828  1.0000 -0.1336
13250SOL    HW241192   2.466   6.645   6.242 -0.5061 -1.0999  0.6766
13251SOL     OW41193   3.826   2.693   0.676 -0.1499 -0.7608 -0.0473
13251SOL    HW141194   3.746   2.643   0.690 -0.8739  0.4613  0.3410
13251SOL    HW241195   3.871   2.647   0.605 -0.6712 -2.0677  0.4462
13252SOL     OW41196   5.468   6.865   5.100  0.2044 -0.2289  0.1778
13252SOL    HW141197   5.465   6.786   5.046 -1.0403  0.1626 -0.3397
13252SOL    HW241198   5.391   6.915   5.075 -0.1480  0.1996  1.9662
13253SOL     OW41199   5.483   0.230   5.502 -0.1840  0.3751  0.0158
13253SOL    HW141200   5.490   0.149   5.452 -0.3931  1.2674 -1.4979
13253SOL    HW241201   5.538   0.215   5.579  0.8974 -0.7009 -0.9245
13254SOL     OW41202   6.146   3.728  10.653 -0.1832  0.5502 -0.4122
13254SOL    HW141203   6.054   3.727  10.624 -1.2811  0.1723  2.7109
13254SOL    HW241204   6.154   3.808  10.705  0.4065 -0.7192  1.5637
13255SOL     OW41205   7.770   6.598   3.712  0.0472  0.7107 -0.2137
13255SOL    HW141206   7.768   6.627   3.803  2.5341  1.2967 -0.2956
13255SOL    HW241207   7.822   6.663   3.666 -0.6486  0.0998 -1.9543
13256SOL     OW41208   0.330   6.526   7.782  0.0736  0.0068 -0.0737
13256SOL    HW141209   0.292   6.444   7.814 -0.6983 -0.5874 -2.3013
13256SOL    HW241210   0.404   6.499   7.728 -1.1964  0.5685 -2.2282
13257SOL     OW41211   1.522   1.731   5.720  0.8448  0.4008  0.0718
13257SOL    HW141212   1.444   1.678   5.703  0.2497  1.5154 -0.8996
13257SOL    HW241213   1.595   1.678   5.687  0.2969  0.0685 -0.6389
13258SOL     OW41214   2.720   2.209  11.323 -0.3289  0.0745  0.0668
13258SOL    HW141215   2.682   2.282  11.274 -1.6555 -0.2818  0.5438
13258SOL    HW241216   2.745   2.246  11.407 -1.1114 -0.0269  0.3531
13259SOL     OW41217   5.997   2.086   0.074 -0.4663 -0.0698  0.2788
13259SOL    HW141218   6.037   2.130   0.149  1.4229 -0.0308 -0.6806
13259SOL    HW241219   5.903   2.092   0.089 -0.1836  1.8021  1.5676
13260SOL     OW41220   3.869   1.084  10.767 -0.0377  0.5624 -0.2398
13260SOL    HW141221   3.780   1.057  10.789 -0.0179  0.2104 -0.5888
13260SOL    HW241222   3.873   1.176  10.793 -0.8137  0.8655 -1.1640
13261SOL     OW41223   2.912   2.694   5.363 -0.2837 -0.2161  0.4814
13261SOL    HW141224   2.826   2.697   5.405  1.2091 -0.1576  3.8404
13261SOL    HW241225   2.947   2.608   5.385  0.5431 -0.2487 -0.8381
13262SOL     OW41226   6.493   3.845   2.793 -0.0963  0.7011  0.3690
13262SOL    HW141227   6.447   3.928   2.811  0.2122  1.0832 -0.5435
13262SOL    HW241228   6.569   3.871   2.741 -0.0323 -0.1712  0.0199
13263SOL     OW41229   4.431   2.307   2.331 -0.6627  0.1897  0.1783
13263SOL    HW141230   4.405   2.221   2.299 -0.1317  1.4227 -4.2341
13263SOL    HW241231   4.350   2.346   2.363 -0.8514 -1.9438  2.5771
13264SOL     OW41232   6.438   7.050   2.934  0.3804  0.3774 -0.1424
13264SOL    HW141233   6.444   7.024   2.842  0.7874  1.6806 -0.5151
13264SOL    HW241234   6.373   6.990   2.972  1.2982 -1.1482 -0.8934
13265SOL     OW41235   3.957   7.948   6.843  0.5035  0.0477 -0.4048
13265SOL    HW141236   3.964   7.942   6.748 -1.0166 -1.6174 -0.4570
13265SOL    HW241237   3.883   7.892   6.865 -0.0721  1.5204  1.6449
13266SOL     OW41238   4.391   2.891  11.015  0.3937 -0.8178 -0.3265
13266SOL    HW141239   4.441   2.830  10.960  0.6704 -1.8113  0.9890
13266SOL    HW241240   4.323   2.925  10.957 -0.0084 -2.6614 -0.9994
13267SOL     OW41241   3.361   3.065   2.120 -0.1704 -0.3408 -0.1059
13267SOL    HW141242   3.369   3.078   2.025  1.0770 -1.7402 -0.2380
13267SOL    HW241243   3.433   3.006   2.141  0.0314  0.5450  1.8574
13268SOL     OW41244   0.425   4.475   5.500  0.3088 -0.1268 -0.8828
13268SOL    HW141245   0.402   4.549   5.556  1.3740  1.2612 -2.2009
13268SOL    HW241246   0.365   4.405   5.526 -1.4781  1.5369 -0.3579
13269SOL     OW41247   2.476   4.895  10.842 -0.4276  0.0760  0.1031
13269SOL    HW141248   2.535   4.820  10.849  0.0141  0.5337  1.6621
13269SOL    HW241249   2.466   4.908  10.748 -0.9747 -2.2715 -0.2364
13270SOL     OW41250   4.519   6.143   9.372  0.1944 -0.1672 -0.4734
13270SOL    HW141251   4.430   6.116   9.350 -0.3971 -0.1898  1.7073
13270SOL    HW241252   4.514   6.171   9.464  2.4998 -0.5296 -0.1647
13271SOL     OW41253   4.557   3.913   0.544  0.4503 -0.1310 -1.3306
13271SOL    HW141254   4.559   3.982   0.478 -2.0977  0.7159 -0.6564
13271SOL    HW241255   4.507   3.952   0.617 -0.9460 -2.6030 -0.8611
13272SOL     OW41256   6.522   0.989   8.797  0.0078 -0.0893 -0.0298
13272SOL    HW141257   6.493   0.908   8.756 -1.1397 -0.3501  1.2077
13272SOL    HW241258   6.460   1.055   8.767  0.8665  0.3197 -0.9389
13273SOL     OW41259   1.462   0.956   6.007 -0.4180 -0.5791  0.1556
13273SOL    HW141260   1.536   0.928   6.060  0.3084  1.1258  0.1143
13273SOL    HW241261   1.480   0.922   5.919  0.9554  0.8079 -0.1346
13274SOL     OW41262   7.417   6.803   2.382  0.1169  0.3227 -0.0869
13274SOL    HW141263   7.405   6.804   2.477  2.8726  1.4150  0.3268
13274SOL    HW241264   7.489   6.742   2.367 -0.6381 -0.2716 -1.5821
13275SOL     OW41265   3.813   2.943  10.826 -0.2009 -0.1152 -0.0361
13275SOL    HW141266   3.747   3.005  10.858 -1.4223 -0.5450 -1.5958
13275SOL    HW241267   3.893   2.996  10.816 -0.5915  0.6631  0.8267
13276SOL     OW41268   5.735   2.525   7.928  0.2774  0.1252  0.3095
13276SOL    HW141269   5.717   2.450   7.984 -0.6393  0.7906  0.9293
13276SOL    HW241270   5.676   2.513   7.853 -2.0869  1.7039  1.7940
13277SOL     OW41271   7.625   6.634   0.479 -0.5103  0.4373 -0.3639
13277SOL    HW141272   7.649   6.644   0.387 -0.4089 -2.1951 -0.7012
13277SOL    HW241273   7.538   6.595   0.477  0.0865 -1.0198  0.5887
13278SOL     OW41274   0.059   3.688   8.434  0.4651  0.3719 -0.0644
13278SOL    HW141275   0.128   3.748   8.405 -1.1165  2.7888  0.8160
13278SOL    HW241276   0.073   3.681   8.529 -1.0651  1.7995  0.3147
13279SOL     OW41277   1.117   5.611   5.415  0.1709  0.2167  0.0376
13279SOL    HW141278   1.062   5.553   5.362 -0.1012 -1.4166  2.0044
13279SOL    HW241279   1.086   5.699   5.393 -2.4972 -0.5721  0.1978
13280SOL     OW41280   2.251   2.997  10.617  0.5978 -0.2529 -0.1887
13280SOL    HW141281   2.158   2.986  10.596  0.4405 -0.0594  0.3961
13280SOL    HW241282   2.270   2.927  10.679  0.7947 -0.1775 -0.1654
13281SOL     OW41283   7.825   5.389   1.407  0.1220  0.4832  0.0599
13281SOL    HW141284   7.732   5.397   1.386  0.3243  1.1513 -0.6375
13281SOL    HW241285   7.860   5.329   1.340 -0.2184 -1.6444  1.6809
13282SOL     OW41286   0.465   0.484   0.520  0.6345  0.6977 -0.0279
13282SOL    HW141287   0.390   0.431   0.491  0.3565  0.7421  0.6051
13282SOL    HW241288   0.452   0.495   0.614  1.0293  1.3618 -0.0468
13283SOL     OW41289   0.448   1.753   0.811  0.1462 -0.3497 -0.1995
13283SOL    HW141290   0.442   1.658   0.806 -0.9479 -0.3376  0.5581
13283SOL    HW241291   0.467   1.771   0.903  0.1923  0.1725 -0.3085
13284SOL     OW41292   1.827   5.509   2.448  0.2516 -0.2364 -0.3193
13284SOL    HW141293   1.870   5.442   2.395 -0.7271 -1.8497  0.8216
13284SOL    HW241294   1.738   5.475   2.461 -0.0808  0.9916  0.8104
13285SOL     OW41295   3.619   2.010   5.011 -0.2488 -0.6009  0.1464
13285SOL    HW141296   3.705   1.975   4.992  0.3541  1.1711 -0.6089
13285SOL    HW241297   3.636   2.092   5.057 -1.3459  1.4394 -2.7942
13286SOL     OW41298   3.874   1.150   0.134  0.3561  0.2725 -0.3749
13286SOL    HW141299   3.839   1.064   0.114  1.6955 -0.4691  0.3204
13286SOL    HW241300   3.894   1.189   0.049  1.5545 -0.9067 -0.6534
13287SOL     OW41301   4.407   2.141   7.176 -0.0778 -0.4037 -0.4124
13287SOL    HW141302   4.408   2.052   7.139  1.7648 -0.4121 -0.3966
13287SOL    HW241303   4.442   2.196   7.106  1.3866 -0.1012  0.5261
13288SOL     OW41304   0.950   4.668   2.025  0.1324 -1.0342  0.6000
13288SOL    HW141305   0.905   4.750   2.047 -0.8780 -0.9686 -1.4634
13288SOL    HW241306   1.004   4.650   2.102 -0.0846  1.2279  1.3876
13289SOL     OW41307   7.523   1.269   4.338 -0.1162 -0.0056 -0.0622
13289SOL    HW141308   7.530   1.175   4.356 -1.6232 -0.0949  0.1835
13289SOL    HW241309   7.473   1.304   4.411  0.5109  1.0189 -0.1075
13290SOL     OW41310   6.274   4.288   8.309 -0.2098  0.1718  0.1501
13290SOL    HW141311   6.296   4.336   8.388 -1.2763 -0.5810  0.9300
13290SOL    HW241312   6.286   4.351   8.238  3.0899  0.1975  0.6025
13291SOL     OW41313   2.632   1.480   3.009 -0.2873  0.1482 -0.0310
13291SOL    HW141314   2.680   1.536   3.070  0.0832  0.0084 -0.1901
13291SOL    HW241315   2.598   1.540   2.943 -1.1332  0.3718  0.5787
13292SOL     OW41316   7.225   4.377   0.619 -0.2891 -0.0761 -0.3255
13292SOL    HW141317   7.176   4.321   0.558  0.2424 -1.2368  0.2840
13292SOL    HW241318   7.185   4.360   0.704  0.2296  0.0700 -0.0493
13293SOL     OW41319   0.428   3.160   8.131  0.9033 -0.1781 -0.0077
13293SOL    HW141320   0.375   3.114   8.196 -0.3611  0.3491 -0.6329
13293SOL    HW241321   0.454   3.091   8.069 -1.2305 -0.0588 -1.1052
13294SOL     OW41322   2.123   7.796   1.110  0.0818  0.3763  0.0937
13294SOL    HW141323   2.117   7.890   1.088  1.7303  0.2174 -1.2353
13294SOL    HW241324   2.032   7.769   1.121 -0.8556  1.2370 -3.7302
13295SOL     OW41325   5.540   3.116   3.102  0.4958  0.5677 -0.5158
13295SOL    HW141326   5.533   3.027   3.069 -2.3947  0.4198  0.1671
13295SOL    HW241327   5.587   3.108   3.185 -1.1697 -0.6529  0.3766
13296SOL     OW41328   7.392   6.866   7.698 -0.5366  0.0396 -0.2424
13296SOL    HW141329   7.406   6.939   7.758  1.2513 -0.0056 -0.5217
13296SOL    HW241330   7.354   6.797   7.751  1.1815 -0.0673  0.9441
13297SOL     OW41331   5.201   7.028   2.977 -0.0474 -0.1441  0.3935
13297SOL    HW141332   5.204   7.094   2.908 -0.5854 -1.2251 -0.6937
13297SOL    HW241333   5.108   7.021   2.999 -0.1092 -1.1807 -0.1509
13298SOL     OW41334   0.619   0.171   6.980  0.2110 -0.6486  0.2154
13298SOL    HW141335   0.633   0.080   7.007 -0.3082 -1.0016 -0.6784
13298SOL    HW241336   0.689   0.188   6.917  1.8899  0.4172  2.2223
13299SOL     OW41337   3.478   7.291   7.956  0.2531  0.2442  0.0569
13299SOL    HW141338   3.489   7.204   7.995  0.5267  0.0476 -0.4482
13299SOL    HW241339   3.425   7.276   7.878  0.2576  0.5372 -0.0032
13300SOL     OW41340   6.012   7.463   6.059 -0.0978  0.5904 -0.2263
13300SOL    HW141341   5.934   7.413   6.083  0.8156  0.8619  4.0367
13300SOL    HW241342   5.978   7.547   6.027 -1.5746  0.3675  0.6768
13301SOL     OW41343   6.872   1.408   0.281 -0.0878  0.4802 -0.5727
13301SOL    HW141344   6.788   1.364   0.266 -0.2907  1.0218 -1.1113
13301SOL    HW241345   6.853   1.472   0.350  0.1637 -0.1478  0.0873
13302SOL     OW41346   6.300   1.463   4.451  0.1418 -0.0242  0.4784
13302SOL    HW141347   6.269   1.521   4.381  2.3557 -0.3612 -0.9035
13302SOL    HW241348   6.228   1.401   4.464  0.1359 -0.9095 -2.6884
13303SOL     OW41349   2.206   6.462   2.746 -0.1432  0.2930  0.1247
13303SOL    HW141350   2.190   6.371   2.771  0.7748  0.2017  0.4372
13303SOL    HW241351   2.122   6.494   2.713  0.1242 -1.4887 -2.5833
13304SOL     OW41352   3.177   5.035   8.607  0.4668  0.0136 -0.3151
13304SOL    HW141353   3.143   4.976   8.540  2.2555 -0.2668 -1.0257
13304SOL    HW241354   3.181   4.981   8.686  1.6118 -0.7111 -0.8368
13305SOL     OW41355   3.102   5.397   2.305 -0.2556 -0.1208  0.0582
13305SOL    HW141356   3.183   5.347   2.292 -0.5781 -0.7851  0.5423
13305SOL    HW241357   3.118   5.448   2.385  0.5587  1.5830 -1.1169
13306SOL     OW41358   4.465   2.234   1.431 -0.2141 -0.0011  0.0967
13306SOL    HW141359   4.416   2.298   1.482 -1.2740 -0.5104 -0.2428
13306SOL    HW241360   4.448   2.259   1.340  0.3065 -0.0877 -0.0260
13307SOL     OW41361   4.379   6.594  11.270 -0.3036 -0.1518  0.1377
13307SOL    HW141362   4.451   6.616  11.329 -0.6854 -0.5047  0.7512
13307SOL    HW241363   4.414   6.525  11.214  0.5538  1.2408 -1.0784
13308SOL     OW41364   4.111   5.484   0.584  0.2609  1.2108 -0.1076
13308SOL    HW141365   4.111   5.449   0.673 -0.9326 -1.2648 -0.9828
13308SOL    HW241366   4.198   5.461   0.549  0.2235  0.9158 -0.0131
13309SOL     OW41367   5.864   0.068   7.838 -0.1178 -0.2172 -0.9984
13309SOL    HW141368   5.940   0.011   7.844  0.3899  0.2878 -2.3932
13309SOL    HW241369   5.791   0.013   7.868  0.5252 -1.2393 -1.2703
13310SOL     OW41370   1.018   3.277   1.486  1.0526 -0.2271  0.7193
13310SOL    HW141371   1.040   3.213   1.419  1.7179  1.5497 -0.8760
13310SOL    HW241372   0.964   3.342   1.440  1.8316  1.2456  1.7727
13311SOL     OW41373   6.712   7.733   1.307 -0.3264  0.1979 -0.7958
13311SOL    HW141374   6.807   7.723   1.312 -0.3790 -0.1637 -0.5344
13311SOL    HW241375   6.677   7.646   1.325 -0.7006  0.2712 -1.1437
13312SOL     OW41376   1.348   3.866   7.833 -0.1329 -0.5429 -0.2407
13312SOL    HW141377   1.296   3.834   7.759 -2.2955 -0.8639  1.3434
13312SOL    HW241378   1.410   3.796   7.850 -1.9323 -2.0691  0.4094
13313SOL     OW41379   3.194   5.404  10.910 -0.0084  0.1790  0.3002
13313SOL    HW141380   3.205   5.341  10.839 -1.0073 -0.5576  0.7677
13313SOL    HW241381   3.260   5.379  10.974 -0.6054 -0.6391  0.6263
13314SOL     OW41382   2.920   2.463  10.441  0.0222 -0.4898  0.3094
13314SOL    HW141383   3.004   2.472  10.486  0.4961 -0.2190 -0.5880
13314SOL    HW241384   2.886   2.552  10.434  0.4786 -0.3855 -0.8047
13315SOL     OW41385   6.601   3.045   4.076 -0.2705  0.5921 -0.1468
13315SOL    HW141386   6.637   2.962   4.108 -0.6054  1.0256  1.4342
13315SOL    HW241387   6.674   3.087   4.031  0.7070  0.5873  1.3377
13316SOL     OW41388   1.837   7.341   6.537  0.2465 -0.0099 -0.2815
13316SOL    HW141389   1.902   7.411   6.546  2.4161 -1.7489 -1.3841
13316SOL    HW241390   1.809   7.346   6.446  1.3258 -1.2443 -0.7181
13317SOL     OW41391   1.378   0.690  12.363 -0.2085 -0.5932  0.4660
13317SOL    HW141392   1.452   0.750  12.354  0.4384 -1.4648 -0.1895
13317SOL    HW241393   1.307   0.745  12.397  0.2055  0.6533 -0.6100
13318SOL     OW41394   1.575   1.196   2.250  0.0137  0.0700 -0.2804
13318SOL    HW141395   1.667   1.225   2.252  0.0986 -0.1419 -0.7967
13318SOL    HW241396   1.525   1.274   2.275  0.3475  0.1235  0.2219
13319SOL     OW41397   4.281   0.712   4.970 -0.1135  0.0854  0.4825
13319SOL    HW141398   4.333   0.768   4.912 -0.8445 -0.3875 -0.6828
13319SOL    HW241399   4.277   0.760   5.052  0.3380  1.1461 -0.0845
13320SOL     OW41400   0.847   1.589   2.543  0.3547 -0.4904 -0.0233
13320SOL    HW141401   0.867   1.528   2.614  1.2680 -0.8964 -0.6156
13320SOL    HW241402   0.813   1.535   2.472 -1.0912 -0.0214  0.2716
13321SOL     OW41403   6.181   7.729  10.297  0.2744  0.5328  0.2044
13321SOL    HW141404   6.232   7.787  10.353  0.1159  0.6058  0.2745
13321SOL    HW241405   6.160   7.782  10.220 -1.3716  1.1630  1.0415
13322SOL     OW41406   5.278   3.449  10.068  0.5001  0.0252  0.0672
13322SOL    HW141407   5.264   3.461  10.162  4.1014 -1.3180  0.9270
13322SOL    HW241408   5.308   3.534  10.037  3.1222 -0.4363  1.0848
13323SOL     OW41409   5.348   1.310   5.350  0.2925 -0.4670  0.0750
13323SOL    HW141410   5.385   1.270   5.429  1.0311  0.8289  0.4198
13323SOL    HW241411   5.335   1.402   5.375 -1.6233 -0.5109 -0.5804
13324SOL     OW41412   7.776   7.506  11.159  0.1005  0.0288 -0.7379
13324SOL    HW141413   7.859   7.476  11.194  0.5597  2.3527  0.3549
13324SOL    HW241414   7.797   7.538  11.071  0.2267 -0.0665 -0.7420
13325SOL     OW41415   5.966   1.981   1.303 -0.4662 -0.2386 -0.4604
13325SOL    HW141416   5.921   1.906   1.342 -1.2991  0.4008 -0.1708
13325SOL    HW241417   6.003   1.947   1.221 -0.1005 -1.1774  0.0783
13326SOL     OW41418   5.607   4.738   8.996  0.4402 -0.7484  0.0156
13326SOL    HW141419   5.582   4.781   9.077 -3.5150 -1.6139 -0.5737
13326SOL    HW241420   5.544   4.769   8.931  2.3853 -1.4297 -2.3607
13327SOL     OW41421   1.207   5.751   4.248 -0.1760  0.3287 -0.1509
13327SOL    HW141422   1.194   5.714   4.161 -0.5279  0.4701 -0.1617
13327SOL    HW241423   1.291   5.796   4.244  0.0817 -0.1551 -0.2463
13328SOL     OW41424   6.772   0.630  10.572 -0.2361 -0.0391 -0.0246
13328SOL    HW141425   6.721   0.707  10.595 -1.1987 -0.6984  0.1052
13328SOL    HW241426   6.709   0.558  10.572  0.7719 -0.9612  0.5870
13329SOL     OW41427   5.306   7.650   5.289  0.1120 -0.4537  0.0800
13329SOL    HW141428   5.349   7.593   5.353  0.6502 -0.3011 -0.1399
13329SOL    HW241429   5.346   7.626   5.205 -0.5205 -0.5886 -0.1863
13330SOL     OW41430   1.873   2.183  12.151  0.0975  0.3451 -0.2385
13330SOL    HW141431   1.846   2.135  12.229 -1.3961  1.2314 -0.1911
13330SOL    HW241432   1.929   2.253  12.185  0.8130 -0.2609 -0.1395
13331SOL     OW41433   2.386   7.495   8.921 -0.4865 -0.2526 -0.1062
13331SOL    HW141434   2.334   7.553   8.865  1.2630  0.1959 -1.3616
13331SOL    HW241435   2.352   7.510   9.009 -2.3551  0.1139 -0.8343
13332SOL     OW41436   1.853   2.662   3.495 -0.4086  0.0652  0.1966
13332SOL    HW141437   1.855   2.597   3.425 -1.1644 -0.1042  0.3289
13332SOL    HW241438   1.943   2.694   3.500 -0.1492 -0.5768 -0.2333
13333SOL     OW41439   0.614   3.240   8.345 -0.6280  0.1635  0.4758
13333SOL    HW141440   0.648   3.167   8.396 -0.9363  0.9428  1.8274
13333SOL    HW241441   0.542   3.202   8.294 -0.1273 -0.6813  0.3828
13334SOL     OW41442   7.303   3.869   6.289  0.6428  0.5163 -0.3559
13334SOL    HW141443   7.286   3.776   6.272  0.1367  0.4831  0.2786
13334SOL    HW241444   7.216   3.906   6.302  0.7337  1.3637 -1.9348
13335SOL     OW41445   7.081   4.743   1.194  0.3901 -0.1707 -0.3487
13335SOL    HW141446   7.071   4.693   1.275  1.3162 -1.1216 -0.8021
13335SOL    HW241447   7.028   4.696   1.130 -0.8823  0.9587 -0.1663
13336SOL     OW41448   2.085   6.345  10.917  0.0616  0.0303 -0.2665
13336SOL    HW141449   2.083   6.250  10.923  0.6963 -0.1302 -2.0827
13336SOL    HW241450   2.016   6.366  10.854  2.3953  0.4096 -2.8985
13337SOL     OW41451   6.615   4.727   2.095  0.6825  0.6928 -0.2521
13337SOL    HW141452   6.543   4.689   2.146  0.4110  1.7847  0.2077
13337SOL    HW241453   6.574   4.797   2.044  1.2377  0.6439 -0.7725
13338SOL     OW41454   1.508   6.961   5.224  0.0434 -0.0676 -0.1552
13338SOL    HW141455   1.560   7.011   5.287  0.9191 -0.4009 -0.5932
13338SOL    HW241456   1.425   6.946   5.269 -0.5384  2.3530 -0.2580
13339SOL     OW41457   7.875   5.449  10.389 -0.1260 -0.1173 -0.1328
13339SOL    HW141458   7.895   5.541  10.369  1.6344 -0.2837  0.6399
13339SOL    HW241459   7.881   5.405  10.305 -1.5142  0.5315 -0.6027
13340SOL     OW41460   2.574   3.194   9.574 -0.1275 -0.0553 -0.5773
13340SOL    HW141461   2.633   3.166   9.644  0.5281 -2.1764 -1.8933
13340SOL    HW241462   2.494   3.221   9.621  1.8549  3.1816  1.2556
13341SOL     OW41463   5.658   3.453   4.407  0.0852 -0.1306 -0.2133
13341SOL    HW141464   5.668   3.530   4.463  0.0390 -0.7451  0.6548
13341SOL    HW241465   5.574   3.466   4.364 -0.1913  0.0351  0.3645
13342SOL     OW41466   1.492   5.417  11.739 -0.2095  0.4425 -0.0660
13342SOL    HW141467   1.481   5.327  11.709 -0.7503 -0.0500  1.4709
13342SOL    HW241468   1.403   5.453  11.740 -0.1068  0.6957  0.1569
13343SOL     OW41469   4.625   4.170   4.016  0.4882  0.2379 -0.6223
13343SOL    HW141470   4.654   4.106   4.081  0.2014 -0.0719 -0.7900
13343SOL    HW241471   4.585   4.117   3.947 -0.5567  0.6520 -0.3500
13344SOL     OW41472   1.394   7.134   3.995  0.3588 -0.0966 -0.4434
13344SOL    HW141473   1.318   7.176   4.035  1.1780  0.7979  0.2116
13344SOL    HW241474   1.397   7.047   4.035 -0.1226 -0.0270 -0.2430
13345SOL     OW41475   3.572   1.557   5.946  0.1107  0.2983 -0.0665
13345SOL    HW141476   3.659   1.571   5.983  0.3680  0.3531 -0.6762
13345SOL    HW241477   3.512   1.567   6.020  0.7627 -1.9105  0.8401
13346SOL     OW41478   4.977   1.504   0.682  0.2438  0.3212 -0.3885
13346SOL    HW141479   5.045   1.554   0.637  0.9851 -0.6701 -0.4227
13346SOL    HW241480   5.021   1.423   0.708 -0.7463 -0.0361  0.2293
13347SOL     OW41481   0.775   6.048   5.652  0.0176  0.6730  0.5858
13347SOL    HW141482   0.815   6.112   5.711  0.3894  2.6757 -1.6910
13347SOL    HW241483   0.848   6.012   5.602 -0.4662  0.3370  0.1054
13348SOL     OW41484   6.702   6.303   2.454  0.4219 -0.1889  0.2774
13348SOL    HW141485   6.671   6.222   2.493  1.3976 -0.8426 -0.2843
13348SOL    HW241486   6.789   6.317   2.490  0.9129 -0.2516 -0.8368
13349SOL     OW41487   5.373   6.513  11.181  0.0842 -0.8392 -0.3364
13349SOL    HW141488   5.376   6.423  11.212 -0.0680 -0.6425  0.2693
13349SOL    HW241489   5.358   6.565  11.260  0.7527 -0.2322 -0.5963
13350SOL     OW41490   6.770   6.215   4.943  0.1603 -0.1981  0.0845
13350SOL    HW141491   6.732   6.281   5.001 -2.1163 -1.8234  0.6234
13350SOL    HW241492   6.787   6.140   5.000  2.7661 -0.1371 -0.4835
13351SOL     OW41493   4.228   5.688   8.736  0.5222  0.1246  0.3516
13351SOL    HW141494   4.206   5.595   8.741 -0.7913  0.0439 -3.4017
13351SOL    HW241495   4.146   5.733   8.753  1.0644  0.6245  1.7541
13352SOL     OW41496   2.194   3.186   9.644 -0.4338  0.1705 -0.2534
13352SOL    HW141497   2.260   3.174   9.711  2.1858 -1.9791 -2.9351
13352SOL    HW241498   2.138   3.109   9.651 -0.9333  0.5703  0.2189
13353SOL     OW41499   1.367   2.005   8.227 -0.1416 -0.6427 -0.7594
13353SOL    HW141500   1.360   2.060   8.148 -0.0293  0.2999 -0.1297
13353SOL    HW241501   1.276   1.988   8.252 -0.1967  0.0695 -0.4245
13354SOL     OW41502   7.606   0.639   5.661 -0.0513 -0.6010  0.0685
13354SOL    HW141503   7.525   0.607   5.622  0.6210 -0.5579 -1.4813
13354SOL    HW241504   7.668   0.567   5.648  0.1155 -0.7201  1.4294
13355SOL     OW41505   5.454   3.577   8.801 -0.2227 -0.2964 -0.3975
13355SOL    HW141506   5.388   3.508   8.798  0.9208 -1.4339 -0.4266
13355SOL    HW241507   5.408   3.653   8.836 -1.1748 -1.4862  1.0481
13356SOL     OW41508   6.472   2.997   8.292  0.2461 -0.4073  0.0359
13356SOL    HW141509   6.432   3.072   8.337  0.1950 -0.7652  0.5950
13356SOL    HW241510   6.454   2.922   8.349  0.7744 -0.7550 -0.2453
13357SOL     OW41511   1.192   1.915   7.787 -0.8050 -0.0816 -0.7782
13357SOL    HW141512   1.154   1.839   7.743 -1.4855  0.7577 -1.7005
13357SOL    HW241513   1.210   1.886   7.876 -2.2023 -0.9646 -0.7621
13358SOL     OW41514   6.093   1.668  10.972  0.0170 -0.0565  0.5321
13358SOL    HW141515   6.094   1.576  10.946 -1.1150  0.0315  0.1001
13358SOL    HW241516   6.181   1.699  10.954  0.8406 -1.4070  2.0198
13359SOL     OW41517   6.606   5.974   6.675 -0.3710 -0.0104  0.4861
13359SOL    HW141518   6.574   5.958   6.586 -0.0827 -0.8701  0.5235
13359SOL    HW241519   6.686   6.025   6.663 -0.0829 -0.5140  0.2160
13360SOL     OW41520   2.507   2.876  11.549 -0.1675  0.6057 -0.0323
13360SOL    HW141521   2.421   2.880  11.508 -0.0961 -0.3233 -0.3046
13360SOL    HW241522   2.546   2.962  11.533  0.3111 -0.0424 -2.9274
13361SOL     OW41523   4.016   6.286   3.161  0.1285 -0.0432  0.1471
13361SOL    HW141524   3.950   6.354   3.174  0.9687  0.5497  1.5731
13361SOL    HW241525   3.966   6.205   3.157 -0.6765  0.3326  1.7265
13362SOL     OW41526   6.225   0.623  11.887 -0.1512  0.6850 -0.1519
13362SOL    HW141527   6.147   0.677  11.900 -0.6961  0.1595 -1.0635
13362SOL    HW241528   6.190   0.534  11.876  0.7248  0.1427  1.2728
13363SOL     OW41529   1.000   3.537   5.351  0.2442  0.0150 -0.3349
13363SOL    HW141530   1.003   3.631   5.368  2.0404 -0.3408  1.7602
13363SOL    HW241531   1.077   3.519   5.298  0.1344 -0.3387 -0.3793
13364SOL     OW41532   2.399   6.922   8.711  0.4774  0.3683  0.0835
13364SOL    HW141533   2.337   6.859   8.674 -0.1816  0.9032  0.2483
13364SOL    HW241534   2.425   6.884   8.795  1.5068 -0.5558 -0.6363
13365SOL     OW41535   7.083   6.774   0.350 -0.0055  0.3824 -0.3431
13365SOL    HW141536   7.035   6.828   0.287 -1.1249  1.3060  1.2419
13365SOL    HW241537   7.170   6.814   0.355 -0.4869  1.4060  0.0121
13366SOL     OW41538   6.669   2.055  12.071  0.1648 -0.0213  0.2706
13366SOL    HW141539   6.574   2.067  12.066  0.2416  0.2365 -0.9586
13366SOL    HW241540   6.681   1.981  12.130 -0.7571  0.4277  1.0408
13367SOL     OW41541   3.807   3.946  10.944 -0.3133  0.3429 -0.0299
13367SOL    HW141542   3.719   3.950  10.907 -0.3315 -2.6355 -0.5698
13367SOL    HW241543   3.857   4.009  10.893 -1.5880  0.2799 -1.4221
13368SOL     OW41544   1.866   0.842   8.314  0.8200  0.1155 -0.6576
13368SOL    HW141545   1.961   0.838   8.318  0.8738 -0.3069 -1.8746
13368SOL    HW241546   1.846   0.930   8.283  0.8727 -0.1470 -1.4589
13369SOL     OW41547   2.486   5.557   3.127  0.1954  0.5549 -0.3954
13369SOL    HW141548   2.482   5.490   3.059  1.7067  1.5998 -1.5696
13369SOL    HW241549   2.523   5.512   3.203  1.7619  0.1643 -1.3558
13370SOL     OW41550   3.112   1.543   3.897  0.7427 -0.0296 -0.0393
13370SOL    HW141551   3.023   1.507   3.891  0.0154  1.8363 -3.0974
13370SOL    HW241552   3.165   1.470   3.926 -1.5022 -1.8427 -0.1679
13371SOL     OW41553   6.835   3.783  10.283  0.2803  0.1515  0.0637
13371SOL    HW141554   6.773   3.748  10.219 -0.7668 -1.6890  1.9643
13371SOL    HW241555   6.806   3.747  10.367  1.3068  2.8396  1.7038
13372SOL     OW41556   7.174   3.067   7.721 -0.1074  0.5123  0.1611
13372SOL    HW141557   7.127   3.014   7.786 -1.2588  0.8570 -0.3768
13372SOL    HW241558   7.105   3.108   7.669  0.8020  0.5941 -1.0007
13373SOL     OW41559   1.817   3.842   6.982  0.4114  0.6777 -0.1077
13373SOL    HW141560   1.858   3.771   6.934 -1.7441 -0.3961 -0.4986
13373SOL    HW241561   1.763   3.799   7.048  0.0224  1.9931  0.4775
13374SOL     OW41562   0.504   1.441   2.313 -0.6642  0.0101 -0.4390
13374SOL    HW141563   0.473   1.531   2.304  0.3178  0.3188 -0.8861
13374SOL    HW241564   0.596   1.445   2.288  0.3159 -0.5101  2.6746
13375SOL     OW41565   1.144   4.161   3.114 -0.0552 -0.0762  0.5254
13375SOL    HW141566   1.092   4.232   3.152 -0.6921 -1.2014  1.8648
13375SOL    HW241567   1.206   4.205   3.056 -2.9179  1.2840 -1.7459
13376SOL     OW41568   0.785   1.853   0.814 -0.4357 -0.4114  0.0780
13376SOL    HW141569   0.703   1.836   0.767 -1.1221  0.0770  1.0627
13376SOL    HW241570   0.758   1.877   0.903  0.7892 -0.4482  0.4875
13377SOL     OW41571   0.770   3.120   4.724  0.9667 -0.1290 -0.1279
13377SOL    HW141572   0.707   3.156   4.661  1.3419 -0.1394 -0.5092
13377SOL    HW241573   0.743   3.158   4.808 -1.3854 -2.3979  0.2847
13378SOL     OW41574   7.146   4.830  12.391 -0.3334  0.0016  0.3535
13378SOL    HW141575   7.068   4.779  12.367 -1.6367  1.8091  0.4939
13378SOL    HW241576   7.178   4.865  12.307  1.6387 -2.3764  0.0103
13379SOL     OW41577   2.057   7.096   0.837 -0.3519  0.4610  0.4596
13379SOL    HW141578   2.059   7.163   0.768  0.2564  0.4594  0.4664
13379SOL    HW241579   1.979   7.045   0.818 -1.0326  1.3962  0.6736
13380SOL     OW41580   2.592   3.559   5.920  0.1174 -0.7611 -0.2104
13380SOL    HW141581   2.509   3.569   5.968  0.1809  2.2619 -0.5403
13380SOL    HW241582   2.659   3.568   5.987  0.2211 -1.5228 -0.1979
13381SOL     OW41583   6.327   5.116   4.868  0.1884  0.0694  0.7832
13381SOL    HW141584   6.382   5.169   4.925  1.4957 -0.8283  0.4135
13381SOL    HW241585   6.254   5.087   4.924  0.4997  0.6502  1.4965
13382SOL     OW41586   6.099   3.522  10.966  0.0746  0.4802 -0.2424
13382SOL    HW141587   6.010   3.544  10.991 -0.0855 -0.7492  0.3362
13382SOL    HW241588   6.131   3.599  10.920 -1.5202  0.6737 -1.0843
13383SOL     OW41589   1.241   3.176   4.182 -0.3666  0.2255 -0.2782
13383SOL    HW141590   1.335   3.160   4.169 -0.0600  2.5096 -1.2734
13383SOL    HW241591   1.219   3.241   4.116 -2.5217  0.2546  0.4193
13384SOL     OW41592   2.525   6.915   2.959 -0.1349 -0.5215 -0.9845
13384SOL    HW141593   2.525   6.850   3.029 -2.6608  0.9691  0.5615
13384SOL    HW241594   2.436   6.912   2.924  0.0256  1.2577 -1.6319
13385SOL     OW41595   0.567   3.873   6.920 -0.4970 -0.5859 -0.2011
13385SOL    HW141596   0.534   3.785   6.898 -0.6971 -0.5174 -0.1769
13385SOL    HW241597   0.658   3.872   6.891 -0.7730 -0.4788 -1.1000
13386SOL     OW41598   2.873   7.490   0.310 -0.4138  0.1183 -0.0596
13386SOL    HW141599   2.932   7.455   0.377  0.6133  0.1685 -0.9050
13386SOL    HW241600   2.824   7.559   0.354  0.9911  0.8674  0.3839
13387SOL     OW41601   1.172   3.827  12.204 -0.7565 -0.2107 -0.1737
13387SOL    HW141602   1.125   3.830  12.287  0.3560  2.1404  0.4565
13387SOL    HW241603   1.263   3.813  12.228 -0.5879 -0.7917 -1.1016
13388SOL     OW41604   2.677   5.888   7.123  0.2027  0.4459 -0.6378
13388SOL    HW141605   2.694   5.974   7.084  0.0905  0.7731  0.0339
13388SOL    HW241606   2.709   5.826   7.058  0.3246  0.9955 -1.1091
13389SOL     OW41607   4.871   6.413   0.470 -0.0892 -0.4671 -0.2043
13389SOL    HW141608   4.942   6.349   0.462  1.6673  1.1113  1.6582
13389SOL    HW241609   4.792   6.363   0.451  1.2122 -3.1735  0.9319
13390SOL     OW41610   7.523   4.371   4.350 -0.0268 -0.6306  0.1107
13390SOL    HW141611   7.444   4.351   4.298  0.6512  0.7056 -1.5463
13390SOL    HW241612   7.519   4.311   4.424 -1.6069 -1.9274 -0.9524
13391SOL     OW41613   1.478   0.987   3.489 -0.0653 -0.4848  0.1416
13391SOL    HW141614   1.516   1.013   3.404 -0.2095 -1.4503 -0.2376
13391SOL    HW241615   1.517   0.901   3.506 -1.3594 -1.0710  0.2118
13392SOL     OW41616   4.835   5.452   8.042 -0.4966  0.2375  0.8881
13392SOL    HW141617   4.836   5.359   8.064  2.0176 -0.0357 -0.0162
13392SOL    HW241618   4.789   5.456   7.958 -0.7291 -0.1634  0.9947
13393SOL     OW41619   7.813   7.219   6.148 -0.1327 -0.1989  0.2873
13393SOL    HW141620   7.765   7.296   6.118 -0.0527  0.2851  1.3770
13393SOL    HW241621   7.831   7.235   6.240 -0.5536 -1.7545  0.6712
13394SOL     OW41622   2.287   1.506  11.890  0.2166 -0.4093 -0.1990
13394SOL    HW141623   2.251   1.450  11.821  3.0660 -0.2339 -1.9893
13394SOL    HW241624   2.279   1.595  11.855  1.5845 -0.3103 -0.3000
13395SOL     OW41625   0.966   0.857   0.969 -0.1482  0.2670  0.0229
13395SOL    HW141626   1.035   0.890   0.912  1.0889  0.7619  1.6956
13395SOL    HW241627   1.005   0.860   1.057 -2.0251 -0.2405  0.9239
13396SOL     OW41628   2.935   4.523   4.135 -0.2173  0.3190 -0.0498
13396SOL    HW141629   2.958   4.581   4.208  0.6608  0.3274 -0.3226
13396SOL    HW241630   2.946   4.578   4.057  2.6438 -0.7136 -0.4959
13397SOL     OW41631   4.045   7.857  10.012  0.1272  0.1225  0.0256
13397SOL    HW141632   3.999   7.794  10.067 -0.3972 -0.4030 -0.9942
13397SOL    HW241633   4.128   7.873  10.058 -0.0068 -0.8307  0.6156
13398SOL     OW41634   0.268   5.915   3.878  0.0921  1.2467 -0.8260
13398SOL    HW141635   0.267   5.821   3.862  0.0774  1.0914  0.0275
13398SOL    HW241636   0.361   5.938   3.880  0.1403  1.0314  0.0950
13399SOL     OW41637   7.760   0.200   4.682  0.8536  0.0125  0.2303
13399SOL    HW141638   7.843   0.247   4.675 -0.0292  1.5549 -0.2758
13399SOL    HW241639   7.718   0.236   4.760 -0.2758  0.8297 -0.7167
13400SOL     OW41640   3.473   5.863   3.218 -0.0938  0.5627  0.2284
13400SOL    HW141641   3.432   5.787   3.260 -0.3040  1.8292  2.4908
13400SOL    HW241642   3.567   5.845   3.220 -0.1504  0.3224  0.6472
13401SOL     OW41643   2.617   7.529   5.223 -0.1193  0.3217  0.4750
13401SOL    HW141644   2.585   7.546   5.134 -0.7673 -0.6893  0.4979
13401SOL    HW241645   2.646   7.438   5.222 -1.5270 -0.1862  1.6667
13402SOL     OW41646   3.552   3.201  11.794  0.2484  0.2192 -0.5007
13402SOL    HW141647   3.509   3.255  11.860  1.7960  1.8774 -0.7776
13402SOL    HW241648   3.626   3.161  11.840  0.3195 -0.0219 -0.8163
13403SOL     OW41649   1.823   1.740   8.451  0.0443  0.1195 -0.0110
13403SOL    HW141650   1.853   1.667   8.396  1.1134  0.1110  0.5480
13403SOL    HW241651   1.790   1.805   8.390  3.8947  1.3925 -1.0112
13404SOL     OW41652   2.695   5.771   7.449 -0.6296 -0.0321  0.3346
13404SOL    HW141653   2.757   5.726   7.391  1.3396  0.9669  1.5393
13404SOL    HW241654   2.634   5.814   7.389 -0.6705 -1.6954 -0.8904
13405SOL     OW41655   2.137   3.263   1.454 -0.0634  0.1133 -0.1288
13405SOL    HW141656   2.147   3.167   1.458  0.5987  0.2152  0.9492
13405SOL    HW241657   2.094   3.278   1.370 -0.9977 -1.1934  0.0812
13406SOL     OW41658   3.251   5.952   8.229  0.2312  0.4029  0.3958
13406SOL    HW141659   3.208   5.906   8.301 -0.6039 -0.4866 -0.6323
13406SOL    HW241660   3.191   5.942   8.155  0.3578  2.5546 -0.0695
13407SOL     OW41661   7.356   3.207   7.011  0.1836 -0.2117  0.5800
13407SOL    HW141662   7.381   3.187   7.101 -1.1634 -0.8409  0.8372
13407SOL    HW241663   7.261   3.194   7.009 -0.4545  3.5309  0.0707
13408SOL     OW41664   1.357   6.375   5.598  0.0104  0.3849 -0.1664
13408SOL    HW141665   1.292   6.397   5.531  0.8050  0.7041 -0.8427
13408SOL    HW241666   1.431   6.340   5.549  0.3055 -0.1174  0.6099
13409SOL     OW41667   0.176   5.318   5.099  0.0001 -0.3289 -0.2528
13409SOL    HW141668   0.165   5.375   5.175 -2.1389  0.8954 -1.4016
13409SOL    HW241669   0.211   5.375   5.031  0.2662 -1.0112 -0.6956
13410SOL     OW41670   3.123   6.137   3.151  0.2379  0.0330  0.3232
13410SOL    HW141671   3.063   6.085   3.206  0.9889 -0.8758  0.3073
13410SOL    HW241672   3.175   6.186   3.214  2.1122 -2.1115  0.5820
13411SOL     OW41673   0.916   3.814   3.119  0.2733 -0.1165  0.3412
13411SOL    HW141674   0.931   3.772   3.203  0.6383  1.0202  0.8704
13411SOL    HW241675   0.826   3.847   3.124  0.3076 -0.0160  0.3065
13412SOL     OW41676   2.928   2.139   4.974  0.2235  0.3425 -0.3757
13412SOL    HW141677   2.844   2.120   4.931  1.9072 -1.6988 -3.1192
13412SOL    HW241678   2.925   2.233   4.993 -2.1917  0.5556 -1.4495
13413SOL     OW41679   5.080   2.952   4.003 -0.3073  0.6555 -0.2010
13413SOL    HW141680   5.013   2.884   4.004  0.3353  0.0055  0.5585
13413SOL    HW241681   5.090   2.978   4.094  0.4804  0.7179 -0.2919
13414SOL     OW41682   1.950   7.406   8.983  0.7660  0.6460  0.6566
13414SOL    HW141683   1.894   7.411   9.061  0.4888  0.5082  0.4703
13414SOL    HW241684   2.038   7.421   9.015  0.5535  1.4702  0.8730
13415SOL     OW41685   7.092   6.870   6.658  0.6437  0.2253  0.6834
13415SOL    HW141686   7.095   6.791   6.711  1.3348  1.3164  2.3582
13415SOL    HW241687   7.026   6.852   6.591 -0.9128 -0.9151  2.4322
13416SOL     OW41688   2.684   0.322   5.388  0.0282 -0.2250 -0.1698
13416SOL    HW141689   2.737   0.281   5.456 -1.3631 -2.4270 -0.3042
13416SOL    HW241690   2.637   0.392   5.433  1.2024  0.1745  0.4725
13417SOL     OW41691   5.947   6.949   9.618 -0.0015 -0.2405 -0.4024
13417SOL    HW141692   6.036   6.968   9.646 -0.9523  3.1643  0.8222
13417SOL    HW241693   5.902   6.918   9.697 -0.2843 -0.5401 -0.6726
13418SOL     OW41694   2.538   3.255   3.741 -0.0453 -0.2359 -0.1952
13418SOL    HW141695   2.512   3.320   3.676  1.8509  0.9484  0.1295
13418SOL    HW241696   2.527   3.171   3.698 -2.3959  0.2499 -0.7000
13419SOL     OW41697   0.884   5.314   7.364 -0.1127  0.1920  0.4813
13419SOL    HW141698   0.802   5.280   7.329  0.7573 -1.6745  0.1328
13419SOL    HW241699   0.944   5.239   7.363  1.8331  1.6603  0.0092
13420SOL     OW41700   6.241   1.979   9.543 -0.2758  0.4161 -0.2812
13420SOL    HW141701   6.208   2.029   9.617 -1.2140  2.0638 -1.7381
13420SOL    HW241702   6.172   1.987   9.476  0.7098 -0.6739 -1.4752
13421SOL     OW41703   2.948   2.917   0.008  0.0203 -0.1955 -0.1686
13421SOL    HW141704   2.927   2.995   0.059  0.0523 -0.2881 -0.0135
13421SOL    HW241705   2.864   2.872  -0.004 -0.5455  1.3215 -2.7292
13422SOL     OW41706   7.484   6.181   9.241  0.0677 -0.4243 -0.3415
13422SOL    HW141707   7.478   6.086   9.231  0.4479 -0.3807 -1.1082
13422SOL    HW241708   7.405   6.215   9.198 -0.0101 -0.3889 -0.1707
13423SOL     OW41709   4.979   2.762   9.423 -0.6015  0.1754  0.8454
13423SOL    HW141710   4.915   2.773   9.353 -1.0477 -1.4892  0.9493
13423SOL    HW241711   4.980   2.668   9.440  1.7940  0.1586  0.9473
13424SOL     OW41712   7.726   3.488  12.098  0.3202 -1.0376 -0.1147
13424SOL    HW141713   7.647   3.541  12.084  1.7580  0.8926 -1.2834
13424SOL    HW241714   7.751   3.507  12.188  0.6827  0.1534 -0.4428
13425SOL     OW41715   2.912   7.626  12.049  0.1091  0.8134  0.3221
13425SOL    HW141716   2.978   7.677  12.001  2.3509 -1.3816  0.8443
13425SOL    HW241717   2.857   7.588  11.981  0.1042  1.7252 -0.2010
13426SOL     OW41718   7.153   7.715   2.961  0.0632 -1.0029  0.5937
13426SOL    HW141719   7.059   7.725   2.976 -0.1047 -1.6747  0.0007
13426SOL    HW241720   7.192   7.724   3.048 -0.4067  0.7129  0.6807
13427SOL     OW41721   5.889   2.352   6.950 -0.1260  0.1708 -0.2317
13427SOL    HW141722   5.813   2.312   6.992 -0.8480  1.0234 -0.6935
13427SOL    HW241723   5.964   2.319   7.000 -0.7107 -1.3694 -0.2971
13428SOL     OW41724   0.100   2.144   4.119 -0.6758 -0.3403  0.1504
13428SOL    HW141725   0.043   2.113   4.189  0.3102  0.7319  1.5051
13428SOL    HW241726   0.086   2.239   4.117 -0.9398 -0.3819 -1.3753
13429SOL     OW41727   0.643   1.224   2.796 -0.0194  0.1202  0.6150
13429SOL    HW141728   0.720   1.187   2.752 -0.1678 -1.7490  1.8105
13429SOL    HW241729   0.574   1.158   2.783 -1.6947  2.0543 -1.0413
13430SOL     OW41730   6.492   3.682   7.523  0.3931 -0.5316 -0.1873
13430SOL    HW141731   6.587   3.685   7.536  0.3624  1.8049 -0.1237
13430SOL    HW241732   6.475   3.744   7.452 -1.3032  1.0813  1.5245
13431SOL     OW41733   1.241   2.790   9.584 -0.1381 -0.2711  0.1176
13431SOL    HW141734   1.300   2.794   9.509  0.2726  1.4043  0.4783
13431SOL    HW241735   1.154   2.808   9.547 -0.0911 -0.4992 -0.1039
13432SOL     OW41736   2.588   2.687  10.875 -0.1321 -0.1954 -0.3728
13432SOL    HW141737   2.637   2.764  10.846 -1.1392  0.2830 -0.8637
13432SOL    HW241738   2.640   2.651  10.947  1.4465 -0.3004 -1.5108
13433SOL     OW41739   7.441   7.858   0.899 -0.0312 -0.2683  0.7699
13433SOL    HW141740   7.486   7.913   0.963  2.8168  0.9883 -2.0555
13433SOL    HW241741   7.361   7.906   0.877 -1.0429 -0.6973  3.1476
13434SOL     OW41742   4.029   6.845   2.221 -0.1859 -0.1894  0.0937
13434SOL    HW141743   4.019   6.929   2.265 -1.4928  0.3901 -1.2139
13434SOL    HW241744   3.973   6.852   2.143  0.5545 -1.8562 -0.6382
13435SOL     OW41745   0.460   6.321   8.738  0.2487 -0.3328  0.4181
13435SOL    HW141746   0.414   6.386   8.791 -0.4704 -2.4074  2.4519
13435SOL    HW241747   0.403   6.309   8.661 -0.4290  0.2371  0.8156
13436SOL     OW41748   5.161   5.080   2.600 -0.0100  0.4468  0.0920
13436SOL    HW141749   5.196   5.015   2.661  0.1128  1.6837  1.3935
13436SOL    HW241750   5.235   5.102   2.544 -0.3209 -1.2596 -1.0733
13437SOL     OW41751   2.244   5.588   4.464 -0.2930  0.3709  0.2850
13437SOL    HW141752   2.153   5.584   4.433 -0.3779 -3.3397  0.5263
13437SOL    HW241753   2.239   5.563   4.556  0.9626 -0.4280  0.1633
13438SOL     OW41754   2.718   4.884   0.139  0.0148 -0.0768 -0.3612
13438SOL    HW141755   2.737   4.941   0.065  0.3976 -0.3927 -0.5014
13438SOL    HW241756   2.622   4.874   0.137  0.2481 -2.9337 -2.9264
13439SOL     OW41757   0.005   6.641   0.761  0.1390 -0.2547  0.0592
13439SOL    HW141758  -0.073   6.585   0.766  0.2844 -0.5819 -0.9489
13439SOL    HW241759  -0.010   6.708   0.827 -1.5109  0.3012 -0.8043
13440SOL     OW41760   1.728   7.602   1.575  0.3630 -0.2812  0.4434
13440SOL    HW141761   1.698   7.600   1.666 -1.3997 -0.1847 -0.0875
13440SOL    HW241762   1.774   7.686   1.567 -0.6361  0.3335  0.9214
13441SOL     OW41763   3.797   0.622   4.605 -0.0933  0.0044  0.0257
13441SOL    HW141764   3.756   0.702   4.572 -2.5792 -0.7923  0.9621
13441SOL    HW241765   3.782   0.557   4.537  0.1913 -0.1468  0.1055
13442SOL     OW41766   2.032   2.011   8.369  0.0957  0.1743 -0.3982
13442SOL    HW141767   2.056   1.960   8.292 -1.4365  0.6477 -1.2452
13442SOL    HW241768   1.939   2.031   8.356 -0.5037 -0.6323  2.0975
13443SOL     OW41769   5.571   5.327   3.076 -0.2780  0.2758 -0.1611
13443SOL    HW141770   5.607   5.386   3.009  0.1010 -0.0552 -0.2501
13443SOL    HW241771   5.486   5.365   3.098  0.2623  1.2613  0.3008
13444SOL     OW41772   3.700   1.205   7.034  0.5122  0.3296  0.2440
13444SOL    HW141773   3.770   1.147   7.063 -0.4290 -0.2906  1.3904
13444SOL    HW241774   3.742   1.267   6.974  1.8471 -0.5560  0.2372
13445SOL     OW41775   4.016   0.202   0.992 -0.1315  0.2569  0.3346
13445SOL    HW141776   4.059   0.127   0.950  1.5603  0.6628  1.2565
13445SOL    HW241777   4.080   0.273   0.985 -0.7972  0.9888  1.4687
13446SOL     OW41778   0.490   5.668   2.381 -0.6722  0.0931 -0.1907
13446SOL    HW141779   0.562   5.615   2.347  0.1669  1.3029 -0.3376
13446SOL    HW241780   0.497   5.751   2.335 -0.0982  1.4589  2.2227
13447SOL     OW41781   3.709   2.078   9.184 -0.1182  0.1593 -0.1355
13447SOL    HW141782   3.783   2.126   9.146  0.7854 -1.6744 -0.8139
13447SOL    HW241783   3.750   2.018   9.246 -1.0602 -0.7488 -0.3851
13448SOL     OW41784   2.532   3.779   3.501 -0.0865 -0.3925  0.5029
13448SOL    HW141785   2.569   3.749   3.584  2.3904  0.9316 -0.0470
13448SOL    HW241786   2.597   3.838   3.465 -2.1680  0.9769 -1.2728
13449SOL     OW41787   1.651   3.782   2.005 -0.3392 -0.1171  0.0819
13449SOL    HW141788   1.689   3.774   2.093 -1.8789 -3.4703  0.6172
13449SOL    HW241789   1.691   3.710   1.956 -0.3160  1.0478 -1.6761
13450SOL     OW41790   3.277   1.741   8.829  0.4054  0.4045 -0.2397
13450SOL    HW141791   3.216   1.813   8.817  1.0553  0.8360 -0.9934
13450SOL    HW241792   3.363   1.780   8.818  0.7992 -0.3258  0.1768
13451SOL     OW41793   7.808   4.960   9.357  0.1232  0.2457  0.0482
13451SOL    HW141794   7.760   5.012   9.421 -0.4429  0.5731 -0.6364
13451SOL    HW241795   7.818   5.018   9.281  2.1571  0.4120  0.3978
13452SOL     OW41796   0.162   5.801   9.271 -0.7494 -0.7810  0.0525
13452SOL    HW141797   0.098   5.810   9.200 -2.4066 -2.3083  1.2617
13452SOL    HW241798   0.120   5.843   9.346 -0.2834 -1.6856  0.8373
13453SOL     OW41799   0.324   0.149   3.186  0.5482  0.5737  0.0406
13453SOL    HW141800   0.304   0.195   3.105 -0.9005 -1.0180 -0.5785
13453SOL    HW241801   0.307   0.213   3.255  2.0342  2.0314 -0.8704
13454SOL     OW41802   5.420   2.301   8.311 -0.8321  0.5685  0.0283
13454SOL    HW141803   5.336   2.346   8.303 -0.5625  1.0646 -0.0341
13454SOL    HW241804   5.417   2.259   8.397 -1.2998  0.2583 -0.1374
13455SOL     OW41805   7.299   6.573   9.100 -0.2233 -0.3178  0.4789
13455SOL    HW141806   7.297   6.547   9.008  2.0692  0.8796  0.0172
13455SOL    HW241807   7.292   6.668   9.099  2.9866  0.0204  1.2356
13456SOL     OW41808   2.178   3.463   8.715 -0.0442 -0.1469  0.3174
13456SOL    HW141809   2.200   3.378   8.677 -1.1012 -0.9724  1.4555
13456SOL    HW241810   2.225   3.465   8.799 -1.2015 -0.2847  0.9917
13457SOL     OW41811   6.904   1.749   3.807 -0.8333 -0.0352 -0.4248
13457SOL    HW141812   6.944   1.662   3.796 -0.5611  0.2180 -1.6231
13457SOL    HW241813   6.962   1.794   3.869 -0.2331 -0.2763 -0.7980
13458SOL     OW41814   0.087   2.887  12.000  0.2450  0.3143 -0.6005
13458SOL    HW141815   0.102   2.877  12.094  2.3557  1.6572 -0.7336
13458SOL    HW241816  -0.001   2.924  11.994  0.4716  1.2134  0.9299
13459SOL     OW41817   6.787   7.711   3.892 -0.4123 -0.1895  0.2276
13459SOL    HW141818   6.727   7.635   3.896 -1.4396  0.4501 -1.7973
13459SOL    HW241819   6.742   7.779   3.942 -1.1667  0.1247 -0.8469
13460SOL     OW41820   1.769   4.255   4.319  0.1591 -0.3765 -0.0462
13460SOL    HW141821   1.681   4.290   4.314  0.2113 -0.4166 -1.5592
13460SOL    HW241822   1.777   4.223   4.409 -0.7333  1.2097  0.6383
13461SOL     OW41823   0.289   4.648   2.808  0.3401 -0.0444  0.4717
13461SOL    HW141824   0.212   4.648   2.751  0.3990 -0.3084  0.3921
13461SOL    HW241825   0.328   4.735   2.795  0.7543 -0.3583 -0.4351
13462SOL     OW41826   5.123   6.048   7.032  0.4372  0.4826  0.0307
13462SOL    HW141827   5.179   6.120   7.060 -0.8039  1.6184 -0.2925
13462SOL    HW241828   5.037   6.088   7.017 -0.1948 -0.9894 -0.5584
13463SOL     OW41829   6.793   1.681   7.275 -0.1997  0.0177  0.1145
13463SOL    HW141830   6.717   1.625   7.293 -0.8898  0.7676 -0.3648
13463SOL    HW241831   6.801   1.680   7.180 -0.9923  1.6660 -0.0103
13464SOL     OW41832   4.128   7.129  11.591 -0.0468 -0.0621 -0.0444
13464SOL    HW141833   4.087   7.197  11.538  1.0910  1.1552  0.5971
13464SOL    HW241834   4.179   7.078  11.528 -1.0880 -0.5096 -0.5606
13465SOL     OW41835   5.533   5.601   7.368  0.0787 -0.0819 -0.2764
13465SOL    HW141836   5.613   5.620   7.416 -0.7413 -1.3268  1.6958
13465SOL    HW241837   5.528   5.506   7.366 -2.7192 -0.1486  2.2518
13466SOL     OW41838   5.618   3.374   0.244 -0.5492  0.2849  0.1976
13466SOL    HW141839   5.706   3.410   0.231 -0.2576 -0.6127 -0.4383
13466SOL    HW241840   5.568   3.406   0.168  0.2856 -2.3025 -1.5937
13467SOL     OW41841   6.847   3.212   1.622 -0.4698  0.4461  0.0457
13467SOL    HW141842   6.855   3.218   1.527 -0.1731 -2.6609 -0.2318
13467SOL    HW241843   6.912   3.147   1.647 -1.6029  0.0621  2.1946
13468SOL     OW41844   7.327   0.660   7.921 -0.1303  0.3749 -0.0362
13468SOL    HW141845   7.342   0.571   7.953  0.2449 -0.3038 -1.9384
13468SOL    HW241846   7.338   0.716   7.998  4.5074 -0.7383  0.4049
13469SOL     OW41847   4.958   4.662   3.807 -0.0124  0.0361 -0.2807
13469SOL    HW141848   4.954   4.757   3.805  0.2515  0.0334 -0.8544
13469SOL    HW241849   4.995   4.642   3.893 -0.8396  0.4169  0.1841
13470SOL     OW41850   1.232   5.633   2.721 -0.0353 -0.6583 -0.1547
13470SOL    HW141851   1.261   5.564   2.782 -0.6502 -0.9808 -0.2141
13470SOL    HW241852   1.157   5.594   2.676 -1.8830  0.8616  1.4616
13471SOL     OW41853   7.529   5.373   9.543  0.3096 -0.4030  0.4120
13471SOL    HW141854   7.617   5.401   9.518 -0.3240 -0.7764 -2.6283
13471SOL    HW241855   7.478   5.453   9.546  0.9267  0.0092  3.6144
13472SOL     OW41856   5.594   0.853   0.754 -0.2332  0.1250  0.2412
13472SOL    HW141857   5.640   0.934   0.777  3.5657 -0.8171 -2.9489
13472SOL    HW241858   5.631   0.787   0.813  0.0379 -0.0441 -0.1123
13473SOL     OW41859   7.581   1.438  10.048 -0.0058  0.1913 -0.4451
13473SOL    HW141860   7.629   1.367  10.006  0.1679 -0.5041  0.8679
13473SOL    HW241861   7.541   1.398  10.125  1.1303  1.7632  1.0430
13474SOL     OW41862   2.158   6.431   9.839  0.4057 -0.4860 -0.0444
13474SOL    HW141863   2.179   6.359   9.898  0.3646 -1.0841 -0.7326
13474SOL    HW241864   2.244   6.465   9.811  0.4258 -0.3333  0.2030
13475SOL     OW41865   5.838   6.892   6.787 -0.1667 -0.0673 -0.4892
13475SOL    HW141866   5.860   6.934   6.870 -1.4920 -1.5770  0.6784
13475SOL    HW241867   5.848   6.798   6.803 -2.1687 -0.5098 -1.4564
13476SOL     OW41868   0.068   2.471   7.947  0.1741 -0.4114  0.1674
13476SOL    HW141869   0.079   2.564   7.924 -1.2779 -0.0712  0.7272
13476SOL    HW241870   0.053   2.471   8.041 -1.3579 -1.0344 -0.0378
13477SOL     OW41871   5.618   5.585   2.965  0.0259 -0.7262  0.8564
13477SOL    HW141872   5.575   5.650   3.021 -0.3207 -0.0385 -0.1663
13477SOL    HW241873   5.595   5.612   2.876  2.2911 -0.5190  0.2601
13478SOL     OW41874   7.134   1.714  12.067  0.3746  0.1877  0.1694
13478SOL    HW141875   7.144   1.802  12.030  0.0514  0.0089 -0.3607
13478SOL    HW241876   7.044   1.712  12.099  0.3084 -0.0225 -0.0254
13479SOL     OW41877   7.933   1.256   8.370 -0.2912 -0.4254  0.2688
13479SOL    HW141878   7.922   1.209   8.453 -4.3191  1.2607  0.9613
13479SOL    HW241879   7.971   1.341   8.395 -0.4759 -0.3315  0.2346
13480SOL     OW41880   1.983   4.231   1.895 -0.0882  0.3713 -0.2313
13480SOL    HW141881   1.938   4.313   1.914 -0.6207 -0.0868  0.5355
13480SOL    HW241882   1.937   4.166   1.947  0.0096 -0.5078 -1.2164
13481SOL     OW41883   6.093   5.469   2.122  0.4642  0.4053  0.1525
13481SOL    HW141884   6.171   5.427   2.088  0.2275  0.6652 -0.7369
13481SOL    HW241885   6.126   5.544   2.172  0.8548 -0.4866  1.2629
13482SOL     OW41886   3.093   3.400   8.895  0.3149  0.0000 -0.3410
13482SOL    HW141887   3.102   3.449   8.977  1.0723  0.9182 -0.9567
13482SOL    HW241888   3.146   3.321   8.908  0.4042  0.1279  0.0720
13483SOL     OW41889   6.975   7.573   3.577 -0.7412 -0.2224  0.3805
13483SOL    HW141890   6.884   7.587   3.551 -0.2282 -0.8450 -1.9815
13483SOL    HW241891   7.023   7.647   3.540 -0.1710 -0.2614  1.0098
13484SOL     OW41892   1.108   0.978   0.747 -0.1140 -0.8582 -0.4771
13484SOL    HW141893   1.159   0.902   0.721 -1.9183 -1.9708 -0.9685
13484SOL    HW241894   1.163   1.023   0.811  1.8160 -1.4755 -1.6306
13485SOL     OW41895   4.914   7.769   2.961 -0.7223 -0.1970  0.3946
13485SOL    HW141896   4.841   7.777   3.022  0.7548 -0.0204  2.2279
13485SOL    HW241897   4.931   7.859   2.932 -0.3576 -0.0427  1.0676
13486SOL     OW41898   2.841   1.173  11.818 -0.8332  0.1665  0.2007
13486SOL    HW141899   2.927   1.206  11.793 -0.7830 -2.5103 -4.3102
13486SOL    HW241900   2.782   1.247  11.805  0.4527  1.3151  0.7419
13487SOL     OW41901   4.973   3.629   3.497  0.1405 -0.5408 -0.8583
13487SOL    HW141902   4.905   3.686   3.533  1.3325  0.2767  0.1975
13487SOL    HW241903   5.049   3.686   3.487  0.6562 -1.4059 -2.1195
13488SOL     OW41904   3.540   6.797   6.104 -0.0679  0.3698 -0.1411
13488SOL    HW141905   3.568   6.718   6.057 -1.1819 -0.3583  0.3821
13488SOL    HW241906   3.562   6.778   6.196 -0.0458  0.8147 -0.0524
13489SOL     OW41907   5.743   7.005   5.968  0.0538  0.3789 -0.3155
13489SOL    HW141908   5.811   7.024   6.033  0.3046 -0.1184 -0.4281
13489SOL    HW241909   5.786   6.950   5.903  0.0565  1.5718 -1.3876
13490SOL     OW41910   0.372   3.405  11.496 -0.7184  0.4566  0.8062
13490SOL    HW141911   0.332   3.485  11.530 -1.6616  0.9046 -1.1617
13490SOL    HW241912   0.408   3.431  11.411 -2.2570 -1.4645 -0.5293
13491SOL     OW41913   3.157   2.413   0.934  0.0599 -0.5141  0.7752
13491SOL    HW141914   3.084   2.353   0.917 -0.2226  0.5188 -2.5179
13491SOL    HW241915   3.225   2.386   0.873  0.7164  1.1969  0.6822
13492SOL     OW41916   6.377   1.296   6.011  0.1906  0.5174 -0.5305
13492SOL    HW141917   6.361   1.374   5.958 -0.8217 -0.6077 -1.9631
13492SOL    HW241918   6.465   1.308   6.046  1.5799  0.6257 -3.7606
13493SOL     OW41919   7.832   0.584   9.937  0.0703 -0.3330 -0.8409
13493SOL    HW141920   7.856   0.648  10.003 -1.2613 -1.0323  0.3677
13493SOL    HW241921   7.835   0.500   9.983 -3.9954 -0.5665 -0.6414
13494SOL     OW41922   1.195   1.505  11.877 -0.9315 -0.0102 -0.2933
13494SOL    HW141923   1.279   1.550  11.880 -0.9216 -0.0626  0.3178
13494SOL    HW241924   1.131   1.575  11.866 -0.9586  0.2205  1.1367
13495SOL     OW41925   6.926   5.262   5.690 -0.0130  0.0653 -0.0709
13495SOL    HW141926   6.909   5.240   5.782  0.3052 -2.6956 -0.6049
13495SOL    HW241927   6.864   5.208   5.641 -0.3027  1.6461 -1.5172
13496SOL     OW41928   5.695   3.191   7.143  0.5827  0.4879 -0.1493
13496SOL    HW141929   5.775   3.244   7.137  0.8638  0.0064 -0.8474
13496SOL    HW241930   5.705   3.142   7.225  1.0482  0.3818 -0.2654
13497SOL     OW41931   2.391   7.967   8.848  0.1551  0.4934  0.7357
13497SOL    HW141932   2.388   8.049   8.896 -0.2688 -0.6383  2.7566
13497SOL    HW241933   2.478   7.931   8.866  0.7396  0.9376 -0.9909
13498SOL     OW41934   5.997   4.090   4.212 -0.2609 -0.3709  0.0540
13498SOL    HW141935   6.070   4.031   4.195 -0.2567 -0.9402  1.8867
13498SOL    HW241936   5.926   4.056   4.157  0.3901 -0.7463 -0.5699
13499SOL     OW41937   0.679   2.631   0.926 -0.1037 -0.4027 -0.4138
13499SOL    HW141938   0.719   2.663   0.845  0.0437 -2.3450 -1.1711
13499SOL    HW241939   0.691   2.702   0.989  0.8562  0.6774 -1.7647
13500SOL     OW41940   6.865   5.747   9.638 -0.2094  0.2774 -0.4104
13500SOL    HW141941   6.840   5.707   9.721 -1.7400  1.8341 -0.0485
13500SOL    HW241942   6.922   5.819   9.662  0.6427 -0.2284 -0.8644
13501SOL     OW41943   4.969   5.902   7.520 -0.2668  0.0657 -0.0789
13501SOL    HW141944   4.942   5.994   7.517 -0.1847  0.1246  0.7359
13501SOL    HW241945   4.978   5.876   7.428 -1.3178  0.5637 -0.3308
13502SOL     OW41946   5.391   4.482   5.927  0.7357  0.9102  0.0555
13502SOL    HW141947   5.378   4.503   6.019  1.0158 -0.8023  0.5280
13502SOL    HW241948   5.321   4.420   5.907  2.1464 -0.7056 -0.1315
13503SOL     OW41949   5.132   7.958   2.013 -0.1839 -0.8200 -0.2200
13503SOL    HW141950   5.184   7.950   2.093  0.3809  0.7552 -0.3829
13503SOL    HW241951   5.084   7.876   2.006 -1.6657 -0.3222  2.7257
13504SOL     OW41952   5.194   6.873   4.714  0.0269  0.5513 -0.1974
13504SOL    HW141953   5.173   6.893   4.623  1.9094  3.1358 -0.1455
13504SOL    HW241954   5.113   6.892   4.761 -0.1985  1.7830 -1.0313
13505SOL     OW41955   3.455   3.132   5.564 -0.1073 -0.2378 -0.1156
13505SOL    HW141956   3.405   3.172   5.492 -0.9049  0.8829  1.0138
13505SOL    HW241957   3.473   3.204   5.624 -1.0184 -1.4248  1.6842
13506SOL     OW41958   5.287   4.332  12.363 -0.4412  0.4046 -0.1757
13506SOL    HW141959   5.201   4.294  12.385 -0.5593  0.2626 -0.8799
13506SOL    HW241960   5.303   4.305  12.273 -0.8010  2.5363 -0.9316
13507SOL     OW41961   4.337   0.309   3.640  0.5536  0.2556  0.1309
13507SOL    HW141962   4.424   0.304   3.678  1.3532 -2.8568 -1.6577
13507SOL    HW241963   4.349   0.279   3.549 -2.3764 -0.5001 -0.1233
13508SOL     OW41964   5.612   1.598   8.492 -0.0856  0.2305  0.4456
13508SOL    HW141965   5.634   1.647   8.413 -1.5791 -0.5003 -0.4664
13508SOL    HW241966   5.566   1.521   8.461  1.9614 -1.7052  1.8653
13509SOL     OW41967   4.901   7.906  11.655 -0.1985 -0.4770  0.2091
13509SOL    HW141968   4.824   7.855  11.681 -0.1808 -0.1511  0.9197
13509SOL    HW241969   4.894   7.913  11.560 -1.3067 -0.0431  0.3117
13510SOL     OW41970   7.025   7.196   6.014 -0.7356  0.4088 -0.0772
13510SOL    HW141971   7.052   7.205   5.922  0.5803  0.3948  0.2771
13510SOL    HW241972   7.076   7.121   6.046 -0.2104  1.2026  0.9872
13511SOL     OW41973   6.743   5.363  10.443  0.0002  0.1074 -0.1894
13511SOL    HW141974   6.816   5.380  10.502  0.1994 -0.3508 -0.3008
13511SOL    HW241975   6.705   5.449  10.427 -1.2197  0.0506  2.0708
13512SOL     OW41976   2.474   5.782   3.385  0.1692  0.2764 -0.0675
13512SOL    HW141977   2.432   5.728   3.319  0.2663  0.6740 -0.4616
13512SOL    HW241978   2.465   5.872   3.352  2.2343  0.3122 -0.7078
13513SOL     OW41979   5.458   1.421   7.761 -0.6620  0.0005 -0.2813
13513SOL    HW141980   5.487   1.492   7.703  1.1309 -0.3066  0.1750
13513SOL    HW241981   5.368   1.403   7.734 -1.8774  3.6698  0.7639
13514SOL     OW41982   5.384   5.773   1.982  0.0670  0.0454 -0.6947
13514SOL    HW141983   5.400   5.819   2.065  0.1128  1.0570 -1.2522
13514SOL    HW241984   5.292   5.749   1.986  0.9058 -3.5102  1.3903
13515SOL     OW41985   3.981   3.188   2.020 -0.3289 -0.4584 -0.8694
13515SOL    HW141986   3.894   3.195   1.980 -0.4996 -1.3713 -0.6834
13515SOL    HW241987   3.982   3.257   2.087 -0.3553  0.5128 -1.8352
13516SOL     OW41988   7.278   6.886   1.756  0.4951 -0.2283 -0.0199
13516SOL    HW141989   7.269   6.897   1.662  3.7495 -0.3526 -0.4723
13516SOL    HW241990   7.372   6.895   1.772  0.1785 -1.2405  3.0817
13517SOL     OW41991   2.806   7.214   9.450  0.0283 -0.3283 -0.0699
13517SOL    HW141992   2.799   7.305   9.420 -0.5530 -0.6979 -1.1005
13517SOL    HW241993   2.857   7.171   9.382 -1.4237 -1.2169 -0.6359
13518SOL     OW41994   6.253   7.755  11.707 -0.6769  0.2790 -0.0840
13518SOL    HW141995   6.197   7.688  11.668  0.0143 -0.9031  0.8694
13518SOL    HW241996   6.224   7.760  11.798  2.1278 -2.0239  1.1031
13519SOL     OW41997   2.133   7.581   8.636  0.1342  0.0001 -0.5156
13519SOL    HW141998   2.183   7.505   8.662 -0.3774 -0.4187 -0.7369
13519SOL    HW241999   2.135   7.639   8.712 -1.5460 -1.2998  0.6055
13520SOL     OW42000   7.570   3.280   6.872  0.1824 -0.1489 -0.1916
13520SOL    HW142001   7.650   3.246   6.914  1.9518  3.1155 -0.5652
13520SOL    HW242002   7.507   3.288   6.944  0.4001 -1.9925  0.2699
13521SOL     OW42003   2.173   7.640   0.834  0.6354  0.1575  0.0788
13521SOL    HW142004   2.155   7.721   0.883  0.6699 -0.0086  0.3667
13521SOL    HW242005   2.106   7.638   0.765  0.2143  0.0877  0.4868
13522SOL     OW42006   2.513   7.466   3.924  0.2934  0.1634  0.8171
13522SOL    HW142007   2.457   7.409   3.871  1.9552 -1.6153  0.8329
13522SOL    HW242008   2.452   7.520   3.974 -1.3891 -1.0843  0.2185
13523SOL     OW42009   7.207   2.166   5.360  0.2066  0.0650 -0.2750
13523SOL    HW142010   7.153   2.088   5.374 -1.3550  1.1204 -0.0826
13523SOL    HW242011   7.242   2.155   5.272  0.2866 -1.0055 -0.1271
13524SOL     OW42012   1.846   2.382  10.444  0.5026 -0.3485 -0.5986
13524SOL    HW142013   1.777   2.448  10.439  1.1052  0.4829  1.1672
13524SOL    HW242014   1.890   2.400  10.527 -0.4182 -4.0034  0.9147
13525SOL     OW42015   1.922   1.301  11.636  0.3105 -0.0019  0.1678
13525SOL    HW142016   1.916   1.263  11.724  2.8196  1.8206  1.2551
13525SOL    HW242017   1.851   1.365  11.633 -1.8388 -2.2874 -0.4374
13526SOL     OW42018   2.598   5.818   5.871 -0.7078 -0.0470  0.0504
13526SOL    HW142019   2.684   5.795   5.905 -2.1247 -1.5685  2.9526
13526SOL    HW242020   2.577   5.747   5.810  0.8313  1.4141 -2.3471
13527SOL     OW42021   1.378   2.091  12.198  0.0453  0.4886 -0.6225
13527SOL    HW142022   1.333   2.167  12.236 -1.1710 -0.2036 -0.6308
13527SOL    HW242023   1.461   2.085  12.247 -1.3451 -0.2198  1.8406
13528SOL     OW42024   5.670   7.495   4.058 -0.2159  0.0511 -0.8843
13528SOL    HW142025   5.714   7.536   4.133 -0.2771 -1.4888  0.0250
13528SOL    HW242026   5.637   7.569   4.007  0.9148  1.1654 -0.0627
13529SOL     OW42027   2.060   2.334   8.511  0.4925 -1.0733  0.1544
13529SOL    HW142028   2.085   2.368   8.596  1.4524  0.5057 -0.7214
13529SOL    HW242029   1.973   2.296   8.525 -0.7994  1.9830  1.1764
13530SOL     OW42030   3.051   3.805   7.038  0.2668 -0.6751 -0.2263
13530SOL    HW142031   2.985   3.874   7.025  1.2209  0.1964 -0.6385
13530SOL    HW242032   3.085   3.788   6.950  0.8010 -0.8914  0.0162
13531SOL     OW42033   6.603   3.191   1.101  0.2621  0.1013 -0.4290
13531SOL    HW142034   6.571   3.104   1.125 -1.0447  0.5282 -0.5297
13531SOL    HW242035   6.608   3.239   1.183 -1.1788  0.5956 -0.6010
13532SOL     OW42036   3.019   0.114   7.523  0.2009 -0.4809  0.0511
13532SOL    HW142037   3.085   0.046   7.530 -1.2204 -2.1327 -1.6128
13532SOL    HW242038   3.035   0.154   7.437  0.4590  0.7048  0.6323
13533SOL     OW42039   4.847   6.669  10.495  0.3296  0.1689 -0.1660
13533SOL    HW142040   4.915   6.729  10.463  0.4387  0.6715  0.9620
13533SOL    HW242041   4.890   6.584  10.499  1.2741  0.6783  1.6070
13534SOL     OW42042   0.376   0.687   5.844 -0.6650  0.2690  0.0730
13534SOL    HW142043   0.360   0.724   5.757 -0.8778  1.6407  0.6633
13534SOL    HW242044   0.433   0.751   5.887 -1.2345  0.0246  1.2283
13535SOL     OW42045   7.614   3.625   8.390  0.5838  0.3190  0.4610
13535SOL    HW142046   7.689   3.585   8.345  0.0902  0.9630 -0.9701
13535SOL    HW242047   7.654   3.683   8.455  1.5006  2.9649 -2.2218
13536SOL     OW42048   1.897   6.924   7.068 -0.4374  0.0236  0.2512
13536SOL    HW142049   1.901   7.014   7.035 -0.6768  0.1053  0.4381
13536SOL    HW242050   1.986   6.906   7.100 -0.6682  0.6101  1.2821
13537SOL     OW42051   5.367   3.064   4.056 -0.4189 -0.2721 -0.2741
13537SOL    HW142052   5.302   3.114   4.105 -0.8521 -1.9902  0.9843
13537SOL    HW242053   5.443   3.060   4.114 -0.2553 -0.7431 -0.5176
13538SOL     OW42054   5.073   4.169  12.461 -0.3804 -0.1176 -0.2216
13538SOL    HW142055   5.023   4.126  12.391  1.1383 -0.4463 -1.1516
13538SOL    HW242056   5.074   4.104  12.532  0.7685 -1.1355 -1.1169
13539SOL     OW42057   6.574   1.052   4.024  0.2483  0.1025 -0.6113
13539SOL    HW142058   6.517   0.976   4.028 -0.5983  0.7594  0.0318
13539SOL    HW242059   6.608   1.062   4.113  0.3302  0.5018 -0.6856
13540SOL     OW42060   4.454   1.392   6.474  0.0926  0.3330  0.0018
13540SOL    HW142061   4.499   1.467   6.512 -0.6630  0.8519 -0.0878
13540SOL    HW242062   4.369   1.427   6.446 -1.4750 -1.1327  2.5112
13541SOL     OW42063   0.790   6.352  11.969  0.4885 -0.3384 -0.3216
13541SOL    HW142064   0.720   6.389  11.915  1.1906  0.4863 -0.6890
13541SOL    HW242065   0.812   6.422  12.030 -2.1401 -2.0964  2.9712
13542SOL     OW42066   0.466   4.263   1.240 -0.0595  0.3959 -0.2456
13542SOL    HW142067   0.423   4.347   1.223 -2.5815 -0.9630 -1.1089
13542SOL    HW242068   0.435   4.237   1.327  0.8117  0.4071  0.0738
13543SOL     OW42069   7.262   6.153  10.168  0.0822  0.0242  0.5946
13543SOL    HW142070   7.204   6.132  10.240  0.1974 -1.4875  0.2746
13543SOL    HW242071   7.350   6.151  10.206  0.1733 -1.1491  0.3589
13544SOL     OW42072   7.150   4.843   9.079  0.0865  0.8725 -0.6691
13544SOL    HW142073   7.118   4.794   9.155  0.7792  0.7340 -0.4601
13544SOL    HW242074   7.101   4.807   9.005 -0.3406  0.7652 -0.3363
13545SOL     OW42075   1.502   6.813   1.677 -0.5111  0.0149  0.1452
13545SOL    HW142076   1.427   6.755   1.663  0.6228 -1.4880  0.0819
13545SOL    HW242077   1.545   6.817   1.591  1.9255 -2.7531  1.0502
13546SOL     OW42078   4.998   7.370   7.437 -0.3886  0.4483 -0.2769
13546SOL    HW142079   5.083   7.330   7.456  0.2636  1.4857 -0.9160
13546SOL    HW242080   4.961   7.391   7.523 -0.0403 -0.0764  0.0076
13547SOL     OW42081   3.722   1.534   8.656  0.5939 -0.1961 -0.4978
13547SOL    HW142082   3.748   1.589   8.582 -0.3497 -0.5181 -1.0786
13547SOL    HW242083   3.692   1.596   8.723  0.5620  0.0477 -0.7382
13548SOL     OW42084   4.004   5.684   8.255  0.1439  0.7156  0.1062
13548SOL    HW142085   3.957   5.734   8.322  0.0217 -0.5783  1.0341
13548SOL    HW242086   4.016   5.746   8.183 -1.0023  1.7296  0.7388
13549SOL     OW42087   3.578   1.035   5.342 -0.0566  0.2647  0.1384
13549SOL    HW142088   3.498   1.063   5.296  0.9551  1.9281 -0.6890
13549SOL    HW242089   3.642   1.103   5.322  1.3958 -0.7017  1.3312
13550SOL     OW42090   2.697   0.667   7.171  0.0821 -0.1682  0.1121
13550SOL    HW142091   2.665   0.757   7.179 -0.4205 -0.3279 -0.0095
13550SOL    HW242092   2.703   0.635   7.261  0.4780  0.0593  0.1665
13551SOL     OW42093   0.334   0.116   7.734 -0.6055 -1.1813 -0.2190
13551SOL    HW142094   0.408   0.150   7.683 -1.5632 -0.7190 -1.3520
13551SOL    HW242095   0.358   0.132   7.825 -0.2114  0.9048 -0.6471
13552SOL     OW42096   1.209   5.491   0.539 -0.5135  0.2036 -0.5413
13552SOL    HW142097   1.244   5.404   0.558 -2.0489 -0.9915 -2.7285
13552SOL    HW242098   1.285   5.543   0.515  0.5178 -0.2825  1.4128
13553SOL     OW42099   4.602   0.374   3.741  0.7585  0.2295 -0.1780
13553SOL    HW142100   4.666   0.393   3.810  0.2155  1.7099 -0.0361
13553SOL    HW242101   4.631   0.429   3.667 -0.8693  1.6809  0.2166
13554SOL     OW42102   6.789   0.906   7.128  0.1407  0.3647 -0.1608
13554SOL    HW142103   6.788   0.974   7.196  0.5575  0.7566 -0.5485
13554SOL    HW242104   6.853   0.842   7.159 -0.0598  0.2724  0.0730
13555SOL     OW42105   3.109   5.075   0.306 -0.3716 -0.4074  0.4855
13555SOL    HW142106   3.148   5.101   0.390  0.9169  2.5691 -0.8843
13555SOL    HW242107   3.155   4.994   0.282  2.6066  1.1460  0.5667
13556SOL     OW42108   5.994   5.193  10.646  0.2258  0.0642  0.0688
13556SOL    HW142109   6.059   5.199  10.575 -0.6285  1.1907 -0.6344
13556SOL    HW242110   5.928   5.258  10.624  0.2573  0.8924  2.2582
13557SOL     OW42111   2.788   2.744   8.884 -0.1496 -0.3960 -0.5746
13557SOL    HW142112   2.698   2.721   8.860  0.0273 -2.7080  0.6728
13557SOL    HW242113   2.809   2.688   8.958  1.6443  1.5889  0.5499
13558SOL     OW42114   0.540   1.523  11.455  0.4145  0.3250 -0.1161
13558SOL    HW142115   0.614   1.466  11.434 -1.2756 -2.2413  0.3849
13558SOL    HW242116   0.526   1.511  11.549 -0.1439  1.3695 -0.0560
13559SOL     OW42117   6.686   1.784   4.864  0.1601  0.1351  0.5982
13559SOL    HW142118   6.700   1.689   4.862  2.0975  0.3911  0.5139
13559SOL    HW242119   6.660   1.805   4.775  0.7327 -0.1859  0.3487
13560SOL     OW42120   3.447   7.626   0.138  0.2358  0.1992 -0.3226
13560SOL    HW142121   3.399   7.559   0.186 -0.7299  1.4009  0.4649
13560SOL    HW242122   3.422   7.612   0.046  1.0516 -1.2774 -0.3491
13561SOL     OW42123   7.342   6.960  10.474  0.2424 -0.2372 -0.0050
13561SOL    HW142124   7.428   7.002  10.471  0.1717  0.3452  2.8376
13561SOL    HW242125   7.359   6.869  10.452  1.5897 -0.0943  0.3449
13562SOL     OW42126   2.473   2.457  11.934 -0.7917 -0.3327 -0.1695
13562SOL    HW142127   2.432   2.387  11.983 -1.8861 -0.5833 -1.4050
13562SOL    HW242128   2.420   2.467  11.855 -0.2387  1.3844 -0.3812
13563SOL     OW42129   3.230   7.192   1.995  0.7656  0.1160 -0.1520
13563SOL    HW142130   3.313   7.209   2.039  0.7664 -0.7024  0.1927
13563SOL    HW242131   3.177   7.270   2.011  1.4431  0.6102 -0.3153
13564SOL     OW42132   4.532   4.651   3.821  0.2280 -0.2770  0.0741
13564SOL    HW142133   4.588   4.666   3.897  0.8447 -0.3305 -0.3646
13564SOL    HW242134   4.593   4.646   3.747 -0.3023 -0.9572 -0.3250
13565SOL     OW42135   0.668   7.082  12.233 -0.1148 -0.4954  0.0920
13565SOL    HW142136   0.609   7.137  12.180  0.0712 -0.3946 -0.0095
13565SOL    HW242137   0.647   7.105  12.324 -1.3649 -1.6064  0.1231
13566SOL     OW42138   1.770   3.540   8.493 -0.0547  0.0057 -0.5061
13566SOL    HW142139   1.808   3.626   8.478 -3.5458  1.6841 -0.5032
13566SOL    HW242140   1.731   3.545   8.580 -0.3657 -1.5830 -0.5210
13567SOL     OW42141   5.353   0.298   1.912 -0.0386 -0.1715 -0.8382
13567SOL    HW142142   5.394   0.375   1.872  1.0884 -1.2733 -1.8672
13567SOL    HW242143   5.262   0.325   1.926  0.2814  1.2831 -1.3584
13568SOL     OW42144   1.847   0.894   9.064  0.5386  0.1357  0.3388
13568SOL    HW142145   1.766   0.867   9.108  0.0780  0.5582 -0.2195
13568SOL    HW242146   1.820   0.909   8.973  0.9967  1.3491  0.3813
13569SOL     OW42147   1.760   7.368   8.425  0.0198  0.2327  0.4982
13569SOL    HW142148   1.749   7.399   8.335  0.0932  1.0809  0.7699
13569SOL    HW242149   1.744   7.445   8.479  1.5797  0.1445  1.1470
13570SOL     OW42150   4.732   0.337  11.895 -0.4271  0.1487 -0.4408
13570SOL    HW142151   4.819   0.301  11.910  0.0740  0.9097 -1.4067
13570SOL    HW242152   4.683   0.266  11.853  0.1347  0.1365 -1.0972
13571SOL     OW42153   0.980   4.906   3.045  0.5446 -0.0094 -0.0073
13571SOL    HW142154   0.893   4.940   3.027  1.0996  1.6403  0.2752
13571SOL    HW242155   1.014   4.881   2.959  0.1746  0.2785 -0.2372
13572SOL     OW42156   1.086   7.768  10.482  0.1104  0.1749 -0.1409
13572SOL    HW142157   1.123   7.836  10.539 -1.0431  0.1538  0.6785
13572SOL    HW242158   1.009   7.809  10.443 -0.5986 -0.6387  0.3605
13573SOL     OW42159   3.729   0.216   8.668  0.0532 -0.1779 -0.0442
13573SOL    HW142160   3.821   0.193   8.654  0.3618  1.4129 -0.9253
13573SOL    HW242161   3.731   0.273   8.745  0.1742  1.6819 -1.3435
13574SOL     OW42162   2.531   3.657   8.507  0.5989 -0.0016 -0.1815
13574SOL    HW142163   2.498   3.731   8.558 -0.5628 -0.8413  0.3377
13574SOL    HW242164   2.588   3.610   8.567  0.0342 -0.4280  0.0281
13575SOL     OW42165   3.492   1.877   1.924  0.6250  0.2372  0.0178
13575SOL    HW142166   3.582   1.876   1.957  0.5600 -0.4674  0.1968
13575SOL    HW242167   3.458   1.962   1.950  1.1149  0.3507  0.3037
13576SOL     OW42168   6.715   1.580  10.794 -0.5984  0.1136 -0.1228
13576SOL    HW142169   6.708   1.674  10.775  0.4879  0.2788  0.2194
13576SOL    HW242170   6.672   1.569  10.879 -0.6790  0.3076 -0.1382
13577SOL     OW42171   1.778   2.878   3.894  0.4771 -0.3765 -0.4051
13577SOL    HW142172   1.815   2.792   3.916  0.9013 -0.1644 -0.2693
13577SOL    HW242173   1.809   2.936   3.964 -1.7361 -0.5779  0.8187
13578SOL     OW42174   7.136   1.820   1.533 -0.1951 -0.2287  0.0451
13578SOL    HW142175   7.145   1.890   1.468 -1.9841 -0.9504 -1.0776
13578SOL    HW242176   7.100   1.864   1.610 -0.6874  0.2179 -0.4221
13579SOL     OW42177   2.284   2.700   3.717 -0.3005  0.5024 -0.3020
13579SOL    HW142178   2.343   2.726   3.646  0.0070 -0.9709 -0.6134
13579SOL    HW242179   2.336   2.642   3.772 -0.5076  1.6884  1.2126
13580SOL     OW42180   7.849   7.894   4.700 -0.1261 -0.8834  0.3006
13580SOL    HW142181   7.805   7.833   4.641 -0.7994 -0.8803  0.7946
13580SOL    HW242182   7.796   7.974   4.697  0.4725 -0.4789  0.0438
13581SOL     OW42183   2.098   3.465   2.682 -0.1870 -0.2683 -0.0896
13581SOL    HW142184   2.034   3.520   2.638 -0.3217 -0.8022 -0.5727
13581SOL    HW242185   2.163   3.446   2.615  0.1948 -0.1772  0.2491
13582SOL     OW42186   0.845   5.253   2.987  0.3682 -0.0514  0.5005
13582SOL    HW142187   0.890   5.338   2.992  0.2248  0.1783 -1.3960
13582SOL    HW242188   0.865   5.221   2.899 -0.7763 -1.3121  0.6795
13583SOL     OW42189   7.202   6.294   4.397 -0.2550 -0.1725 -0.2682
13583SOL    HW142190   7.238   6.315   4.483  0.7455 -0.2189 -0.6562
13583SOL    HW242191   7.269   6.324   4.335 -1.2831  0.5338 -1.0649
13584SOL     OW42192   5.663   5.781   1.656 -0.9078  0.2913  0.1725
13584SOL    HW142193   5.574   5.753   1.678 -0.9912 -0.9048 -1.4445
13584SOL    HW242194   5.662   5.789   1.560  1.1264 -1.3610 -0.0620
13585SOL     OW42195   2.696   1.723   5.841  0.2393 -0.0235 -0.6396
13585SOL    HW142196   2.623   1.682   5.888  0.1446  1.3321  0.4478
13585SOL    HW242197   2.750   1.650   5.812 -0.8444 -0.9886 -0.2990
13586SOL     OW42198   2.731   1.480   9.218  0.4059  0.4354 -0.3569
13586SOL    HW142199   2.815   1.525   9.222  1.0809 -0.7842  0.0208
13586SOL    HW242200   2.678   1.520   9.287  1.2237  0.2199  0.4188
13587SOL     OW42201   7.183   3.534   4.765 -0.2954  0.0043 -0.0304
13587SOL    HW142202   7.260   3.477   4.757 -0.5967 -0.3464 -0.5660
13587SOL    HW242203   7.167   3.540   4.859  2.7701  3.3475  0.5301
13588SOL     OW42204   5.479   7.650   3.159  0.2777  0.9085 -0.2402
13588SOL    HW142205   5.486   7.555   3.168  2.2793  1.1053  1.0453
13588SOL    HW242206   5.466   7.665   3.066  0.4500 -0.5972 -0.5314
13589SOL     OW42207   3.489   6.298   9.903 -0.2276 -0.3748 -0.1669
13589SOL    HW142208   3.579   6.299   9.933 -0.4330 -1.0873  0.5085
13589SOL    HW242209   3.439   6.267   9.978 -0.9285 -0.8313 -0.8026
13590SOL     OW42210   6.280   1.776   1.630  0.3669 -0.1318  0.7698
13590SOL    HW142211   6.216   1.753   1.698  1.1143  0.0593  1.5498
13590SOL    HW242212   6.316   1.692   1.603  0.8668 -0.1322  1.4130
13591SOL     OW42213   3.408   1.841   9.283  0.8063  0.2962  0.2210
13591SOL    HW142214   3.460   1.783   9.339 -0.9027  0.0678  1.6502
13591SOL    HW242215   3.449   1.927   9.293  0.8603  0.1413  1.4023
13592SOL     OW42216   6.427   5.642   1.256 -0.1358  0.0151 -0.0884
13592SOL    HW142217   6.439   5.623   1.163  1.2568  0.3389  0.0014
13592SOL    HW242218   6.401   5.558   1.294  1.1919 -0.5992 -0.4701
13593SOL     OW42219   5.566   0.779   8.469 -0.7949  0.3876  0.1796
13593SOL    HW142220   5.612   0.786   8.553 -2.1287 -0.6243  1.0380
13593SOL    HW242221   5.629   0.735   8.411  0.3508  1.5997  0.4559
13594SOL     OW42222   4.886   6.121   7.710  0.0765  0.1277 -0.5370
13594SOL    HW142223   4.969   6.169   7.711 -0.2935  0.7680  0.4329
13594SOL    HW242224   4.820   6.187   7.694 -0.3426 -0.2127 -0.2428
13595SOL     OW42225   6.323   5.464   8.093 -0.3318 -0.2164  0.1447
13595SOL    HW142226   6.335   5.389   8.035 -0.9055 -0.4645  0.3385
13595SOL    HW242227   6.350   5.433   8.179 -1.2868 -0.4480  0.3737
13596SOL     OW42228   4.478   4.962   2.140 -0.2980 -0.1269  0.3409
13596SOL    HW142229   4.455   4.947   2.232  0.9914 -0.5691  0.6116
13596SOL    HW242230   4.439   5.047   2.120  1.1076  0.9689  1.9268
13597SOL     OW42231   3.855   2.661   8.010 -0.0955  0.0044  0.1001
13597SOL    HW142232   3.871   2.749   7.975 -1.9557  0.3246 -0.0344
13597SOL    HW242233   3.922   2.651   8.078  1.1632  0.8691 -0.9423
13598SOL     OW42234   6.748   6.790  12.333  0.1039 -0.1572 -0.4412
13598SOL    HW142235   6.691   6.756  12.264 -0.6809  1.7119 -0.7847
13598SOL    HW242236   6.836   6.769  12.303 -0.2828 -0.5117 -1.3743
13599SOL     OW42237   6.436   3.011   3.377 -0.3874 -0.0239  0.6719
13599SOL    HW142238   6.473   2.977   3.459  0.6834  0.4164  0.3961
13599SOL    HW242239   6.397   3.095   3.402  0.1842  0.2416  0.6883
13600SOL     OW42240   1.802   0.303   1.242 -0.9475  0.0871  0.1033
13600SOL    HW142241   1.719   0.318   1.287  0.1771  2.9956  1.4490
13600SOL    HW242242   1.793   0.350   1.159 -1.3655 -1.4327 -0.7502
13601SOL     OW42243   4.097   1.112   6.838  0.4598 -0.2712  0.5726
13601SOL    HW142244   4.175   1.091   6.786  1.0552  2.1367  0.3571
13601SOL    HW242245   4.085   1.206   6.825 -3.8544 -0.8195 -1.2897
13602SOL     OW42246   5.849   4.193   5.746 -0.0081  0.1677 -0.1159
13602SOL    HW142247   5.795   4.115   5.755  1.1200 -0.6560 -0.2644
13602SOL    HW242248   5.820   4.233   5.664 -0.9592  0.2009  0.2321
13603SOL     OW42249   3.952   1.148   7.490 -0.1665 -0.0263  0.3643
13603SOL    HW142250   3.947   1.231   7.537 -1.7150  0.1011  0.0096
13603SOL    HW242251   3.888   1.092   7.532  1.9050 -1.6245  1.6071
13604SOL     OW42252   1.668   4.088   4.872  0.1831  0.2797 -0.5315
13604SOL    HW142253   1.731   4.152   4.906  0.8840 -1.0966  0.8969
13604SOL    HW242254   1.594   4.140   4.841  0.2850  1.7308  1.5256
13605SOL     OW42255   4.781   1.770  10.062  0.2163 -0.0255  0.3512
13605SOL    HW142256   4.695   1.754  10.024  0.9543  0.4760 -1.6417
13605SOL    HW242257   4.838   1.705  10.021  0.9584  0.1821  1.0198
13606SOL     OW42258   4.549   5.050  11.946  0.7885 -0.1467 -0.1670
13606SOL    HW142259   4.611   5.113  11.983 -0.0767  0.3935  0.4052
13606SOL    HW242260   4.483   5.104  11.903 -0.3824 -0.6094  0.9879
13607SOL     OW42261   5.902   5.470  11.573 -0.2255  0.7339  0.1730
13607SOL    HW142262   5.889   5.476  11.667  2.1660  3.0329  0.4912
13607SOL    HW242263   5.856   5.546  11.537 -0.7273  0.1393 -0.4700
13608SOL     OW42264   0.065   3.490  11.250 -0.1853  0.1023 -0.6932
13608SOL    HW142265   0.070   3.423  11.183 -0.5401  1.1036 -1.7514
13608SOL    HW242266   0.103   3.568  11.210  1.1893  0.2920  0.8618
13609SOL     OW42267   2.428   5.469  12.421  0.3171 -0.1975 -0.4545
13609SOL    HW142268   2.506   5.465  12.477  0.6469 -1.2124 -0.9609
13609SOL    HW242269   2.392   5.556  12.437  0.5450 -0.3622  1.1410
13610SOL     OW42270   1.019   2.795  11.827  0.0939 -0.5986  0.5606
13610SOL    HW142271   0.931   2.832  11.831  0.0672 -0.4996 -0.6275
13610SOL    HW242272   1.016   2.731  11.755  0.9668 -0.6442  0.5482
13611SOL     OW42273   0.258   3.181   5.813 -0.3092  0.2275 -0.0049
13611SOL    HW142274   0.208   3.173   5.732  0.5999 -0.5000 -0.5141
13611SOL    HW242275   0.331   3.239   5.790 -0.4682  0.6328  0.5039
13612SOL     OW42276   6.585   5.570   3.328 -0.5485  0.0330  0.1551
13612SOL    HW142277   6.630   5.532   3.253  0.1157  0.5670  0.2714
13612SOL    HW242278   6.636   5.543   3.404 -1.0276 -0.2301  0.3887
13613SOL     OW42279   1.200   1.079   5.775  0.9324 -0.1062  0.4257
13613SOL    HW142280   1.128   1.067   5.713  1.2655  0.2114 -0.0299
13613SOL    HW242281   1.206   0.996   5.822 -0.0836  0.0466  0.8569
13614SOL     OW42282   1.625   0.584   1.289  0.0669 -0.6190 -0.0446
13614SOL    HW142283   1.581   0.555   1.209  1.3441 -1.1721 -0.5877
13614SOL    HW242284   1.566   0.648   1.327 -1.3045 -1.5029 -0.5951
13615SOL     OW42285   2.020   2.931   9.676  0.4791 -0.2496  0.2555
13615SOL    HW142286   2.003   2.858   9.735  1.1200  0.3848  1.2695
13615SOL    HW242287   1.945   2.932   9.617 -0.1268 -0.9916  0.9825
13616SOL     OW42288   5.667   6.684   3.250 -0.0622  0.0446 -0.6855
13616SOL    HW142289   5.744   6.741   3.240 -0.9389  1.2753 -0.7135
13616SOL    HW242290   5.646   6.689   3.344 -0.2203 -0.1461 -0.7108
13617SOL     OW42291   5.458   4.399   1.837 -0.4229  0.0461 -0.4596
13617SOL    HW142292   5.477   4.493   1.835 -0.0851 -0.0333 -1.1864
13617SOL    HW242293   5.447   4.375   1.745 -0.0133 -0.7167 -0.3157
13618SOL     OW42294   1.825   5.598  10.192  0.1325  0.4927 -0.0532
13618SOL    HW142295   1.900   5.574  10.247 -1.3650 -1.7327  1.2069
13618SOL    HW242296   1.846   5.564  10.105 -0.0672 -1.7021  0.6980
13619SOL     OW42297   1.112   6.806   8.307 -0.1480  0.4226 -0.1796
13619SOL    HW142298   1.125   6.712   8.311 -2.5970 -0.0282 -1.3866
13619SOL    HW242299   1.096   6.825   8.215 -0.8370  1.8298  0.2003
13620SOL     OW42300   4.288   0.565   8.917 -0.2899  0.3055  0.3284
13620SOL    HW142301   4.251   0.516   8.845  0.8355 -1.4145  0.8591
13620SOL    HW242302   4.271   0.657   8.895 -1.3524 -0.2424 -1.3068
13621SOL     OW42303   6.417   3.596   6.061  0.1962 -0.2721  0.0677
13621SOL    HW142304   6.487   3.659   6.077  1.3110 -1.2062 -0.8922
13621SOL    HW242305   6.352   3.646   6.011 -0.1537  0.7781  1.5095
13622SOL     OW42306   7.274   0.680   8.522  0.1059 -0.0412  0.3604
13622SOL    HW142307   7.226   0.613   8.473 -2.5224  0.3342  2.2038
13622SOL    HW242308   7.296   0.746   8.456  0.7371 -1.6016 -1.0783
13623SOL     OW42309   0.452   7.349   1.547  0.0165  0.3078 -0.0625
13623SOL    HW142310   0.500   7.366   1.628  1.9686  0.0866 -1.1280
13623SOL    HW242311   0.519   7.335   1.481 -1.5259  0.0327 -1.6569
13624SOL     OW42312   0.686   1.709   6.126 -0.6000 -0.0246 -0.1696
13624SOL    HW142313   0.632   1.787   6.140  0.8408  1.4079 -2.1830
13624SOL    HW242314   0.641   1.662   6.056 -0.3792  0.0805 -0.3838
13625SOL     OW42315   2.760   6.993   5.319  0.3549  0.3398 -0.4611
13625SOL    HW142316   2.815   6.974   5.243  0.6868  1.7341 -0.5857
13625SOL    HW242317   2.753   7.088   5.321 -1.8808  0.2130 -0.3110
13626SOL     OW42318   5.970   5.612   4.485 -0.1016  0.3591 -0.3220
13626SOL    HW142319   5.940   5.522   4.496  1.4855 -0.0909  0.7646
13626SOL    HW242320   6.041   5.605   4.421  0.9240  0.5904  0.7501
13627SOL     OW42321   5.332   0.063   4.934 -0.2830 -0.0246  0.1114
13627SOL    HW142322   5.245   0.049   4.971 -0.4524 -0.5135 -0.4551
13627SOL    HW242323   5.390   0.006   4.985 -0.6443 -1.3076 -0.8699
13628SOL     OW42324   3.182   3.720   4.096 -0.2128 -0.1344 -0.0383
13628SOL    HW142325   3.121   3.769   4.041  1.6502  1.0170 -1.1959
13628SOL    HW242326   3.137   3.637   4.114 -1.4188 -0.0300 -2.2571
13629SOL     OW42327   6.513   5.855   1.019  0.4422  0.0787 -0.0868
13629SOL    HW142328   6.582   5.903   0.975 -0.2398 -0.0371 -1.3339
13629SOL    HW242329   6.464   5.921   1.068  1.5605  0.1221  1.0151
13630SOL     OW42330   3.920   6.490   9.660  0.3543  0.2674 -0.3501
13630SOL    HW142331   3.945   6.448   9.743 -1.2156  0.4656  0.2528
13630SOL    HW242332   3.990   6.466   9.600  1.4433 -0.0545  0.9762
13631SOL     OW42333   7.245   1.388   7.708  0.3736  0.0310 -0.4707
13631SOL    HW142334   7.151   1.372   7.701 -0.3580  3.0423  0.8837
13631SOL    HW242335   7.263   1.452   7.639  1.0303  0.7813  0.3762
13632SOL     OW42336   3.216   3.153   1.164 -0.2954  0.0319 -0.1590
13632SOL    HW142337   3.247   3.154   1.073 -2.1243  0.4493 -0.8234
13632SOL    HW242338   3.190   3.062   1.179 -1.1491  0.2111 -0.4938
13633SOL     OW42339   1.240   7.784   9.342 -0.0382 -0.0634  0.0716
13633SOL    HW142340   1.205   7.731   9.271  0.0494 -1.0626  0.7666
13633SOL    HW242341   1.335   7.777   9.332 -0.0086 -1.3757  1.1294
13634SOL     OW42342   2.131   7.001   7.665  0.0949 -0.4478 -0.0188
13634SOL    HW142343   2.044   6.980   7.698 -0.9574 -0.5670 -2.6717
13634SOL    HW242344   2.137   7.096   7.669 -0.7797 -0.3278 -1.2095
13635SOL     OW42345   5.778   4.628  12.090 -0.1345 -0.2941  0.2218
13635SOL    HW142346   5.721   4.651  12.163  0.9720  1.5599  0.5638
13635SOL    HW242347   5.834   4.558  12.124 -1.0498 -0.9536  0.4135
13636SOL     OW42348   7.702   1.261   8.046 -0.6407  0.3721  0.0943
13636SOL    HW142349   7.784   1.264   7.997 -0.7534 -0.3755 -0.1563
13636SOL    HW242350   7.634   1.265   7.979 -0.7985 -0.0146  0.2250
13637SOL     OW42351   2.883   5.650   7.287  0.5771 -0.6213 -0.3763
13637SOL    HW142352   2.881   5.605   7.202 -0.6876  1.5973 -1.6155
13637SOL    HW242353   2.921   5.735   7.268 -3.2060  1.4695  0.3551
13638SOL     OW42354   5.380   3.005  11.668 -0.2513 -0.0277 -0.3341
13638SOL    HW142355   5.335   2.986  11.585 -0.4861 -0.9652 -0.0088
13638SOL    HW242356   5.375   2.923  11.717 -0.7531  0.7289  0.9153
13639SOL     OW42357   4.716   6.481   4.006  0.1523 -0.2616 -0.6402
13639SOL    HW142358   4.728   6.398   4.054  2.1551  0.1173 -0.3814
13639SOL    HW242359   4.805   6.516   3.997 -0.6390  1.8354 -0.8211
13640SOL     OW42360   0.637   3.268   0.200 -0.6682  0.6920  0.3796
13640SOL    HW142361   0.595   3.200   0.148 -0.7389  0.0287  1.2736
13640SOL    HW242362   0.594   3.350   0.173  0.0275  0.5260 -1.3349
13641SOL     OW42363   1.619   0.498   2.548 -0.6256  0.2992  0.7055
13641SOL    HW142364   1.687   0.460   2.492 -1.1013  0.3875  0.0518
13641SOL    HW242365   1.595   0.428   2.609 -0.2263  0.1416  0.6803
13642SOL     OW42366   4.591   6.434   1.406  0.0177 -0.0477  0.1118
13642SOL    HW142367   4.674   6.398   1.439  0.8340  2.1356  0.5877
13642SOL    HW242368   4.596   6.422   1.311  0.7781 -0.1555  0.1550
13643SOL     OW42369   4.556   1.541   6.019 -0.7453 -0.5708 -0.6870
13643SOL    HW142370   4.486   1.602   6.042  0.6836  0.7501  0.3310
13643SOL    HW242371   4.637   1.585   6.045  0.4187 -2.5195 -0.7643
13644SOL     OW42372   1.913   4.011   6.324  0.2378  0.9160  0.4009
13644SOL    HW142373   1.934   3.980   6.412  3.6691  0.5149 -0.4421
13644SOL    HW242374   1.951   4.098   6.319  3.3483 -0.3742 -1.6568
13645SOL     OW42375   2.676   6.779   8.307 -0.2237 -0.0340 -0.1510
13645SOL    HW142376   2.661   6.761   8.214 -2.5401 -1.5603  0.4192
13645SOL    HW242377   2.682   6.874   8.313 -2.7414  0.3093 -1.6006
13646SOL     OW42378   0.001   5.573   2.737  0.3609 -0.2067 -0.2558
13646SOL    HW142379   0.002   5.609   2.648  1.2371 -1.8042 -0.9266
13646SOL    HW242380   0.089   5.539   2.751 -0.8021 -3.5801 -0.3300
13647SOL     OW42381   3.457   7.474   1.706  0.4210  0.2256 -0.0284
13647SOL    HW142382   3.503   7.408   1.758  1.5344  1.0542  0.0779
13647SOL    HW242383   3.416   7.532   1.770  1.2734  0.8841 -0.0522
13648SOL     OW42384   6.251   6.750   5.269 -0.0391  0.2662  0.5038
13648SOL    HW142385   6.203   6.725   5.348  0.5818  1.2122  1.2063
13648SOL    HW242386   6.207   6.703   5.198 -1.0668 -0.0372  1.3151
13649SOL     OW42387   2.101   0.155   9.337  0.5055 -0.6998  0.0600
13649SOL    HW142388   2.116   0.214   9.412  0.1844 -0.7403  0.1599
13649SOL    HW242389   2.010   0.171   9.313  0.2850 -1.4761  0.3644
13650SOL     OW42390   1.683   3.675   9.036  0.4741 -0.2680 -0.5110
13650SOL    HW142391   1.655   3.762   9.063  1.3146  0.7602 -2.6847
13650SOL    HW242392   1.771   3.665   9.073  0.1673 -0.4459  0.1899
13651SOL     OW42393   4.124   1.611  11.011 -0.1860  0.0173  0.2177
13651SOL    HW142394   4.043   1.649  11.047 -0.1339 -0.7884  1.2140
13651SOL    HW242395   4.187   1.683  11.013 -0.3311  0.1362  1.2846
13652SOL     OW42396   2.900   1.173   3.225 -0.2760  0.5255  0.4260
13652SOL    HW142397   2.852   1.096   3.256  1.0864 -0.0546  1.1242
13652SOL    HW242398   2.874   1.243   3.285 -0.7201  0.3798  0.4125
13653SOL     OW42399   6.582   7.193   3.824  0.7085 -0.0566 -0.3019
13653SOL    HW142400   6.495   7.200   3.787  0.9769  1.5514 -0.7072
13653SOL    HW242401   6.595   7.099   3.838  0.0444 -0.6073 -2.9333
13654SOL     OW42402   5.450   2.720   4.885  0.0991 -0.4420  0.2220
13654SOL    HW142403   5.538   2.752   4.905 -0.0004 -0.6271  1.0125
13654SOL    HW242404   5.463   2.659   4.812  0.6344 -0.4729  0.3341
13655SOL     OW42405   4.114   7.200   1.261  0.6524 -0.8021  0.4867
13655SOL    HW142406   4.067   7.188   1.343 -0.5707 -0.9179 -0.2001
13655SOL    HW242407   4.087   7.126   1.207  0.8133 -0.3136 -0.2877
13656SOL     OW42408   0.095   2.136   7.540 -0.9182  0.1399  0.1428
13656SOL    HW142409   0.141   2.205   7.588 -0.1914 -0.8812  0.9578
13656SOL    HW242410   0.138   2.133   7.455 -1.3787  1.1158 -0.1317
13657SOL     OW42411   3.391   1.043   8.068 -0.5732 -0.2435  0.5996
13657SOL    HW142412   3.395   0.948   8.064  0.0868 -0.2804  1.7063
13657SOL    HW242413   3.389   1.063   8.162  0.1753  0.8492  0.4070
13658SOL     OW42414   4.763   0.249   2.658  0.2717 -0.0110  0.0627
13658SOL    HW142415   4.816   0.204   2.724  1.7336  0.8691 -0.4432
13658SOL    HW242416   4.736   0.331   2.700  0.6460  0.2480 -0.1894
13659SOL     OW42417   6.172   2.850  10.553 -0.4716 -0.3667 -0.5462
13659SOL    HW142418   6.256   2.879  10.589 -1.5510  1.2521  0.8283
13659SOL    HW242419   6.141   2.784  10.615 -1.2153  0.6752  0.2299
13660SOL     OW42420   3.963   3.919   8.699 -0.3383  0.5049 -0.2201
13660SOL    HW142421   3.868   3.931   8.701 -0.2592  1.2227  1.6133
13660SOL    HW242422   3.988   3.940   8.609 -1.7589  1.7375 -0.3740
13661SOL     OW42423   5.681   5.209   8.107  0.0429 -0.1570  0.3179
13661SOL    HW142424   5.611   5.165   8.155 -0.1713 -0.9537 -0.6852
13661SOL    HW242425   5.667   5.302   8.123 -0.4872 -0.3740  1.1443
13662SOL     OW42426   4.061   7.057   2.388  0.4344 -0.4302 -0.3526
13662SOL    HW142427   4.022   7.010   2.462  1.1744  0.3028  0.5370
13662SOL    HW242428   4.154   7.064   2.411  0.5112  0.6259 -0.8992
13663SOL     OW42429   6.778   7.139   6.917 -0.3793 -0.0900 -0.0750
13663SOL    HW142430   6.742   7.227   6.908  1.7423  0.7947 -0.3820
13663SOL    HW242431   6.784   7.105   6.828  0.2265  0.0776 -0.1051
13664SOL     OW42432   2.321   6.199   2.161 -0.5954 -0.6728 -0.3296
13664SOL    HW142433   2.231   6.227   2.182 -1.2697 -2.4088 -0.7861
13664SOL    HW242434   2.311   6.114   2.120  1.2865 -0.8885 -0.4210
13665SOL     OW42435   0.773   0.665   4.201  0.0048 -0.6303 -0.5451
13665SOL    HW142436   0.757   0.758   4.218  0.9841  0.1294 -3.3900
13665SOL    HW242437   0.735   0.621   4.278  1.0786  2.1516  1.7877
13666SOL     OW42438   5.481   5.798   0.289 -0.3575  0.6485 -0.0249
13666SOL    HW142439   5.553   5.835   0.339  1.1035  0.4855 -1.8749
13666SOL    HW242440   5.517   5.717   0.252 -2.2812 -0.7109  0.9106
13667SOL     OW42441   3.977   0.884   8.186 -0.9263 -0.2652  0.1647
13667SOL    HW142442   3.892   0.843   8.171 -0.9538 -0.3590  0.5466
13667SOL    HW242443   3.987   0.882   8.282  0.1404 -1.5702  0.0590
13668SOL     OW42444   7.424   7.859   9.781 -0.1701 -0.2112  0.4163
13668SOL    HW142445   7.338   7.833   9.745  0.9995 -2.4778 -0.9706
13668SOL    HW242446   7.464   7.778   9.810  1.1101  0.9471  2.1101
13669SOL     OW42447   4.653   4.543   8.718  0.0895 -0.4088 -0.3443
13669SOL    HW142448   4.737   4.575   8.754  0.0873 -0.1892 -0.5328
13669SOL    HW242449   4.589   4.562   8.787  0.2563 -0.9195 -0.0432
13670SOL     OW42450   1.631   1.747   7.394  0.3218  0.7204  0.3030
13670SOL    HW142451   1.641   1.765   7.301  1.1996  1.4390  0.5160
13670SOL    HW242452   1.539   1.722   7.405  0.4235 -0.2172 -0.8817
13671SOL     OW42453   5.467   3.934   2.212  0.0679 -0.3694 -0.4278
13671SOL    HW142454   5.408   3.942   2.137  0.1088 -1.5717 -0.6063
13671SOL    HW242455   5.552   3.962   2.179 -0.3374  1.1729 -0.2263
13672SOL     OW42456   5.105   1.006  10.975 -0.2779  0.0174  0.0057
13672SOL    HW142457   5.053   0.932  11.008  0.7564 -0.2193  1.2024
13672SOL    HW242458   5.050   1.082  10.989 -0.5245 -0.2920  0.7671
13673SOL     OW42459   4.614   5.644   9.376 -0.1021  0.3314  0.3056
13673SOL    HW142460   4.660   5.563   9.399 -1.2803 -0.1940  0.8815
13673SOL    HW242461   4.525   5.616   9.353 -0.6045  1.4769  0.7770
13674SOL     OW42462   5.157   1.676  11.857  0.5353  0.1421 -0.8787
13674SOL    HW142463   5.132   1.634  11.940 -0.5823  0.8124 -0.8447
13674SOL    HW242464   5.230   1.624  11.824  0.1326 -0.9371 -0.1240
13675SOL     OW42465   4.847   0.566  10.944  0.3435  0.4628 -1.0018
13675SOL    HW142466   4.912   0.523  10.999  0.9949  0.8976 -1.4116
13675SOL    HW242467   4.763   0.538  10.979  0.7520 -0.2882 -0.5986
13676SOL     OW42468   1.789   7.485   0.990  0.0034 -0.1169  0.5861
13676SOL    HW142469   1.791   7.441   1.076 -1.0946 -0.0714  0.6611
13676SOL    HW242470   1.719   7.550   0.999 -1.0784 -1.0294 -0.7495
13677SOL     OW42471   4.124   0.046  12.108 -0.0822  0.2564 -0.8992
13677SOL    HW142472   4.035   0.060  12.078  0.1393  0.6255 -1.3968
13677SOL    HW242473   4.127  -0.046  12.132 -0.3637  0.0334 -1.6915
13678SOL     OW42474   2.481   4.397  11.462 -0.0724 -0.1654  0.2219
13678SOL    HW142475   2.499   4.345  11.383 -0.7434 -1.0204  0.6135
13678SOL    HW242476   2.568   4.427  11.491  0.4601 -1.8899  0.5249
13679SOL     OW42477   5.760   1.715   1.855  0.3530  0.1414  0.3954
13679SOL    HW142478   5.799   1.792   1.895 -1.0358  1.1806 -0.1570
13679SOL    HW242479   5.679   1.747   1.816 -0.4458 -1.6729  0.4561
13680SOL     OW42480   5.795   0.856  10.781 -0.4434  0.1582 -0.3262
13680SOL    HW142481   5.823   0.789  10.719  0.0598 -0.7428  0.8464
13680SOL    HW242482   5.748   0.920  10.728  0.0655 -0.5378 -1.6466
13681SOL     OW42483   5.913   4.277   9.053 -0.7117 -0.2863 -0.1633
13681SOL    HW142484   5.883   4.241   8.969  2.1670 -1.1549 -0.9489
13681SOL    HW242485   5.974   4.346   9.028 -0.6425  0.1863  1.2619
13682SOL     OW42486   4.684   7.380   6.768 -0.2663 -0.6197 -0.5907
13682SOL    HW142487   4.644   7.459   6.731  0.1948 -0.5257 -0.8904
13682SOL    HW242488   4.755   7.413   6.823 -1.6976 -0.6760  1.3883
13683SOL     OW42489   0.001   2.921   3.916  0.2732  0.2572 -0.2587
13683SOL    HW142490   0.035   2.926   3.827  0.0861 -1.7391 -0.4815
13683SOL    HW242491   0.060   2.861   3.962 -1.5084 -1.3885 -0.0037
13684SOL     OW42492   1.053   5.496   1.857 -0.3116 -0.5927 -0.2002
13684SOL    HW142493   0.996   5.434   1.812 -2.2406  1.2124 -0.4219
13684SOL    HW242494   1.002   5.577   1.860  2.8283  1.7016 -1.8786
13685SOL     OW42495   4.899   1.156   0.540 -0.0736 -0.0040 -0.5157
13685SOL    HW142496   4.807   1.182   0.542  0.3323  1.5177  0.4796
13685SOL    HW242497   4.933   1.194   0.459 -0.6960 -2.1368 -1.8466
13686SOL     OW42498   3.933   5.207   3.056 -0.0824  0.0612 -0.1769
13686SOL    HW142499   3.974   5.288   3.085  1.1021 -0.1300 -1.2174
13686SOL    HW242500   3.954   5.143   3.124  0.0801  0.3235  0.0163
13687SOL     OW42501   4.664   7.508   4.143 -0.0540  0.0060 -0.5241
13687SOL    HW142502   4.650   7.595   4.106 -1.5422 -0.0303 -0.1222
13687SOL    HW242503   4.600   7.453   4.099 -1.1321 -0.2539  1.2708
13688SOL     OW42504   1.516   7.260   9.572  0.4179 -0.2193 -0.2627
13688SOL    HW142505   1.451   7.197   9.602  0.7695 -0.2165  0.5389
13688SOL    HW242506   1.592   7.244   9.628  0.8368  0.2993 -0.6689
13689SOL     OW42507   2.388   4.053   8.661 -0.2369 -0.3120 -0.5092
13689SOL    HW142508   2.340   4.129   8.696  0.5461  0.3159 -0.7621
13689SOL    HW242509   2.400   3.996   8.737 -1.5356 -0.5704 -0.4805
13690SOL     OW42510   7.698   5.588   6.218 -0.5201  0.1176  0.1564
13690SOL    HW142511   7.631   5.643   6.178  0.3225 -0.4847 -2.2963
13690SOL    HW242512   7.780   5.637   6.206 -0.1428 -0.3985  0.5440
13691SOL     OW42513   3.072   6.036   2.450  0.3245  0.6063  0.4707
13691SOL    HW142514   3.152   6.086   2.434  0.5659  0.3083  0.7370
13691SOL    HW242515   3.001   6.092   2.419  0.7547  0.1655 -1.4327
13692SOL     OW42516   1.840   7.920   6.378  0.6209 -0.1657  0.1205
13692SOL    HW142517   1.852   8.001   6.328 -0.5417  1.1404  1.8538
13692SOL    HW242518   1.746   7.919   6.399  1.0374 -0.7626  2.1020
13693SOL     OW42519   7.319   1.751   8.014  0.8111 -0.1307  0.3989
13693SOL    HW142520   7.410   1.734   7.988  1.0533  0.7979  0.6151
13693SOL    HW242521   7.285   1.665   8.039  1.3223 -0.6475 -0.6260
13694SOL     OW42522   7.326   6.287   0.066  0.2070 -0.0888  0.1967
13694SOL    HW142523   7.360   6.334  -0.010  0.8839  0.7936  1.0260
13694SOL    HW242524   7.248   6.241   0.033  0.0556  0.8774 -0.8467
13695SOL     OW42525   3.289   7.368   0.958 -0.3650 -0.3496 -0.0001
13695SOL    HW142526   3.320   7.441   0.904  0.1076 -0.8420 -0.4010
13695SOL    HW242527   3.256   7.410   1.038 -1.5909  0.4433 -0.8780
13696SOL     OW42528   3.171   0.043   9.330 -0.0725  0.1589  0.0954
13696SOL    HW142529   3.172  -0.036   9.276  0.2320  0.7734 -0.8330
13696SOL    HW242530   3.236   0.026   9.398 -0.5875 -0.7035  0.3941
13697SOL     OW42531   0.661   3.950   1.908 -0.0150 -0.3079 -0.2719
13697SOL    HW142532   0.690   4.031   1.865 -0.2608  0.3147  0.7035
13697SOL    HW242533   0.605   3.907   1.842 -0.2491  0.5362 -0.6427
13698SOL     OW42534   5.281   6.477   8.286  0.2441  0.2094 -0.2371
13698SOL    HW142535   5.326   6.394   8.270  1.6586  0.9420 -0.2899
13698SOL    HW242536   5.352   6.542   8.288 -0.6121  1.1625  1.7009
13699SOL     OW42537   0.832   6.001   3.309  0.1017 -0.0446 -0.0662
13699SOL    HW142538   0.760   5.940   3.292 -1.6151  1.7024  0.4378
13699SOL    HW242539   0.835   6.007   3.405  0.9403 -0.1218 -0.0888
13700SOL     OW42540   7.878   3.223   9.051  0.5271  0.5580  0.0902
13700SOL    HW142541   7.932   3.236   9.128  0.2536  0.8736  0.2299
13700SOL    HW242542   7.792   3.200   9.086  0.8994 -1.3655 -0.1243
13701SOL     OW42543   7.041   6.036   9.767  0.8488 -0.1434  0.5297
13701SOL    HW142544   7.108   6.094   9.732  1.2137 -2.4803 -3.1459
13701SOL    HW242545   6.958   6.080   9.749  1.1958  0.3968  0.2350
13702SOL     OW42546   0.308   3.222   8.515 -0.1006 -0.0902 -0.5395
13702SOL    HW142547   0.337   3.311   8.496 -0.8340  0.1982 -0.3355
13702SOL    HW242548   0.358   3.197   8.593 -0.0955  0.2386 -0.4376
13703SOL     OW42549   6.919   7.082   6.440  0.4798  0.2218  0.2638
13703SOL    HW142550   6.924   7.161   6.387  1.6933  0.5391  0.8119
13703SOL    HW242551   6.950   7.012   6.383 -0.1268  0.2184 -0.0668
13704SOL     OW42552   4.136   5.745   4.385 -0.2142  0.0447  0.3886
13704SOL    HW142553   4.145   5.786   4.299  0.3314 -0.7694  0.0466
13704SOL    HW242554   4.057   5.784   4.423 -1.7803 -1.2131 -1.4036
13705SOL     OW42555   4.013   4.271   4.871  0.1332 -0.0223 -0.1509
13705SOL    HW142556   4.083   4.211   4.895  0.0113 -0.2021 -0.2397
13705SOL    HW242557   3.933   4.220   4.882  0.0048  0.2341  0.1133
13706SOL     OW42558   1.366   2.097   7.047 -0.1839  0.4092 -0.1438
13706SOL    HW142559   1.287   2.113   6.996  0.3373  1.6798 -0.5957
13706SOL    HW242560   1.437   2.138   6.996  0.5961  0.2664  0.7866
13707SOL     OW42561   7.950   5.631   1.433 -0.1384  0.2153  0.2188
13707SOL    HW142562   8.036   5.600   1.460  0.8814  1.4271 -1.4495
13707SOL    HW242563   7.906   5.554   1.397 -0.1250 -0.5879  1.7905
13708SOL     OW42564   4.199   1.543   6.064  0.2131 -0.4825  0.3204
13708SOL    HW142565   4.111   1.571   6.089 -0.1379 -0.9134 -0.4000
13708SOL    HW242566   4.253   1.621   6.074 -0.4334  0.0302 -0.1353
13709SOL     OW42567   3.136   4.114   3.846 -0.5490 -0.1725  0.8776
13709SOL    HW142568   3.110   4.047   3.783 -0.2874  0.3194  0.2208
13709SOL    HW242569   3.073   4.185   3.833 -1.3777 -0.6531  2.2120
13710SOL     OW42570   4.996   2.909  10.943  0.3556 -0.0950  0.3033
13710SOL    HW142571   4.972   2.931  10.853  0.2700 -0.3659  0.2581
13710SOL    HW242572   4.982   2.815  10.949  1.8049 -0.3334  0.1615
13711SOL     OW42573   1.950   1.190   1.734 -0.0395  0.1462 -0.4159
13711SOL    HW142574   1.895   1.112   1.748  2.4344 -2.0032 -1.7833
13711SOL    HW242575   1.936   1.243   1.812 -1.0377 -2.1686  1.1100
13712SOL     OW42576   0.802   4.990   0.507  0.1406 -0.0468 -0.5290
13712SOL    HW142577   0.875   4.934   0.484  0.2804  0.2376 -0.7880
13712SOL    HW242578   0.838   5.078   0.508 -0.0563  0.0319 -0.0380
13713SOL     OW42579   7.233   4.677  10.069 -0.2324  0.6792  0.2171
13713SOL    HW142580   7.179   4.655  10.145  0.7728  1.1370  1.0817
13713SOL    HW242581   7.171   4.682   9.996 -1.1176 -0.4432  0.8648
13714SOL     OW42582   0.507   3.581   7.161  0.2577  0.5511 -0.5337
13714SOL    HW142583   0.543   3.579   7.072 -1.2115 -0.0880 -1.1360
13714SOL    HW242584   0.584   3.574   7.218  1.3315  2.1591 -1.7015
13715SOL     OW42585   0.794   6.860   8.961 -0.1283  0.3685 -0.1404
13715SOL    HW142586   0.778   6.773   8.925  0.8109  0.1117  0.0191
13715SOL    HW242587   0.788   6.847   9.056  0.9407  0.2535 -0.0719
13716SOL     OW42588   0.430   7.053   9.800  0.0379 -0.1242 -0.0905
13716SOL    HW142589   0.513   7.058   9.751  0.9694 -0.1662  1.4120
13716SOL    HW242590   0.383   7.133   9.775  1.9858  1.6589  1.4550
13717SOL     OW42591   6.404   2.678   5.550 -0.3896  0.7028 -0.9795
13717SOL    HW142592   6.343   2.608   5.527 -0.7168  1.2717 -1.8509
13717SOL    HW242593   6.481   2.632   5.584 -0.8378 -0.0557 -0.9745
13718SOL     OW42594   0.242   7.417  10.556 -0.0380  0.4210 -0.0222
13718SOL    HW142595   0.298   7.354  10.602  0.6860  0.3739 -0.9338
13718SOL    HW242596   0.197   7.365  10.490 -0.1627  0.6959 -0.1542
13719SOL     OW42597   0.747   3.689   9.060 -0.4252 -0.3409  0.5420
13719SOL    HW142598   0.755   3.784   9.053  1.3272 -0.4317  0.9862
13719SOL    HW242599   0.828   3.660   9.101 -1.2179 -1.9795  1.0670
13720SOL     OW42600   3.452   2.592   8.035 -0.1332 -0.3122  0.3845
13720SOL    HW142601   3.534   2.642   8.037 -1.2853  1.7139  0.3633
13720SOL    HW242602   3.440   2.561   8.124  0.8472 -1.0165  0.2902
13721SOL     OW42603   1.711   2.499   9.726  0.2467 -0.1669 -0.1600
13721SOL    HW142604   1.694   2.443   9.802  2.1900 -1.5734 -0.6945
13721SOL    HW242605   1.626   2.508   9.683 -0.3291 -1.7512  0.5954
13722SOL     OW42606   0.207   2.441   5.404 -0.2346 -0.0488  0.2446
13722SOL    HW142607   0.187   2.530   5.433  0.8584 -0.5385  2.8051
13722SOL    HW242608   0.283   2.451   5.346 -0.8587  0.7561 -0.4659
13723SOL     OW42609   7.144   1.674   5.988 -0.0311  0.2203  0.3949
13723SOL    HW142610   7.110   1.697   6.074  1.3517  0.8768  0.7887
13723SOL    HW242611   7.219   1.732   5.975  0.0873 -0.2050 -1.0476
13724SOL     OW42612   4.675   1.400   2.764 -0.1324  0.2509 -0.1604
13724SOL    HW142613   4.766   1.378   2.743 -0.1303  0.8633 -0.8505
13724SOL    HW242614   4.680   1.487   2.804 -0.4374  0.4323 -0.5044
13725SOL     OW42615   1.457   4.815   8.536  0.7637  0.4924 -0.2812
13725SOL    HW142616   1.391   4.799   8.469  0.7982  1.8426 -0.6519
13725SOL    HW242617   1.507   4.890   8.505  1.4506  0.5050  0.7695
13726SOL     OW42618   0.412   7.762   5.062 -0.0346 -0.0812  0.6741
13726SOL    HW142619   0.375   7.834   5.012 -2.0597  0.7048  3.0864
13726SOL    HW242620   0.457   7.804   5.135  0.3273 -1.2304  1.1390
13727SOL     OW42621   6.400   1.222   7.581  0.2293 -0.2860 -0.7354
13727SOL    HW142622   6.437   1.262   7.660  0.2876  1.6860 -1.7001
13727SOL    HW242623   6.306   1.226   7.594  0.2605 -0.8064 -0.3643
13728SOL     OW42624   1.686   4.540   2.660 -0.2418  0.4966  0.3046
13728SOL    HW142625   1.644   4.623   2.683  1.0741  1.4660 -0.6130
13728SOL    HW242626   1.766   4.566   2.614 -1.3000 -1.2398 -2.8084
13729SOL     OW42627   6.115   6.648   1.755 -0.0614  0.8531 -0.5164
13729SOL    HW142628   6.171   6.650   1.677 -0.3960  1.5051 -0.7435
13729SOL    HW242629   6.065   6.729   1.751 -0.7243  0.4736 -0.0918
13730SOL     OW42630   0.072   6.884   0.126  0.1540  0.5212  0.5190
13730SOL    HW142631   0.071   6.849   0.037 -0.2065  0.9704  0.3372
13730SOL    HW242632  -0.020   6.905   0.143  0.2111  0.3541  1.0325
13731SOL     OW42633   1.163   5.004  12.424  0.0651  0.2943 -0.2233
13731SOL    HW142634   1.245   5.038  12.459 -0.4955  0.5119  0.9040
13731SOL    HW242635   1.103   5.079  12.427 -0.2680  0.0586 -0.7649
13732SOL     OW42636   6.734   1.210   4.797 -0.4682 -0.6677  0.2585
13732SOL    HW142637   6.658   1.262   4.823  0.7049  0.4926  1.4670
13732SOL    HW242638   6.781   1.193   4.879  0.3955 -1.6876 -0.4197
13733SOL     OW42639   0.390   3.952  11.326  0.0309 -0.0524  0.1438
13733SOL    HW142640   0.425   3.865  11.346 -1.7134 -0.9876 -0.6071
13733SOL    HW242641   0.295   3.942  11.334 -0.1676  2.2817  1.8584
13734SOL     OW42642   5.773   6.628  10.566 -0.1777 -0.5667 -0.2530
13734SOL    HW142643   5.724   6.646  10.646 -0.1563 -1.8197  0.0630
13734SOL    HW242644   5.759   6.705  10.511 -0.1421  0.3491  0.9748
13735SOL     OW42645   2.999   3.888   0.050 -0.0916 -0.2968  0.9329
13735SOL    HW142646   2.939   3.926   0.114  0.1557  0.2613  0.8413
13735SOL    HW242647   3.053   3.961   0.022  0.0074 -0.5989  0.3125
13736SOL     OW42648   2.764   6.525  10.702  0.0898 -0.0309  0.3250
13736SOL    HW142649   2.671   6.544  10.711  0.3133  0.8826  0.8219
13736SOL    HW242650   2.773   6.434  10.729 -0.5299  0.1334  1.1144
13737SOL     OW42651   4.787   7.527   0.013 -0.0524 -0.0759  0.0270
13737SOL    HW142652   4.828   7.480  -0.059  2.4494  1.1896  0.4991
13737SOL    HW242653   4.745   7.603  -0.028  2.4810  1.3710 -0.1188
13738SOL     OW42654   3.790   2.761   4.550  0.6594 -0.7536 -0.3075
13738SOL    HW142655   3.759   2.788   4.636  0.5271 -0.4009 -0.4670
13738SOL    HW242656   3.727   2.695   4.521 -0.0784  0.1216 -0.7311
13739SOL     OW42657   5.711   2.014  10.967 -0.5394 -0.2988 -0.5705
13739SOL    HW142658   5.711   2.022  11.062 -0.8196 -0.1623 -0.5823
13739SOL    HW242659   5.723   1.920  10.951 -1.8887 -0.5185 -0.3892
13740SOL     OW42660   7.719   7.564   0.317  0.3434  0.2745  0.1533
13740SOL    HW142661   7.743   7.523   0.233  0.9996  0.1966  0.3712
13740SOL    HW242662   7.652   7.628   0.294 -0.7095 -0.9090 -0.1995
13741SOL     OW42663   6.622   4.235  11.054 -0.4464  0.4492 -0.6065
13741SOL    HW142664   6.556   4.250  11.122 -0.4742 -1.7432 -0.0442
13741SOL    HW242665   6.665   4.319  11.042 -1.9035  1.4071  0.5783
13742SOL     OW42666   7.927   5.037  11.514  0.5110 -0.6004 -0.1625
13742SOL    HW142667   7.915   5.074  11.601  2.0026 -0.5795  0.0642
13742SOL    HW242668   7.882   4.953  11.517  0.7968 -0.7339  0.7458
13743SOL     OW42669   0.593   1.989   6.620 -0.0455 -0.2327 -0.2188
13743SOL    HW142670   0.560   2.041   6.546  1.6080  1.9702  0.4806
13743SOL    HW242671   0.529   2.005   6.690 -0.2592 -0.2211 -0.4143
13744SOL     OW42672   4.438   1.745  10.217 -0.5457 -0.6172  0.5205
13744SOL    HW142673   4.346   1.733  10.196 -0.6479  0.0169  0.5809
13744SOL    HW242674   4.438   1.784  10.305 -0.3018  1.0149 -0.1598
13745SOL     OW42675   3.361   5.644   3.028 -0.0043 -0.7688  0.1690
13745SOL    HW142676   3.346   5.726   2.981 -1.6733 -1.9487 -1.4950
13745SOL    HW242677   3.313   5.655   3.111 -1.8726 -0.7340 -0.8590
13746SOL     OW42678   2.919   3.670   5.807 -0.1007 -0.4808 -0.3710
13746SOL    HW142679   2.947   3.579   5.815  0.1945 -0.5555 -1.8791
13746SOL    HW242680   2.967   3.716   5.876 -0.2792 -1.4589  0.4241
13747SOL     OW42681   6.714   3.289   9.155  0.9963  0.4256  0.1840
13747SOL    HW142682   6.687   3.199   9.175  0.8587  0.6446  1.0194
13747SOL    HW242683   6.633   3.334   9.132  1.0002  0.4455  0.2088
13748SOL     OW42684   1.436   1.122   0.064  0.1255 -0.3410 -0.1088
13748SOL    HW142685   1.482   1.150   0.144 -0.2031 -1.0050  0.3267
13748SOL    HW242686   1.389   1.043   0.091 -1.7818  0.6426 -0.3549
13749SOL     OW42687   6.199   4.552   5.612 -0.4846 -0.0032  0.3021
13749SOL    HW142688   6.266   4.523   5.551 -0.9700 -0.9578  0.2092
13749SOL    HW242689   6.180   4.475   5.666 -1.3608  0.3081  0.4600
13750SOL     OW42690   6.552   7.030   7.033 -0.5475  1.0520  0.1041
13750SOL    HW142691   6.523   6.992   6.950  0.5138  0.4723 -0.0129
13750SOL    HW242692   6.645   7.050   7.020 -0.5813  1.7753  0.8641
13751SOL     OW42693   5.741   6.258   8.371 -0.2097 -0.2315  0.0139
13751SOL    HW142694   5.829   6.221   8.377 -1.0176 -2.3177 -0.2688
13751SOL    HW242695   5.696   6.202   8.308 -1.1425  2.1062 -1.5697
13752SOL     OW42696   1.478   6.651  11.341  0.2272  0.4169 -0.0753
13752SOL    HW142697   1.479   6.738  11.381 -0.9190 -0.6678  2.5661
13752SOL    HW242698   1.385   6.629  11.335  0.4792 -0.3985 -1.2809
13753SOL     OW42699   3.195   5.378  12.068  0.0093 -0.5530  0.6435
13753SOL    HW142700   3.274   5.406  12.116  0.5453 -0.1337 -0.4548
13753SOL    HW242701   3.149   5.460  12.049  1.0591 -0.4003 -1.6714
13754SOL     OW42702   0.948   2.003   4.995  0.1204 -0.4372  0.0080
13754SOL    HW142703   1.014   2.073   4.994  1.2871 -1.4483  1.2372
13754SOL    HW242704   0.944   1.972   4.905 -0.7837  1.4903 -0.6795
13755SOL     OW42705   7.601   5.920   2.867 -1.2316 -0.1460  0.7010
13755SOL    HW142706   7.684   5.871   2.865 -1.0254  0.1880  0.9026
13755SOL    HW242707   7.580   5.926   2.960 -1.3804 -0.0588  0.6611
13756SOL     OW42708   0.571   1.392   8.411 -0.7756  0.1089 -0.2476
13756SOL    HW142709   0.614   1.366   8.330  0.6416  0.7614  0.2449
13756SOL    HW242710   0.506   1.325   8.427  1.1978 -1.9073 -0.1895
13757SOL     OW42711   7.914   1.512  10.137 -0.0247 -0.2415  0.5608
13757SOL    HW142712   7.834   1.558  10.164 -0.2763 -0.6380  0.5015
13757SOL    HW242713   7.965   1.504  10.218 -0.2810 -0.4514  0.7025
13758SOL     OW42714   5.500   0.857   5.490 -0.6799 -0.0228  0.1069
13758SOL    HW142715   5.456   0.880   5.408 -0.4030 -0.3527 -0.1356
13758SOL    HW242716   5.487   0.763   5.499  0.1757 -0.1673 -0.0891
13759SOL     OW42717   1.766   3.312   4.885 -0.3381 -0.1021 -0.0359
13759SOL    HW142718   1.739   3.404   4.879  1.4065  0.4036 -0.7741
13759SOL    HW242719   1.838   3.304   4.823  0.5027 -1.6172  1.0681
13760SOL     OW42720   2.720   3.252   4.723  0.1543 -0.3900  0.0175
13760SOL    HW142721   2.723   3.169   4.676 -2.1712 -0.2398 -0.4953
13760SOL    HW242722   2.661   3.308   4.672  1.8920  1.7354  0.1689
13761SOL     OW42723   2.558   7.376   0.322 -0.0122 -0.1696  0.3420
13761SOL    HW142724   2.566   7.354   0.415 -2.0222  2.1808  1.1917
13761SOL    HW242725   2.644   7.411   0.298  1.2613 -2.8579  0.5996
13762SOL     OW42726   7.559   0.866   3.096 -0.4906 -0.3520  0.7945
13762SOL    HW142727   7.468   0.857   3.070 -0.1288 -0.0886 -0.6541
13762SOL    HW242728   7.609   0.840   3.019  0.6184  3.1894  0.1020
13763SOL     OW42729   5.522   6.166   3.160 -0.1597 -0.0107  0.3523
13763SOL    HW142730   5.591   6.117   3.116 -1.4025  0.7502 -2.6487
13763SOL    HW242731   5.475   6.101   3.212  0.4735 -1.2802 -0.6284
13764SOL     OW42732   1.586   2.603   3.412  0.1645 -0.2398  0.2059
13764SOL    HW142733   1.669   2.603   3.460  0.0159  0.4639  0.4823
13764SOL    HW242734   1.589   2.682   3.358  0.5484 -1.3050 -1.3595
13765SOL     OW42735   4.488   7.123  11.776  0.3072  0.1368 -0.7207
13765SOL    HW142736   4.541   7.046  11.755  0.9595  0.7011 -1.1888
13765SOL    HW242737   4.495   7.132  11.871  1.7275  0.6744 -0.8563
13766SOL     OW42738   6.673   5.288   2.976  0.6744 -0.1249 -0.1613
13766SOL    HW142739   6.616   5.258   3.047  1.0986  0.2062  0.3299
13766SOL    HW242740   6.613   5.307   2.904  0.1087  0.6142  0.4825
13767SOL     OW42741   5.217   7.531  12.146 -0.8724  0.1142 -0.0227
13767SOL    HW142742   5.135   7.526  12.097 -0.6348 -1.4529 -0.3077
13767SOL    HW242743   5.190   7.530  12.238 -1.1677 -0.9015 -0.1105
13768SOL     OW42744   6.560   0.455  11.986 -0.1657 -0.1117  0.4955
13768SOL    HW142745   6.567   0.550  11.995  0.4755 -0.1339  0.2767
13768SOL    HW242746   6.587   0.437  11.896  0.8716 -0.6122  0.8917
13769SOL     OW42747   5.731   0.637   7.281  0.0239 -0.5038  0.1616
13769SOL    HW142748   5.816   0.638   7.324  0.8566  3.6340 -1.0794
13769SOL    HW242749   5.748   0.595   7.196  0.8788  0.2137 -0.0441
13770SOL     OW42750   6.524   5.938   5.032  0.2448 -0.1424 -0.2718
13770SOL    HW142751   6.614   5.929   5.066 -0.3810  0.9167  1.9050
13770SOL    HW242752   6.473   5.875   5.084 -0.3676 -0.3532 -1.1191
13771SOL     OW42753   2.025   4.807   4.479 -0.1245  0.8428  0.3734
13771SOL    HW142754   2.105   4.835   4.525  0.3698 -0.7711  0.5935
13771SOL    HW242755   2.056   4.743   4.415 -1.2708 -0.0871  0.7125
13772SOL     OW42756   4.869   7.346  10.331 -0.1275 -0.6053 -0.1823
13772SOL    HW142757   4.845   7.432  10.295 -0.7237 -0.8762 -0.4505
13772SOL    HW242758   4.853   7.354  10.425  1.8255  0.2380  0.1329
13773SOL     OW42759   1.077   4.996   4.205  0.4522  0.2757  0.1315
13773SOL    HW142760   1.126   5.036   4.133  0.2821  0.6733  0.2343
13773SOL    HW242761   1.004   4.950   4.162  2.1212 -2.2367 -0.2365
13774SOL     OW42762   4.588   7.732   8.590  0.0386  0.7459 -0.2029
13774SOL    HW142763   4.572   7.763   8.679 -1.5075 -2.1797  0.6911
13774SOL    HW242764   4.676   7.693   8.593 -0.2284  0.1570  0.2424
13775SOL     OW42765   0.861   7.260   1.148 -0.2439 -0.0379 -0.0041
13775SOL    HW142766   0.901   7.196   1.207  0.9957  1.9131  1.4174
13775SOL    HW242767   0.915   7.257   1.069 -1.9409 -2.7026 -1.2088
13776SOL     OW42768   2.370   7.528   6.285 -0.2692  0.4531 -0.0521
13776SOL    HW142769   2.431   7.474   6.235  2.3205  2.3695  0.8041
13776SOL    HW242770   2.317   7.573   6.219  0.1811 -0.1885 -0.8681
13777SOL     OW42771   1.308   0.920   7.024 -0.0864 -0.2869  0.7309
13777SOL    HW142772   1.403   0.936   7.025 -0.1697  0.2568  0.4454
13777SOL    HW242773   1.298   0.836   7.068  0.7388 -1.4368 -1.1533
13778SOL     OW42774   2.529   1.637  11.726 -0.1337 -0.2148 -0.4520
13778SOL    HW142775   2.454   1.693  11.749  0.3732  0.7299 -1.0020
13778SOL    HW242776   2.604   1.680  11.768  0.5037  0.4361 -2.1463
13779SOL     OW42777   2.970   4.464   6.458  0.5243 -0.0437  0.4285
13779SOL    HW142778   3.052   4.428   6.427  1.3742  0.1874  2.2809
13779SOL    HW242779   2.992   4.553   6.488 -0.3931  0.0459  0.8968
13780SOL     OW42780   6.055   5.771   3.149 -0.3180  0.0138  0.4148
13780SOL    HW142781   5.976   5.719   3.164 -0.8001  0.9791  1.4172
13780SOL    HW242782   6.126   5.707   3.145 -1.1256 -0.8508 -0.2995
13781SOL     OW42783   6.067   5.030   1.601 -0.3333 -0.0724  0.0942
13781SOL    HW142784   6.101   5.025   1.690 -0.0242 -0.8831 -0.0694
13781SOL    HW242785   5.972   5.036   1.613 -0.3129 -0.4285  0.4759
13782SOL     OW42786   1.888   5.333   6.607  0.2422  0.2392 -0.8888
13782SOL    HW142787   1.839   5.279   6.544  0.4176 -0.8148 -0.1453
13782SOL    HW242788   1.958   5.275   6.638  0.4946  0.9387 -0.1376
13783SOL     OW42789   5.926   3.456  11.908  0.5851  0.7190  0.7775
13783SOL    HW142790   6.019   3.458  11.932  1.0761 -1.2990 -0.7038
13783SOL    HW242791   5.902   3.364  11.911 -0.7406  0.9423 -0.9998
13784SOL     OW42792   3.588   2.605   3.595  0.5042  0.7961 -0.2383
13784SOL    HW142793   3.681   2.626   3.609  0.3499  2.1350 -1.0388
13784SOL    HW242794   3.581   2.591   3.501 -0.5190  3.1999 -0.6046
13785SOL     OW42795   4.793   1.126   8.062 -0.7483  0.1773  0.4770
13785SOL    HW142796   4.711   1.077   8.074  0.7753 -2.2547  1.7898
13785SOL    HW242797   4.793   1.191   8.132 -2.8396  2.2883 -1.3244
13786SOL     OW42798   1.624   3.066   3.482 -0.0970 -0.0267 -0.5908
13786SOL    HW142799   1.716   3.083   3.502 -0.1661  0.9455 -1.0355
13786SOL    HW242800   1.576   3.104   3.556 -0.1962  0.7577 -1.0414
13787SOL     OW42801   0.428   0.785  11.036  0.3302  1.0725 -0.0519
13787SOL    HW142802   0.379   0.815  10.959 -0.9712 -1.1944 -0.1989
13787SOL    HW242803   0.372   0.806  11.110  0.6234  1.3559  0.0931
13788SOL     OW42804   7.738   7.888  10.819  0.2953 -0.0065  0.0843
13788SOL    HW142805   7.686   7.875  10.899 -0.9024  0.5544 -0.5728
13788SOL    HW242806   7.694   7.834  10.753  1.1866 -0.3515 -0.2409
13789SOL     OW42807   4.618   4.058   4.375 -0.3097 -0.1044  0.0520
13789SOL    HW142808   4.649   4.144   4.401  2.3754 -1.7115  2.8113
13789SOL    HW242809   4.534   4.047   4.418  0.3823  0.3456  1.5609
13790SOL     OW42810   6.403   0.169   7.840 -0.4248 -0.1351 -0.2486
13790SOL    HW142811   6.377   0.172   7.932  0.8169 -0.1719  0.1219
13790SOL    HW242812   6.364   0.248   7.802 -0.2283  0.3316  0.5047
13791SOL     OW42813   3.924   6.320   8.472 -0.1437 -0.0768  0.1230
13791SOL    HW142814   3.872   6.386   8.426  0.1798 -0.0522 -0.2074
13791SOL    HW242815   3.866   6.244   8.477 -0.0279 -0.2223 -0.7006
13792SOL     OW42816   4.916   7.202  10.064 -0.2517  0.5039 -0.0152
13792SOL    HW142817   4.893   7.278  10.118  0.1724  0.6356 -0.0186
13792SOL    HW242818   4.833   7.175  10.024 -0.1691  1.8744 -1.1789
13793SOL     OW42819   6.695   3.235  11.368 -0.0196 -0.0760 -0.7903
13793SOL    HW142820   6.771   3.180  11.389 -1.5813 -2.2100 -0.3492
13793SOL    HW242821   6.656   3.193  11.291 -3.0749 -1.6978  1.4300
13794SOL     OW42822   1.304   5.951   3.996 -0.0017  0.0801  0.4253
13794SOL    HW142823   1.267   5.967   3.909  1.3951  3.4158  0.2959
13794SOL    HW242824   1.391   5.917   3.979 -0.5257 -1.3995  0.6047
13795SOL     OW42825   0.788   6.207   0.243 -0.3902 -0.0140 -0.0412
13795SOL    HW142826   0.721   6.149   0.277 -0.1595 -0.3983 -0.2294
13795SOL    HW242827   0.867   6.153   0.239  1.2779  1.5940  4.7005
13796SOL     OW42828   7.536   0.429   3.239 -0.0267 -0.8262 -0.7721
13796SOL    HW142829   7.577   0.438   3.153  1.5035  0.6665  0.0568
13796SOL    HW242830   7.584   0.357   3.281  1.1941  0.3242 -0.1397
13797SOL     OW42831   2.383   0.874   1.794 -0.4292  0.3410 -0.2604
13797SOL    HW142832   2.446   0.946   1.788 -0.5174  0.2911 -2.4949
13797SOL    HW242833   2.363   0.868   1.887  2.0310  1.0742  0.3861
13798SOL     OW42834   2.387   3.330   6.991 -0.0912 -0.4285  0.0160
13798SOL    HW142835   2.363   3.400   6.930  0.1358 -0.0513  0.3553
13798SOL    HW242836   2.303   3.291   7.016 -0.2428 -0.0915  0.0471
13799SOL     OW42837   1.399   7.822  11.700 -0.4219  0.3172 -0.1992
13799SOL    HW142838   1.306   7.801  11.708 -0.0237 -0.9122  2.0000
13799SOL    HW242839   1.433   7.814  11.789  1.6147  1.7037 -0.7843
13800SOL     OW42840   4.054   3.033   9.090 -0.1774 -0.2359 -0.3079
13800SOL    HW142841   4.028   2.942   9.074  0.6327 -0.6332  0.5563
13800SOL    HW242842   4.101   3.031   9.173  0.3810  0.8757 -0.5729
13801SOL     OW42843   0.748   2.405   9.836 -0.2142  0.2177 -0.1698
13801SOL    HW142844   0.761   2.351   9.758  0.9854  1.7855 -1.1142
13801SOL    HW242845   0.830   2.398   9.883 -1.4150 -1.9131  1.8391
13802SOL     OW42846   5.400   4.281   9.784 -0.1513 -0.0852 -0.3315
13802SOL    HW142847   5.390   4.192   9.819  0.3500  0.6389  1.8118
13802SOL    HW242848   5.351   4.280   9.702 -1.2399 -1.9745  0.2770
13803SOL     OW42849   5.678   5.461   2.503  0.4398  0.7124  0.3213
13803SOL    HW142850   5.759   5.510   2.488 -0.3151  2.0326  0.3200
13803SOL    HW242851   5.705   5.380   2.546  1.8290  0.7372 -0.4472
13804SOL     OW42852   2.508   3.013   6.131 -0.0005  0.1935  0.5764
13804SOL    HW142853   2.491   2.999   6.037 -0.1973  0.7675  0.5235
13804SOL    HW242854   2.468   2.938   6.174  0.2621 -0.1775  0.1870
13805SOL     OW42855   4.209   5.892   4.151 -0.4667 -0.1489 -0.0018
13805SOL    HW142856   4.273   5.893   4.080  3.5815 -0.7035  3.2801
13805SOL    HW242857   4.166   5.978   4.146  2.4519  1.3961 -0.9493
13806SOL     OW42858   0.190   0.293   8.060  0.1006  0.1710 -0.3131
13806SOL    HW142859   0.266   0.236   8.052  0.2535  0.5000 -1.2487
13806SOL    HW242860   0.154   0.272   8.146  0.7204 -0.6329 -0.2381
13807SOL     OW42861   0.259   2.826  11.790 -0.1439 -0.2521  0.5334
13807SOL    HW142862   0.197   2.834  11.717 -0.9210 -0.0859  1.2074
13807SOL    HW242863   0.216   2.869  11.863  1.0061  0.3475  0.8738
13808SOL     OW42864   0.488   5.025   1.474 -0.1404  0.1733  0.0063
13808SOL    HW142865   0.408   4.981   1.504 -0.1771  0.9293  1.0800
13808SOL    HW242866   0.558   4.963   1.490 -0.3225  0.0981  0.5218
13809SOL     OW42867   7.246   2.617   2.339 -0.3731 -0.6926 -0.2648
13809SOL    HW142868   7.313   2.601   2.406 -0.2021 -2.0771 -0.7369
13809SOL    HW242869   7.166   2.581   2.377 -0.3489 -1.1533 -0.6328
13810SOL     OW42870   6.971   2.416   4.929 -0.2395  0.0458  0.2676
13810SOL    HW142871   6.930   2.399   4.844  1.0133  1.2087 -0.6277
13810SOL    HW242872   7.022   2.338   4.948 -0.2115 -0.0629 -0.2518
13811SOL     OW42873   4.604   1.758   7.072  0.1883 -0.3427  0.4861
13811SOL    HW142874   4.543   1.800   7.133  0.9970 -1.4849  2.1477
13811SOL    HW242875   4.690   1.790   7.098  0.4728 -0.0416 -0.7605
13812SOL     OW42876   3.449   2.431   4.206  0.3755 -0.2692  0.1747
13812SOL    HW142877   3.397   2.378   4.266 -0.8286 -0.4171 -0.9632
13812SOL    HW242878   3.385   2.480   4.155  1.3143 -0.6268 -1.4279
13813SOL     OW42879   4.777   7.903   4.542  0.5716  0.2178  0.1489
13813SOL    HW142880   4.751   7.985   4.584  0.6932  1.3108 -1.8182
13813SOL    HW242881   4.698   7.874   4.496  1.1122  0.3523 -0.8781
13814SOL     OW42882   7.150   1.017  11.352  0.4500  0.5823  0.0855
13814SOL    HW142883   7.059   1.045  11.341  0.4864  1.3732  1.5433
13814SOL    HW242884   7.190   1.032  11.267 -1.3005 -2.0115 -1.3586
13815SOL     OW42885   3.401   0.360   5.561  0.2260 -0.6174 -0.2920
13815SOL    HW142886   3.326   0.419   5.564  0.7582  0.2438 -2.2618
13815SOL    HW242887   3.366   0.277   5.530 -0.0161 -0.4061 -0.5876
13816SOL     OW42888   1.122   5.350  10.461  0.5381 -0.1769  0.0093
13816SOL    HW142889   1.150   5.432  10.420  1.3389  0.7673  2.2589
13816SOL    HW242890   1.039   5.328  10.419 -0.4937  2.6412  0.3809
13817SOL     OW42891   7.029   3.207   0.546  0.2611 -0.5433  0.2195
13817SOL    HW142892   7.056   3.138   0.607 -0.3271  1.5193  2.9853
13817SOL    HW242893   6.935   3.214   0.558 -0.3367 -1.6816 -2.8369
13818SOL     OW42894   3.132   6.661   1.804  0.4636 -0.4135  0.0002
13818SOL    HW142895   3.047   6.703   1.815  0.1686 -0.9304 -0.2887
13818SOL    HW242896   3.181   6.721   1.747  0.2922 -0.1168  0.1658
13819SOL     OW42897   2.431   6.537   8.296  0.3902  0.1616 -0.6190
13819SOL    HW142898   2.513   6.586   8.282  2.0246 -2.0167  0.6341
13819SOL    HW242899   2.460   6.446   8.308 -2.2658 -0.7123 -0.3171
13820SOL     OW42900   5.943   0.930   2.482 -0.5640  0.0965  0.1368
13820SOL    HW142901   5.981   0.846   2.457 -0.3360  0.4134 -0.6159
13820SOL    HW242902   5.876   0.909   2.547 -1.0891 -0.7409 -0.6610
13821SOL     OW42903   4.480   4.839   4.630 -0.0460  0.6983  0.3891
13821SOL    HW142904   4.496   4.761   4.684 -1.0369  1.1091  1.3176
13821SOL    HW242905   4.400   4.818   4.581 -0.5366  1.2619  0.9325
13822SOL     OW42906   3.833   1.797   2.236  0.2561 -0.4080 -0.0939
13822SOL    HW142907   3.805   1.732   2.300  0.0676 -0.7685 -0.5392
13822SOL    HW242908   3.850   1.876   2.288 -1.2661 -0.2685  0.2331
13823SOL     OW42909   3.061   6.641   2.434 -0.1895 -0.2908 -0.2825
13823SOL    HW142910   3.068   6.733   2.409  0.3764 -0.2542 -0.0154
13823SOL    HW242911   2.974   6.633   2.472 -1.4736 -0.5687 -3.0515
13824SOL     OW42912   1.559   0.850   0.704 -0.6145  0.4863  0.4185
13824SOL    HW142913   1.536   0.933   0.746 -1.1451  0.3179  0.4681
13824SOL    HW242914   1.480   0.824   0.656 -0.4964 -0.0541  0.5081
13825SOL     OW42915   5.441   3.545   6.995  0.2335 -0.2694  0.0065
13825SOL    HW142916   5.381   3.568   7.066  0.6995  2.3536 -0.3313
13825SOL    HW242917   5.388   3.552   6.916  0.5144  0.2083 -0.1445
13826SOL     OW42918   2.858   5.885   2.588  0.3477 -0.1311 -0.4947
13826SOL    HW142919   2.883   5.845   2.671  0.3681 -1.9761 -1.3302
13826SOL    HW242920   2.941   5.906   2.545  0.3907  3.3441  0.9875
13827SOL     OW42921   5.908   1.268  12.320 -0.0217  0.0646  0.7698
13827SOL    HW142922   5.883   1.336  12.257  1.3880 -0.2367 -0.1578
13827SOL    HW242923   5.945   1.198  12.266  0.3400 -0.6131  1.8706
13828SOL     OW42924   5.972   0.193   3.037  0.2231 -0.3438  0.5783
13828SOL    HW142925   5.964   0.277   3.082 -1.0447 -0.8552  1.3740
13828SOL    HW242926   5.907   0.197   2.967  0.7719 -0.3312  0.0638
13829SOL     OW42927   7.441   3.776  10.844  0.0805  0.2706  0.3824
13829SOL    HW142928   7.374   3.728  10.892  0.3006 -0.4223  0.0094
13829SOL    HW242929   7.519   3.722  10.852  0.4202  0.7323  0.2295
13830SOL     OW42930   5.865   2.150   9.291 -0.4085 -0.2861  0.6499
13830SOL    HW142931   5.839   2.240   9.272 -0.8681 -0.5661 -0.0866
13830SOL    HW242932   5.856   2.142   9.386 -2.0841 -0.0796  0.5423
13831SOL     OW42933   3.415   2.359   5.916  0.1745 -0.0556 -0.3270
13831SOL    HW142934   3.384   2.448   5.897  1.6735  0.2199 -1.6879
13831SOL    HW242935   3.464   2.334   5.838  1.0610 -1.5002  0.6545
13832SOL     OW42936   7.915   6.748   6.439  0.6612 -0.4676  0.5952
13832SOL    HW142937   7.866   6.770   6.360  1.1557  0.6666  0.5858
13832SOL    HW242938   7.964   6.668   6.416  2.8030  1.2128 -1.1704
13833SOL     OW42939   3.369   0.355  10.254  0.2909 -0.0850 -0.0855
13833SOL    HW142940   3.323   0.416  10.196 -1.7333 -1.1033  0.3699
13833SOL    HW242941   3.459   0.352  10.220 -0.2364  1.1473 -1.6828
13834SOL     OW42942   2.107   3.768  11.795  0.3535  0.6760 -0.2502
13834SOL    HW142943   2.013   3.751  11.803 -0.0835  1.4708 -2.7713
13834SOL    HW242944   2.132   3.724  11.714  2.6091 -1.0080  1.2227
13835SOL     OW42945   5.553   2.468  12.252  0.1049  0.2489 -0.2626
13835SOL    HW142946   5.482   2.517  12.293  1.7280  3.0775 -0.5456
13835SOL    HW242947   5.586   2.412  12.322 -0.7519  0.8154  0.6363
13836SOL     OW42948   5.244   0.134   0.548 -0.4027 -0.3474  0.2624
13836SOL    HW142949   5.318   0.159   0.493  0.1811 -1.7951  0.3484
13836SOL    HW242950   5.237   0.039   0.537 -1.6869 -0.3520  0.9572
13837SOL     OW42951   4.111   0.085   1.588 -0.0867 -0.0435 -0.0443
13837SOL    HW142952   4.141   0.128   1.508  1.3762 -0.2020  0.3958
13837SOL    HW242953   4.159   0.002   1.590  0.6847  0.4069  1.5100
13838SOL     OW42954   2.328   4.825   7.202  0.3562 -0.1841  0.4482
13838SOL    HW142955   2.307   4.737   7.171 -0.6126  0.1821  0.0079
13838SOL    HW242956   2.346   4.814   7.295 -2.6033 -0.4806  1.0752
13839SOL     OW42957   7.851   1.580   3.081 -0.1971 -0.2412 -0.7460
13839SOL    HW142958   7.911   1.505   3.084  0.8833  0.5891 -1.0036
13839SOL    HW242959   7.818   1.580   2.991 -0.3083 -0.4915 -0.7055
13840SOL     OW42960   0.508   4.870   4.463 -0.0059  0.0125 -0.6733
13840SOL    HW142961   0.598   4.888   4.435 -0.0765  1.4922 -0.0212
13840SOL    HW242962   0.484   4.945   4.518 -1.6866 -0.2943 -0.9314
13841SOL     OW42963   3.394   6.139   8.039  0.1481  0.5866 -0.2779
13841SOL    HW142964   3.367   6.099   7.956  1.3486 -1.2032  0.1165
13841SOL    HW242965   3.324   6.116   8.101  0.3004  0.0117 -0.3116
13842SOL     OW42966   5.872   6.497   1.854 -0.3153 -0.4493  0.5237
13842SOL    HW142967   5.951   6.544   1.828 -1.3024  0.3783 -1.1395
13842SOL    HW242968   5.845   6.451   1.775 -1.1326 -1.2747  1.2592
13843SOL     OW42969   6.689   1.374   9.462  0.0376 -0.5476  0.5113
13843SOL    HW142970   6.739   1.441   9.416 -0.0200  0.2209  1.5219
13843SOL    HW242971   6.623   1.346   9.399 -0.2318  0.6917  0.2111
13844SOL     OW42972   3.081   6.134   0.699  0.2774  0.1119 -0.1759
13844SOL    HW142973   3.094   6.204   0.763  0.3711  0.2838 -0.3864
13844SOL    HW242974   3.168   6.095   0.688  0.3472  0.3739 -0.5413
13845SOL     OW42975   5.450   0.410  11.504 -0.1864  0.5514 -0.2063
13845SOL    HW142976   5.467   0.327  11.459  0.7862 -0.5653  2.0718
13845SOL    HW242977   5.356   0.406  11.525  0.0030 -0.3966  0.5762
13846SOL     OW42978   4.334   1.507  12.024 -0.1655 -0.0320  0.1641
13846SOL    HW142979   4.406   1.511  12.087 -1.3297  3.4455  1.5155
13846SOL    HW242980   4.370   1.542  11.943  0.2880 -0.6581  0.0931
13847SOL     OW42981   7.924   6.676   9.279 -0.2858 -0.3682 -0.6737
13847SOL    HW142982   7.854   6.633   9.230  1.0763 -1.7581 -1.4501
13847SOL    HW242983   8.000   6.619   9.270  0.2546 -0.3890  2.5373
13848SOL     OW42984   3.538   5.389   9.564 -0.3808 -0.5887 -0.1792
13848SOL    HW142985   3.475   5.414   9.496  0.2980 -1.1900 -1.0573
13848SOL    HW242986   3.484   5.363   9.638 -1.1470  2.0620  0.3172
13849SOL     OW42987   4.626   7.737   7.402  0.5212  0.3313  0.4922
13849SOL    HW142988   4.682   7.745   7.479  0.6400 -1.2299  0.5980
13849SOL    HW242989   4.548   7.692   7.433  0.1934  0.4471 -0.1311
13850SOL     OW42990   1.293   4.963   0.873 -0.4150  0.1734  0.0578
13850SOL    HW142991   1.218   5.020   0.885 -0.4977 -0.3129  2.3654
13850SOL    HW242992   1.359   4.996   0.935 -0.2412 -1.7808  1.0011
13851SOL     OW42993   5.222   2.814  10.568 -0.3325  0.0550 -0.2010
13851SOL    HW142994   5.293   2.876  10.552  0.5288 -0.5243  1.2108
13851SOL    HW242995   5.252   2.761  10.642 -1.1846 -1.8348 -1.1305
13852SOL     OW42996   6.347   1.417   8.796 -0.1468 -0.0068 -0.7760
13852SOL    HW142997   6.335   1.419   8.891  0.7845  1.1214 -0.6623
13852SOL    HW242998   6.440   1.433   8.783 -0.4030  0.6760 -1.9193
13853SOL     OW42999   4.891   3.391  10.438  0.5921  0.3277 -0.4340
13853SOL    HW143000   4.977   3.433  10.436  0.3393  0.9203  0.7555
13853SOL    HW243001   4.830   3.459  10.410  0.3503  0.3099  0.0514
13854SOL     OW43002   6.029   1.296   5.449  0.6511 -0.7415  0.2463
13854SOL    HW143003   5.985   1.213   5.468 -0.9670  0.3519  1.5359
13854SOL    HW243004   5.993   1.323   5.364  1.3309 -1.4301 -0.2721
13855SOL     OW43005   0.877   3.377   0.308 -0.2950 -0.4239  0.7100
13855SOL    HW143006   0.849   3.361   0.398 -0.9357 -0.6781  0.4669
13855SOL    HW243007   0.797   3.372   0.256  0.0661 -0.2538  0.1258
13856SOL     OW43008   1.270   7.011  11.986  0.3030  0.3562 -0.0634
13856SOL    HW143009   1.363   7.018  12.005  0.4705 -0.3322 -0.6258
13856SOL    HW243010   1.253   7.081  11.923  0.9284 -0.9336 -1.7372
13857SOL     OW43011   5.606   5.202   2.110  0.5872  0.0251  0.0616
13857SOL    HW143012   5.679   5.264   2.104 -0.0596  0.7120 -0.9666
13857SOL    HW243013   5.573   5.194   2.021 -0.6888 -0.1656  0.5254
13858SOL     OW43014   2.113   4.634   1.438 -0.3424  0.1277 -0.2407
13858SOL    HW143015   2.062   4.585   1.502 -0.9984  1.6843  0.4742
13858SOL    HW243016   2.066   4.716   1.426  0.0768  0.1363 -2.3100
13859SOL     OW43017   5.062   6.538   0.624  0.1194 -0.1912 -0.1128
13859SOL    HW143018   5.104   6.460   0.663 -0.3338  0.1934  1.1884
13859SOL    HW243019   4.979   6.505   0.590  1.3000 -0.9270 -2.5656
13860SOL     OW43020   3.628   4.709   5.185  0.5119 -0.2316  0.2511
13860SOL    HW143021   3.613   4.796   5.223  2.2081  0.0797  0.3150
13860SOL    HW243022   3.701   4.674   5.236  1.0311 -0.9412 -0.9402
13861SOL     OW43023   6.490   3.293   5.389 -0.2444 -0.5475 -0.4483
13861SOL    HW143024   6.443   3.262   5.467 -0.4450 -0.8459 -0.6835
13861SOL    HW243025   6.469   3.228   5.321  0.1539 -0.4429 -0.6762
13862SOL     OW43026   3.573   7.345   5.510  0.1625 -0.1188  0.2397
13862SOL    HW143027   3.575   7.392   5.593  1.0841 -0.8561  0.6645
13862SOL    HW243028   3.582   7.253   5.534 -0.9562 -0.4791 -0.6059
13863SOL     OW43029   6.403   0.749   4.713 -0.5170  0.0542 -0.8857
13863SOL    HW143030   6.462   0.722   4.643 -1.6175  0.3956 -1.9758
13863SOL    HW243031   6.439   0.832   4.744  0.0649 -0.1737 -0.9387
13864SOL     OW43032   6.574   1.698   6.265  0.1942 -0.0392 -0.5084
13864SOL    HW143033   6.563   1.605   6.284 -0.1392 -0.0260 -0.6370
13864SOL    HW243034   6.668   1.709   6.253  0.2638 -0.3087 -0.2283
13865SOL     OW43035   6.922   4.309   0.116 -0.1849  0.4344  0.2709
13865SOL    HW143036   6.939   4.331   0.025 -1.7379  0.7641  0.0493
13865SOL    HW243037   6.956   4.383   0.166  2.0366 -0.3907  0.1189
13866SOL     OW43038   5.722   4.383  11.290 -0.1764 -0.0952  0.1058
13866SOL    HW143039   5.684   4.455  11.340 -0.8042  2.2831 -3.4370
13866SOL    HW243040   5.656   4.314  11.293 -0.9692  0.6754  1.0167
13867SOL     OW43041   5.027   5.713  11.728  0.2133 -0.0127  0.3871
13867SOL    HW143042   4.987   5.785  11.777 -1.1555  0.4027 -1.2346
13867SOL    HW243043   5.044   5.750  11.641 -1.3700 -1.8116 -0.7861
13868SOL     OW43044   3.839   0.629   6.930 -0.0265  0.2492  0.4432
13868SOL    HW143045   3.783   0.565   6.975 -0.4975  0.2880 -0.0845
13868SOL    HW243046   3.778   0.690   6.889  0.4243  1.2007  1.1532
13869SOL     OW43047   7.359   3.743   8.889  1.0397  0.2110  0.2516
13869SOL    HW143048   7.430   3.749   8.825  0.6718  1.0016 -0.1134
13869SOL    HW243049   7.303   3.673   8.856  1.7489 -0.5637  0.6611
13870SOL     OW43050   7.469   4.186   4.554  0.3691  0.1659  0.0824
13870SOL    HW143051   7.413   4.111   4.537  1.0832 -0.4343  0.3394
13870SOL    HW243052   7.543   4.150   4.603  0.9100  0.9684 -0.1303
13871SOL     OW43053   1.888   5.836  11.136  0.0063 -0.0093 -0.1362
13871SOL    HW143054   1.915   5.847  11.227  0.0764  1.9976 -0.3359
13871SOL    HW243055   1.964   5.800  11.092 -0.7939 -3.4228  0.9747
13872SOL     OW43056   0.846   6.635   7.143 -0.5711 -0.0255 -0.0786
13872SOL    HW143057   0.872   6.548   7.112 -2.1264 -0.4467 -0.2924
13872SOL    HW243058   0.808   6.678   7.067  0.2040  0.8790  0.0196
13873SOL     OW43059   4.313   5.090   0.172 -0.4167  0.4774  0.1853
13873SOL    HW143060   4.259   5.016   0.146  1.1331 -0.4388 -0.5987
13873SOL    HW243061   4.274   5.122   0.253 -1.0272 -1.3169  0.6428
13874SOL     OW43062   3.155   7.154   0.890 -0.0633  0.1993 -0.0691
13874SOL    HW143063   3.098   7.115   0.957  1.2412 -0.3482  0.7667
13874SOL    HW243064   3.182   7.238   0.927 -1.2139  0.9856 -0.9643
13875SOL     OW43065   6.539   0.601  11.002  0.2904  0.2238  0.2287
13875SOL    HW143066   6.613   0.646  10.962  0.5361  0.3272  0.7786
13875SOL    HW243067   6.493   0.559  10.930  0.7369  0.3805 -0.1465
13876SOL     OW43068   2.154   1.447   2.589 -0.5882 -0.1591 -0.3160
13876SOL    HW143069   2.150   1.432   2.494 -0.3361 -0.8473 -0.2259
13876SOL    HW243070   2.114   1.369   2.627 -0.6149  0.0791  0.1501
13877SOL     OW43071   6.530   1.119   3.238  0.1384  0.4787 -0.1551
13877SOL    HW143072   6.562   1.161   3.318 -2.1891  1.4288  0.3734
13877SOL    HW243073   6.507   1.030   3.264  0.1353  0.5315  0.0189
13878SOL     OW43074   0.176   6.890   9.582  0.8914  0.1776  0.3448
13878SOL    HW143075   0.131   6.965   9.621  0.4669  2.0107 -3.2448
13878SOL    HW243076   0.106   6.840   9.540  1.4553 -0.8642  0.6193
13879SOL     OW43077   3.750   1.252   5.266 -0.1861  0.3250  0.0861
13879SOL    HW143078   3.838   1.274   5.297  0.6177  1.1639 -2.5507
13879SOL    HW243079   3.758   1.249   5.171 -2.4988 -1.9502 -0.1613
13880SOL     OW43080   7.289   7.642   5.079 -0.1169 -0.0140 -0.4364
13880SOL    HW143081   7.223   7.614   5.015  0.2069  0.0882 -0.8139
13880SOL    HW243082   7.265   7.732   5.101 -0.1329  0.0047 -0.5328
13881SOL     OW43083   0.451   6.579   4.457 -0.3191 -0.4917  0.8804
13881SOL    HW143084   0.408   6.578   4.371 -2.0656  0.3879  1.6904
13881SOL    HW243085   0.543   6.562   4.438 -0.5639  0.2239 -1.2324
13882SOL     OW43086   2.933   7.034   4.493 -0.5667  0.2384  0.6133
13882SOL    HW143087   2.937   6.955   4.440 -1.7724  0.8212 -0.3864
13882SOL    HW243088   2.871   7.013   4.563 -0.0856 -0.0293  0.9740
13883SOL     OW43089   4.531   7.929   2.655  0.0150  0.4975  0.1410
13883SOL    HW143090   4.542   7.957   2.564 -1.2759  0.7051  0.0340
13883SOL    HW243091   4.487   8.003   2.698 -0.2834  0.0053  0.6952
13884SOL     OW43092   5.714   7.126  11.325 -0.2700 -0.2244 -0.0385
13884SOL    HW143093   5.804   7.107  11.300 -0.6499 -0.8255 -0.9966
13884SOL    HW243094   5.706   7.221  11.316 -0.4985 -0.4353 -2.6893
13885SOL     OW43095   7.694   4.312  10.407 -0.1297 -0.2645  0.3552
13885SOL    HW143096   7.676   4.312  10.500  1.8830  2.1237  0.8496
13885SOL    HW243097   7.754   4.238  10.394 -2.7654 -2.5200  0.2960
13886SOL     OW43098   1.998   7.067  12.340 -0.1697  0.1486 -0.0833
13886SOL    HW143099   2.089   7.038  12.352  0.2178  1.6803  0.8385
13886SOL    HW243100   1.993   7.089  12.247  0.8859  1.5593  0.1609
13887SOL     OW43101   6.628   3.138   3.171 -0.0833  0.3358  0.5558
13887SOL    HW143102   6.574   3.111   3.246  0.8971 -1.2428  0.7519
13887SOL    HW243103   6.575   3.116   3.094  0.9657 -3.2700  0.6571
13888SOL     OW43104   5.770   5.645   9.290  0.0645 -0.1618 -0.2962
13888SOL    HW143105   5.766   5.636   9.195 -2.4676  0.1686 -0.2892
13888SOL    HW243106   5.743   5.559   9.323  0.5004 -0.1363  0.1455
13889SOL     OW43107   5.634   0.527   1.547 -0.8948  0.2272  0.2564
13889SOL    HW143108   5.608   0.465   1.479  0.2890 -0.3320  0.2797
13889SOL    HW243109   5.728   0.538   1.533 -0.8223  0.8441  1.2091
13890SOL     OW43110   4.235   0.171   3.991 -0.1224  0.3699  0.2523
13890SOL    HW143111   4.173   0.244   3.985  0.8706  1.2802  0.8157
13890SOL    HW243112   4.320   0.210   3.976  0.4123 -0.7247  0.3372
13891SOL     OW43113   4.693   6.537   1.113 -0.0824 -0.0477  0.2961
13891SOL    HW143114   4.782   6.517   1.140 -0.1873  0.3081  0.9211
13891SOL    HW243115   4.686   6.501   1.024  0.8693  0.4361  0.0072
13892SOL     OW43116   6.689   3.741   1.253 -0.0560  0.4644 -0.4799
13892SOL    HW143117   6.762   3.726   1.193 -0.1278  0.5836 -0.5990
13892SOL    HW243118   6.730   3.767   1.335  0.1200 -1.2486  0.0167
13893SOL     OW43119   1.691   0.047   1.111  0.9832  0.7100 -0.5829
13893SOL    HW143120   1.618   0.109   1.115  1.3981  1.2535 -1.2124
13893SOL    HW243121   1.754   0.088   1.051  0.4855 -1.1831 -2.5099
13894SOL     OW43122   5.900   7.884   1.177 -0.6401 -0.0679  0.1748
13894SOL    HW143123   5.860   7.801   1.204 -0.7373 -0.2818 -0.5809
13894SOL    HW243124   5.826   7.942   1.161 -0.5428  0.6173  2.0143
13895SOL     OW43125   4.207   1.355   3.702 -0.0226 -0.2815  0.2632
13895SOL    HW143126   4.144   1.390   3.638 -1.0662 -0.5078  1.1286
13895SOL    HW243127   4.184   1.262   3.710  0.2022 -0.2943  0.8194
13896SOL     OW43128   0.883   2.382   6.986  0.3499  0.2134  0.0368
13896SOL    HW143129   0.871   2.307   6.927 -0.0315  0.1860  0.1414
13896SOL    HW243130   0.796   2.396   7.024  0.5419  0.3670  0.4289
13897SOL     OW43131   3.205   4.435   8.101 -0.4269 -0.0098  0.0885
13897SOL    HW143132   3.262   4.482   8.041 -0.6146 -1.5624 -1.3820
13897SOL    HW243133   3.264   4.399   8.168 -0.2993  2.2904  1.3099
13898SOL     OW43134   2.494   0.798   1.054  0.2838 -0.1723  0.2208
13898SOL    HW143135   2.496   0.749   1.137  1.1370 -1.2858 -0.4277
13898SOL    HW243136   2.540   0.879   1.074 -0.2312 -0.0770  1.0545
13899SOL     OW43137   2.273   1.698   0.466 -0.8432 -0.1102 -0.1114
13899SOL    HW143138   2.228   1.667   0.545  0.5261 -0.0024  0.7443
13899SOL    HW243139   2.292   1.618   0.416 -1.1817 -0.2345 -0.0446
13900SOL     OW43140   0.652   7.240   3.346  0.0317  0.1453  0.3437
13900SOL    HW143141   0.704   7.165   3.375 -0.2507 -0.0689  0.2989
13900SOL    HW243142   0.693   7.315   3.389  0.6744  0.0440 -0.0743
13901SOL     OW43143   5.909   0.653   8.622 -0.9166  0.3695 -0.3026
13901SOL    HW143144   5.821   0.689   8.634 -0.8777  0.5878 -0.6674
13901SOL    HW243145   5.959   0.689   8.696 -1.5558 -1.1737  0.9261
13902SOL     OW43146   3.423   1.577   2.008  0.1873  1.0566 -0.4456
13902SOL    HW143147   3.382   1.660   1.982  1.6845  1.2197 -2.5435
13902SOL    HW243148   3.352   1.513   2.005 -0.7708  2.0598  0.1865
13903SOL     OW43149   7.898   4.301   3.645  0.5016 -0.6066 -0.1902
13903SOL    HW143150   7.872   4.333   3.731 -1.8021  0.4214 -1.1640
13903SOL    HW243151   7.926   4.379   3.598  2.4392 -1.2596 -0.2186
13904SOL     OW43152   5.298   1.922   0.962  0.3549 -0.5014 -0.3310
13904SOL    HW143153   5.382   1.881   0.985  2.2503  2.9904 -0.3285
13904SOL    HW243154   5.258   1.941   1.047 -0.7649 -2.5297 -0.3309
13905SOL     OW43155   2.112   0.482   3.128 -0.0785 -0.3298 -0.5378
13905SOL    HW143156   2.147   0.519   3.046  0.6876  0.0123 -0.0682
13905SOL    HW243157   2.187   0.479   3.187 -0.2465 -2.0658 -0.3428
13906SOL     OW43158   7.147   4.877   7.644 -0.5541  0.4500  0.3516
13906SOL    HW143159   7.181   4.788   7.653  0.5684  0.9918  1.8409
13906SOL    HW243160   7.125   4.903   7.734  0.1636  2.0568  0.0917
13907SOL     OW43161   2.220   4.719   4.852  0.0444 -0.2664  0.2861
13907SOL    HW143162   2.293   4.768   4.814 -0.8750  0.0965 -1.0872
13907SOL    HW243163   2.259   4.670   4.925  1.4222  0.7573  0.2713
13908SOL     OW43164   3.879   3.917   2.439 -0.2657  0.9629  0.7157
13908SOL    HW143165   3.940   3.887   2.506 -0.7366  0.7110  1.0317
13908SOL    HW243166   3.800   3.866   2.453 -1.2957  2.7016  1.6098
13909SOL     OW43167   6.975   5.594   5.128 -0.8106  0.1985  0.4731
13909SOL    HW143168   7.065   5.568   5.150 -0.3004  2.6078  1.5748
13909SOL    HW243169   6.951   5.537   5.055  0.6358 -2.2761  1.7782
13910SOL     OW43170   0.079   0.799  10.316 -0.7558 -0.3597  0.1598
13910SOL    HW143171   0.132   0.800  10.237 -1.6771  0.7840 -0.4840
13910SOL    HW243172   0.137   0.764  10.384  0.1812 -0.9677 -0.9148
13911SOL     OW43173   6.746   5.275   6.695 -0.4216 -0.0298  0.5497
13911SOL    HW143174   6.780   5.269   6.784 -1.6878 -0.8231  1.0032
13911SOL    HW243175   6.783   5.356   6.660 -0.1434  0.4444  1.9009
13912SOL     OW43176   5.998   2.000   3.731 -0.5465  0.0080  0.1549
13912SOL    HW143177   5.996   2.030   3.641  1.2667  1.3021  0.5063
13912SOL    HW243178   6.090   1.982   3.749 -0.4250  2.4480  2.5607
13913SOL     OW43179   6.186   6.160   1.865 -0.0600 -0.2663  0.7811
13913SOL    HW143180   6.171   6.125   1.777 -0.7292 -1.4322  1.3311
13913SOL    HW243181   6.253   6.227   1.853  1.7739 -2.1670 -0.2731
13914SOL     OW43182   6.224   0.324   3.342  0.1389  0.0272  0.1167
13914SOL    HW143183   6.238   0.298   3.251 -1.6751  1.0904 -0.5284
13914SOL    HW243184   6.144   0.377   3.340  1.6794  2.6594  1.8341
13915SOL     OW43185   5.912   2.788  11.099  0.0352  0.2241  0.4402
13915SOL    HW143186   5.837   2.789  11.040  0.6143  1.7154 -0.3402
13915SOL    HW243187   5.988   2.792  11.041  0.7449 -1.2865  1.2124
13916SOL     OW43188   7.158   2.217   4.363 -0.0063 -0.9749 -0.0906
13916SOL    HW143189   7.066   2.230   4.384  0.2639 -0.3245  0.6974
13916SOL    HW243190   7.166   2.247   4.272  0.0161  1.8622  0.7472
13917SOL     OW43191   1.190   7.309   3.750 -0.2919 -0.2572 -0.3281
13917SOL    HW143192   1.121   7.353   3.799  0.3197 -0.1567  0.4659
13917SOL    HW243193   1.227   7.246   3.812  1.6807  1.0953 -0.0367
13918SOL     OW43194   6.139   1.038   8.094 -0.3927 -0.4413  0.2268
13918SOL    HW143195   6.192   1.110   8.129  1.4089 -1.7935  0.4327
13918SOL    HW243196   6.050   1.072   8.094  0.4405  1.9563 -0.1424
13919SOL     OW43197   4.724   7.863   3.130  0.3100  0.0281 -0.2885
13919SOL    HW143198   4.682   7.791   3.178 -2.8130  1.0126 -1.2677
13919SOL    HW243199   4.789   7.897   3.191  1.2901 -3.0133  0.5365
13920SOL     OW43200   2.907   6.738   1.979  0.1989  0.3213 -0.2196
13920SOL    HW143201   2.932   6.825   1.948  0.5886  0.2573 -0.0908
13920SOL    HW243202   2.821   6.722   1.940  0.1134  0.7766 -0.2187
13921SOL     OW43203   5.221   7.869  10.396  0.1021 -0.2969 -0.3803
13921SOL    HW143204   5.257   7.870  10.485 -0.8801 -3.7361  0.1897
13921SOL    HW243205   5.257   7.948  10.356  1.9369  0.5363  2.5168
13922SOL     OW43206   4.817   0.972   5.215  0.5498 -0.1506 -0.2051
13922SOL    HW143207   4.732   0.930   5.202 -0.4804  1.7369  0.2183
13922SOL    HW243208   4.838   0.957   5.307 -0.1383  0.8157  0.1156
13923SOL     OW43209   3.808   4.814  12.022  0.6716 -0.1507  0.3390
13923SOL    HW143210   3.865   4.886  12.050  0.7742 -0.6913  1.5819
13923SOL    HW243211   3.848   4.736  12.060 -1.0128 -0.5184  1.4738
13924SOL     OW43212   0.835   4.955   1.524  0.4544 -0.2519  0.7401
13924SOL    HW143213   0.847   5.049   1.506  0.2788 -0.1353  1.2410
13924SOL    HW243214   0.881   4.940   1.606  0.0434 -0.5032  0.9268
13925SOL     OW43215   6.251   0.486   5.370 -0.0663 -0.2885 -0.6833
13925SOL    HW143216   6.286   0.513   5.285 -1.7480 -0.2743 -1.4057
13925SOL    HW243217   6.222   0.568   5.411 -0.7057 -0.4732 -0.7708
13926SOL     OW43218   1.964   5.667   8.040 -0.3495 -0.0319 -0.4466
13926SOL    HW143219   1.952   5.627   7.954 -1.4164 -1.3759  0.2832
13926SOL    HW243220   1.913   5.748   8.036 -0.7458 -0.2987 -0.9529
13927SOL     OW43221   5.417   6.280   5.915 -0.7923 -0.3518 -0.1821
13927SOL    HW143222   5.405   6.198   5.963 -0.8029 -0.3453 -0.1740
13927SOL    HW243223   5.410   6.349   5.981  2.3368 -0.4562  0.4137
13928SOL     OW43224   4.227   0.337   9.554  0.1951 -0.1391  0.3108
13928SOL    HW143225   4.195   0.360   9.467 -1.3613 -1.4329  0.4968
13928SOL    HW243226   4.164   0.377   9.614  1.3644  0.9139  0.8869
13929SOL     OW43227   6.006   6.615   9.237  0.0465  0.0535  0.0860
13929SOL    HW143228   6.078   6.663   9.277 -1.9481  2.0366  1.5816
13929SOL    HW243229   5.993   6.656   9.152  0.5249 -0.1504 -0.0869
13930SOL     OW43230   1.277   2.157   7.969 -0.3105 -0.0856  0.1260
13930SOL    HW143231   1.215   2.226   7.994 -0.5883 -0.8453  1.6111
13930SOL    HW243232   1.222   2.081   7.951  0.0997 -0.3544  0.0027
13931SOL     OW43233   4.367   5.701   0.608  0.9491  0.0421  0.3422
13931SOL    HW143234   4.419   5.649   0.669  0.9191  1.0516  1.2747
13931SOL    HW243235   4.321   5.765   0.664  0.0492  0.2809 -0.6294
13932SOL     OW43236   2.809   3.686   5.139 -0.1526 -0.1750  0.6575
13932SOL    HW143237   2.823   3.666   5.231 -1.2539  0.8804  1.0766
13932SOL    HW243238   2.894   3.718   5.108  0.2532 -0.6400  1.2629
13933SOL     OW43239   2.583   1.060   1.792 -0.5570  0.0510  0.4934
13933SOL    HW143240   2.646   1.082   1.861  0.5013 -2.3609  0.4217
13933SOL    HW243241   2.527   1.137   1.784  1.1582  1.5313  1.9531
13934SOL     OW43242   2.390   0.535   1.461  0.3363  0.4197 -0.1520
13934SOL    HW143243   2.407   0.566   1.550  3.1889 -2.1259  0.3546
13934SOL    HW243244   2.295   0.518   1.460 -0.1358  2.4807  1.6332
13935SOL     OW43245   3.200   7.749   6.641  0.3055  0.2725  0.1626
13935SOL    HW143246   3.144   7.721   6.713  1.0358  0.2567  0.7409
13935SOL    HW243247   3.141   7.763   6.568 -0.3361 -0.6493  0.4910
13936SOL     OW43248   2.598   1.872   2.448 -0.1409  0.1799  0.5601
13936SOL    HW143249   2.612   1.911   2.534  0.0175  0.4801  0.4013
13936SOL    HW243250   2.529   1.808   2.462 -0.8539  0.9532  0.7085
13937SOL     OW43251   1.782   5.470  11.060 -0.4547 -0.5609  0.1782
13937SOL    HW143252   1.823   5.489  11.144 -1.8482  1.2431  0.4916
13937SOL    HW243253   1.845   5.411  11.016  0.2218 -1.6870  2.4931
13938SOL     OW43254   2.155   4.301   1.706 -0.1878 -0.1900 -0.2699
13938SOL    HW143255   2.099   4.299   1.784 -0.5340 -2.3505 -0.5146
13938SOL    HW243256   2.235   4.255   1.733  0.1361 -0.0112 -0.8961
13939SOL     OW43257   0.362   0.530   4.805 -0.1423 -0.2934 -0.0244
13939SOL    HW143258   0.391   0.443   4.779 -2.6716 -1.0575 -0.6103
13939SOL    HW243259   0.331   0.520   4.895 -0.8486 -0.1411 -0.2391
13940SOL     OW43260   3.369   2.182   8.323 -0.1095 -0.0693 -0.8774
13940SOL    HW143261   3.399   2.139   8.243 -1.3550  0.1438 -1.4835
13940SOL    HW243262   3.391   2.274   8.311 -0.7719  0.0483 -1.2155
13941SOL     OW43263   2.543   3.777   7.351  0.0307  0.2243 -0.6197
13941SOL    HW143264   2.608   3.760   7.282 -0.8708  0.6706 -1.5999
13941SOL    HW243265   2.465   3.729   7.323 -0.5758  0.9966 -0.2782
13942SOL     OW43266   4.007   2.156   6.021 -0.6235  0.5320  0.5021
13942SOL    HW143267   3.925   2.201   6.000 -1.4146 -0.6772  0.8916
13942SOL    HW243268   4.076   2.219   5.999 -1.5902  1.0708 -1.1115
13943SOL     OW43269   6.242   6.958   3.950  0.4733  0.6213  0.5009
13943SOL    HW143270   6.304   7.007   3.896 -1.0389  1.7578 -0.2643
13943SOL    HW243271   6.175   7.021   3.973 -0.9868 -0.8163  0.3893
13944SOL     OW43272   6.529   7.946   2.936 -0.1017  0.0260 -0.1042
13944SOL    HW143273   6.521   7.870   2.994  0.0836 -0.8464 -1.1969
13944SOL    HW243274   6.591   7.919   2.869 -1.8637  0.2414 -1.9096
13945SOL     OW43275   0.343   6.195   7.587 -0.1539 -0.3031  0.3999
13945SOL    HW143276   0.301   6.221   7.669 -2.4018 -1.9527 -0.1281
13945SOL    HW243277   0.349   6.100   7.592  1.7266 -0.2721 -0.4533
13946SOL     OW43278   7.708   0.410   5.980  0.0604 -0.4628 -0.3323
13946SOL    HW143279   7.714   0.397   6.074 -1.4974 -0.3072 -0.1932
13946SOL    HW243280   7.635   0.470   5.968 -1.2809 -2.2674 -1.7740
13947SOL     OW43281   2.001   5.303   5.071  0.0936  0.1775 -0.2663
13947SOL    HW143282   2.089   5.341   5.078  1.1070 -2.1265  0.2574
13947SOL    HW243283   1.951   5.345   5.141  0.7171  1.6001 -0.6371
13948SOL     OW43284   1.766   7.656   1.943 -0.0436  0.3125  0.5339
13948SOL    HW143285   1.736   7.674   2.032  0.7531 -0.5830  1.0064
13948SOL    HW243286   1.751   7.738   1.895 -0.2869  0.8735  1.5470
13949SOL     OW43287   2.940   5.895  11.760 -0.0364 -0.3199 -0.7853
13949SOL    HW143288   2.910   5.928  11.846 -0.4923  1.7219 -1.6570
13949SOL    HW243289   2.901   5.956  11.697 -0.3122 -2.2018 -2.5308
13950SOL     OW43290   2.265   5.982   2.018  0.8227  0.2091  0.0934
13950SOL    HW143291   2.206   5.907   2.027  0.0082  0.8240  0.0540
13950SOL    HW243292   2.353   5.944   2.018  0.3826 -0.9042 -1.5815
13951SOL     OW43293   0.621   2.438   7.083  0.2901  0.0278  0.0666
13951SOL    HW143294   0.629   2.442   7.178  1.3754  0.4395 -0.0282
13951SOL    HW243295   0.540   2.389   7.067 -0.3260  0.6389  1.2012
13952SOL     OW43296   2.114   5.720  11.842  0.4373  0.1462 -0.1204
13952SOL    HW143297   2.032   5.676  11.823  0.1977 -0.0595  1.3025
13952SOL    HW243298   2.165   5.655  11.891  0.4947  1.0641  1.0791
13953SOL     OW43299   4.103   6.744   9.167 -0.1356  0.0687 -0.2008
13953SOL    HW143300   4.151   6.799   9.105 -1.4898  1.2472 -0.2696
13953SOL    HW243301   4.021   6.722   9.123 -0.0579 -1.1643  0.2344
13954SOL     OW43302   2.569   5.134   0.915 -0.6428  0.5549  1.1165
13954SOL    HW143303   2.587   5.067   0.849 -0.5007  0.9096  0.7913
13954SOL    HW243304   2.612   5.212   0.882 -0.5279  0.7236  1.6613
13955SOL     OW43305   0.334   4.755   8.259 -0.3005 -0.3688 -0.8395
13955SOL    HW143306   0.390   4.779   8.333 -2.6910 -1.7982  1.6444
13955SOL    HW243307   0.392   4.707   8.200  1.6182  0.3849  0.3339
13956SOL     OW43308   7.225   4.126   2.382  0.0353  0.4975 -0.0160
13956SOL    HW143309   7.192   4.168   2.302  0.8739 -0.5152 -0.9315
13956SOL    HW243310   7.281   4.055   2.350  0.2789 -0.0187  1.4862
13957SOL     OW43311   3.871   1.488   6.317 -0.5858  0.0003  0.1520
13957SOL    HW143312   3.779   1.465   6.326 -0.4575 -1.1458 -1.1617
13957SOL    HW243313   3.874   1.582   6.333 -1.5436 -0.3462  3.0174
13958SOL     OW43314   0.135   0.475   8.962  0.1082  0.1786 -0.2678
13958SOL    HW143315   0.158   0.431   8.881 -0.5972  0.4141 -0.6043
13958SOL    HW243316   0.182   0.427   9.030  0.1403 -0.4617 -0.7401
13959SOL     OW43317   3.042   2.576   2.536  0.0175  0.0890 -0.5332
13959SOL    HW143318   3.021   2.571   2.442 -0.8728 -3.3185 -0.2794
13959SOL    HW243319   2.975   2.635   2.572  0.1789  1.2028 -1.9329
13960SOL     OW43320   0.726   5.918   9.998  0.1617 -0.3678 -0.1474
13960SOL    HW143321   0.767   5.836   9.972  2.2378  0.0405  1.5205
13960SOL    HW243322   0.714   5.966   9.917  1.0225 -1.4091 -0.9187
13961SOL     OW43323   6.866   2.378   3.755 -0.1864  0.2579  0.5648
13961SOL    HW143324   6.956   2.391   3.787  0.2538 -2.3019  0.5620
13961SOL    HW243325   6.874   2.306   3.693 -2.0780  0.8553 -0.4213
13962SOL     OW43326   7.098   5.049   0.380 -0.3541 -0.8787 -0.7303
13962SOL    HW143327   7.068   4.961   0.404  0.7032 -0.7995  1.1110
13962SOL    HW243328   7.146   5.079   0.458 -1.5204  1.7170 -0.9230
13963SOL     OW43329   5.269   0.475   6.785  0.8045 -0.0037  0.2399
13963SOL    HW143330   5.205   0.457   6.716  1.7010 -1.1406 -0.3188
13963SOL    HW243331   5.338   0.526   6.742  0.3411  1.1584  0.8250
13964SOL     OW43332   0.443   2.892   1.943 -0.0246 -0.7289 -0.1704
13964SOL    HW143333   0.398   2.972   1.971  3.0072  1.8734 -2.0235
13964SOL    HW243334   0.453   2.841   2.024 -0.9183  1.4042  1.3784
13965SOL     OW43335   7.283   1.540   1.756  0.2744 -0.2366 -0.7155
13965SOL    HW143336   7.333   1.473   1.709 -1.3611 -1.5696 -0.6658
13965SOL    HW243337   7.243   1.493   1.830  1.9538  1.5764  1.5098
13966SOL     OW43338   0.448   6.604   9.201 -0.3738  0.3868  0.2863
13966SOL    HW143339   0.408   6.578   9.284 -0.0070 -0.0263  0.3356
13966SOL    HW243340   0.436   6.699   9.197 -1.4071  0.2636  0.2733
13967SOL     OW43341   3.833   5.092  11.827 -0.4788 -0.4883  0.5984
13967SOL    HW143342   3.765   5.102  11.894 -0.0751  0.2227  0.9090
13967SOL    HW243343   3.899   5.157  11.850  0.1912 -1.0052  0.1459
13968SOL     OW43344   2.466   2.580   1.899 -0.5299 -0.2251  0.0750
13968SOL    HW143345   2.409   2.569   1.823  0.4695  0.5020 -0.8103
13968SOL    HW243346   2.439   2.664   1.937  0.3457  0.4655 -0.7482
13969SOL     OW43347   7.590   5.853  12.334  0.3819 -0.0693 -0.6968
13969SOL    HW143348   7.502   5.875  12.364  1.2137 -0.0372  1.9569
13969SOL    HW243349   7.624   5.935  12.299  0.0652  0.4527  0.1795
13970SOL     OW43350   2.416   0.052   1.665  0.2733 -0.6130 -0.4582
13970SOL    HW143351   2.503   0.031   1.699 -0.1542 -0.0001  1.0888
13970SOL    HW243352   2.433   0.094   1.581  1.6488  1.3457  0.6949
13971SOL     OW43353   4.787   7.143   3.394 -0.0560  0.6304  0.6150
13971SOL    HW143354   4.726   7.164   3.324 -2.6531 -0.4282  2.4239
13971SOL    HW243355   4.821   7.057   3.371  1.1302  1.3667 -0.5708
13972SOL     OW43356   1.572   4.118  12.449 -0.5322  0.8015  0.4237
13972SOL    HW143357   1.572   4.025  12.475 -0.4803 -0.1116 -2.4482
13972SOL    HW243358   1.661   4.133  12.417 -0.6238  1.7882  0.6288
13973SOL     OW43359   0.895   3.574   6.925  0.2142  0.1492 -0.2237
13973SOL    HW143360   0.858   3.503   6.873  2.3480  1.3352 -3.7223
13973SOL    HW243361   0.850   3.653   6.893  0.8912  0.8348  0.4545
13974SOL     OW43362   0.986   7.468   6.907 -0.0255 -0.0461  0.2174
13974SOL    HW143363   0.980   7.389   6.854  0.5829 -0.3464  0.5776
13974SOL    HW243364   1.051   7.446   6.975 -0.4104  0.4975  0.7724
13975SOL     OW43365   5.968   6.279   2.004 -0.3636 -0.4425  0.0941
13975SOL    HW143366   5.932   6.347   1.946 -1.5487 -2.8801 -2.2153
13975SOL    HW243367   6.047   6.249   1.959 -1.3536 -2.4497 -0.4116
13976SOL     OW43368   0.432   7.172   4.983 -0.5461  0.3118  0.3884
13976SOL    HW143369   0.447   7.085   5.018 -2.3430 -0.0820  0.3074
13976SOL    HW243370   0.508   7.223   5.011  0.7283 -1.3547  0.0888
13977SOL     OW43371   2.124   7.320  12.308  0.1250  0.0336 -0.4337
13977SOL    HW143372   2.207   7.272  12.306 -0.3553 -0.8943  0.7808
13977SOL    HW243373   2.104   7.337  12.216  1.2939 -0.3672 -0.7756
13978SOL     OW43374   3.011   6.120   5.504 -0.1237  0.5076  0.3282
13978SOL    HW143375   3.104   6.139   5.495 -0.0442  0.1354  0.3665
13978SOL    HW243376   2.983   6.092   5.417 -0.5463  2.0851 -0.0785
13979SOL     OW43377   0.842   2.364   5.168 -0.1891 -0.3640  0.0219
13979SOL    HW143378   0.827   2.298   5.100 -1.2117 -0.7234  0.5634
13979SOL    HW243379   0.885   2.437   5.123  0.3886 -1.1373 -0.7187
13980SOL     OW43380   1.872   4.219   9.605  0.1546 -0.0084 -0.0519
13980SOL    HW143381   1.807   4.280   9.569 -1.3042 -1.9135 -0.8431
13980SOL    HW243382   1.950   4.232   9.551 -0.4082  0.5882 -0.7448
13981SOL     OW43383   0.291   1.639   5.778  0.2916 -0.1977 -0.2890
13981SOL    HW143384   0.259   1.689   5.853  2.1655  0.7022 -0.0361
13981SOL    HW243385   0.287   1.701   5.705  1.0741 -0.1897 -0.3285
13982SOL     OW43386   4.398   7.248   9.661  0.1420  0.0834 -0.4815
13982SOL    HW143387   4.312   7.271   9.627  0.2500 -0.1150 -0.8916
13982SOL    HW243388   4.447   7.331   9.660  0.1818  0.0568 -0.9257
13983SOL     OW43389   4.928   2.651   5.330  0.2423 -0.5703 -0.2632
13983SOL    HW143390   4.902   2.593   5.401  0.8671 -1.0461 -0.4127
13983SOL    HW243391   4.938   2.737   5.371  0.6597 -0.8585  0.2361
13984SOL     OW43392   0.478   6.870   9.169  0.5429  0.0897 -0.1291
13984SOL    HW143393   0.570   6.863   9.194  0.4032 -0.7501  0.1794
13984SOL    HW243394   0.432   6.886   9.252  0.3384 -0.2287 -0.1791
13985SOL     OW43395   0.452   5.871   4.908 -0.1286  0.1387 -0.0081
13985SOL    HW143396   0.446   5.945   4.848  0.8021  0.6998  0.5560
13985SOL    HW243397   0.490   5.800   4.856 -0.4471  0.2458 -0.3903
13986SOL     OW43398   5.266   2.263   4.786  0.9521 -0.0506  0.1369
13986SOL    HW143399   5.291   2.343   4.739 -0.4130  0.1552 -0.2799
13986SOL    HW243400   5.179   2.281   4.820  0.8700 -1.1481  0.5514
13987SOL     OW43401   7.151   4.229   2.136 -0.4619  1.1766 -0.1286
13987SOL    HW143402   7.189   4.152   2.094 -1.3013  0.8667 -0.3371
13987SOL    HW243403   7.196   4.303   2.095  2.5598  0.8245  2.1663
13988SOL     OW43404   4.778   7.817   6.988 -0.4590  0.2985 -0.0046
13988SOL    HW143405   4.784   7.828   6.893 -0.4479  1.6368  0.1281
13988SOL    HW243406   4.843   7.749   7.009 -0.7960 -0.3390 -0.9961
13989SOL     OW43407   3.377   3.948   3.938 -0.0136  0.9260  0.1922
13989SOL    HW143408   3.468   3.922   3.921 -1.0076 -2.3303 -0.9894
13989SOL    HW243409   3.350   3.995   3.859 -0.2239 -1.0215 -0.9752
13990SOL     OW43410   6.550   5.649   8.878  0.7831 -0.3761  0.1005
13990SOL    HW143411   6.508   5.586   8.818 -0.6467 -0.8711  1.5376
13990SOL    HW243412   6.496   5.728   8.870  0.3088 -0.5913  1.0244
13991SOL     OW43413   3.735   2.951   5.944  1.0235 -0.4612 -0.4086
13991SOL    HW143414   3.717   3.022   6.005  2.3583  0.1840 -0.7224
13991SOL    HW243415   3.738   2.993   5.858  0.5334 -1.1260 -0.7609
13992SOL     OW43416   6.013   1.546   3.733 -0.6098 -0.1033 -0.2758
13992SOL    HW143417   6.049   1.485   3.797 -0.8696  1.0454  1.0180
13992SOL    HW243418   6.001   1.627   3.782 -0.2998  0.9869 -1.9292
13993SOL     OW43419   4.948   5.173  11.791 -0.6522  0.2867  0.6153
13993SOL    HW143420   4.951   5.268  11.799 -0.5045  0.3305  0.0753
13993SOL    HW243421   4.927   5.142  11.879 -0.9775  0.8322  0.7363
13994SOL     OW43422   3.055   2.560   0.016  0.3172 -0.4398 -0.3319
13994SOL    HW143423   3.111   2.632   0.048 -1.7037  0.7927  0.6526
13994SOL    HW243424   3.037   2.583  -0.075  1.6278 -1.0317 -0.7708
13995SOL     OW43425   4.359   1.766   1.832  0.2747  0.3423  0.0258
13995SOL    HW143426   4.362   1.794   1.924  0.8943  2.1749 -0.5123
13995SOL    HW243427   4.266   1.748   1.816 -0.4111  3.2293  0.1581
13996SOL     OW43428   3.645   0.003   9.308  0.2953  0.0210  0.1934
13996SOL    HW143429   3.617   0.067   9.242  1.0965 -1.0645 -1.2431
13996SOL    HW243430   3.577  -0.064   9.308  0.9275 -0.6332 -0.4769
13997SOL     OW43431   6.066   5.461  10.084  0.2078 -0.1762  0.3425
13997SOL    HW143432   6.095   5.394  10.147  0.2188 -0.0349  0.4887
13997SOL    HW243433   5.973   5.443  10.071  0.0133  0.2888  1.0243
13998SOL     OW43434   7.256   0.877   9.607  0.0757  0.1613  0.5309
13998SOL    HW143435   7.186   0.935   9.637 -1.9736 -1.5959 -0.6195
13998SOL    HW243436   7.316   0.873   9.682 -1.3005  1.3046  1.7658
13999SOL     OW43437   6.844   1.832  11.201 -0.0797  0.2718  0.1599
13999SOL    HW143438   6.900   1.780  11.143 -1.4165  0.9602 -1.8525
13999SOL    HW243439   6.904   1.891  11.246  0.9966 -0.2249 -0.5913
14000SOL     OW43440   2.429   7.453   9.472 -0.3429 -0.2270  0.1555
14000SOL    HW143441   2.415   7.367   9.512  0.1182  0.3201  1.5712
14000SOL    HW243442   2.376   7.512   9.525  1.2769  0.7231  0.7977
14001SOL     OW43443   1.286   5.745   1.397 -0.1142 -0.0815  0.4069
14001SOL    HW143444   1.239   5.818   1.358 -0.9165 -0.6447  0.3001
14001SOL    HW243445   1.306   5.688   1.323  2.7945  1.2040  0.0522
14002SOL     OW43446   2.100   2.898   9.036 -0.8445  0.1924 -0.0261
14002SOL    HW143447   2.063   2.980   9.003 -0.5555 -0.7499 -3.0160
14002SOL    HW243448   2.194   2.913   9.037 -0.9015  0.7749  2.2651
14003SOL     OW43449   0.092   7.293   4.828  0.8057 -0.5740 -0.3899
14003SOL    HW143450   0.038   7.289   4.750 -1.3502  0.7023  0.9277
14003SOL    HW243451   0.092   7.204   4.863 -0.5192 -0.6036 -0.4221
14004SOL     OW43452   3.438   0.238   3.544  0.3626 -0.2226  0.1810
14004SOL    HW143453   3.415   0.279   3.628 -1.3087  0.5224 -0.6036
14004SOL    HW243454   3.477   0.154   3.569  0.1763  0.1117  1.7126
14005SOL     OW43455   4.209   4.774  11.942 -0.6513  0.4945  0.5803
14005SOL    HW143456   4.238   4.755  11.852  0.1519 -0.6425  1.0571
14005SOL    HW243457   4.124   4.815  11.931  0.0053  1.5617 -0.7633
14006SOL     OW43458   3.375   4.606  12.381 -0.1142 -0.0426 -0.7036
14006SOL    HW143459   3.380   4.533  12.443  1.0381 -0.0132 -0.7430
14006SOL    HW243460   3.465   4.638  12.375 -0.4023  0.6152 -1.6083
14007SOL     OW43461   2.200   2.262   1.004  0.4038 -0.4866  0.5013
14007SOL    HW143462   2.293   2.257   0.983  0.3790  0.6022  0.0710
14007SOL    HW243463   2.196   2.260   1.100  0.6835 -2.9912  0.5273
14008SOL     OW43464   2.027   6.637   3.638 -0.5058  0.1211 -0.1853
14008SOL    HW143465   1.951   6.679   3.678  0.8962  0.3749  2.4086
14008SOL    HW243466   2.028   6.670   3.548 -2.2857  1.7063  0.3143
14009SOL     OW43467   6.209   6.222   5.224 -0.4587 -0.2615  0.1242
14009SOL    HW143468   6.256   6.145   5.191  1.1874  0.2990  1.0214
14009SOL    HW243469   6.119   6.210   5.194  0.0482 -1.8565 -0.8996
14010SOL     OW43470   7.184   3.787   6.692 -0.2727  0.5532  0.2980
14010SOL    HW143471   7.137   3.753   6.768  1.2056  0.1088  1.0494
14010SOL    HW243472   7.232   3.712   6.657 -2.0703  0.3821 -2.0277
14011SOL     OW43473   1.978   4.076   3.123  0.1692 -0.2064  0.0150
14011SOL    HW143474   1.898   4.066   3.072  0.3537  1.3278 -0.6288
14011SOL    HW243475   2.044   4.027   3.075  0.0883  0.3135 -0.6393
14012SOL     OW43476   1.087   0.466   1.820 -0.5311 -0.8276 -0.3407
14012SOL    HW143477   1.014   0.470   1.758  0.1218 -0.2389 -1.0885
14012SOL    HW243478   1.159   0.428   1.770  0.0197 -0.2981  0.0469
14013SOL     OW43479   0.602   7.917   7.172  0.5902 -0.3179 -0.2542
14013SOL    HW143480   0.525   7.872   7.138 -1.1700  3.5766 -2.1274
14013SOL    HW243481   0.671   7.900   7.108  0.5999 -1.8078  0.1203
14014SOL     OW43482   3.185   4.299   3.180 -0.3451  0.0931 -0.1798
14014SOL    HW143483   3.109   4.357   3.180 -0.8414 -0.5403 -0.6978
14014SOL    HW243484   3.160   4.227   3.239  0.1335  0.2363  0.1995
14015SOL     OW43485   2.390   0.634   5.312  0.6038 -0.2340 -0.5848
14015SOL    HW143486   2.472   0.603   5.350 -0.0372 -0.9237  0.3024
14015SOL    HW243487   2.330   0.560   5.322 -0.2832  0.4578 -0.6853
14016SOL     OW43488   4.354   0.723   9.524  0.3753 -0.5272  0.1931
14016SOL    HW143489   4.346   0.754   9.614  1.7562 -0.0780  0.1709
14016SOL    HW243490   4.426   0.660   9.527  0.7013 -0.2057 -0.6735
14017SOL     OW43491   3.890   7.467  11.110 -0.3273  0.1517 -0.0297
14017SOL    HW143492   3.855   7.496  11.026 -1.9570  0.5043  0.7318
14017SOL    HW243493   3.836   7.512  11.175  1.7294  0.8937  1.2410
14018SOL     OW43494   6.644   1.820   4.286  0.8089  0.1998 -0.3474
14018SOL    HW143495   6.687   1.836   4.202  2.6106 -1.1194  0.2459
14018SOL    HW243496   6.551   1.817   4.266  1.1602  0.5901 -2.1706
14019SOL     OW43497   4.422   5.875   9.311  0.4178  0.5338 -0.1366
14019SOL    HW143498   4.509   5.914   9.298  1.7437 -1.6192  1.6349
14019SOL    HW243499   4.423   5.795   9.259 -1.8264  2.0600 -2.7643
14020SOL     OW43500   4.786   4.635   2.284 -0.4263 -0.3030  0.1628
14020SOL    HW143501   4.728   4.637   2.207 -0.8764 -0.3966  0.4954
14020SOL    HW243502   4.872   4.611   2.248 -0.5810 -0.1168 -0.3434
14021SOL     OW43503   0.649   3.876   4.894 -0.5318 -0.3599 -0.2460
14021SOL    HW143504   0.556   3.853   4.887 -0.4336 -0.5081 -1.1585
14021SOL    HW243505   0.669   3.865   4.987 -1.2402 -1.0341 -0.1577
14022SOL     OW43506   5.042   4.984   1.725  0.2137 -0.0678  0.3729
14022SOL    HW143507   5.110   5.049   1.707  1.0248 -1.4497 -2.0298
14022SOL    HW243508   5.024   4.994   1.819  2.2653  1.7059  0.6752
14023SOL     OW43509   0.456   1.729   4.171  0.0078  0.1180 -0.5809
14023SOL    HW143510   0.447   1.649   4.222  0.0834 -0.0007 -0.7539
14023SOL    HW243511   0.382   1.783   4.199 -0.3384 -0.2169 -0.8434
14024SOL     OW43512   7.599   7.016   9.821  0.4327 -0.0080 -0.1913
14024SOL    HW143513   7.536   7.008   9.892 -0.7353 -0.7033 -1.2678
14024SOL    HW243514   7.651   6.936   9.826  0.5978  0.1178  0.1100
14025SOL     OW43515   0.134   0.804   6.753  0.3926 -1.0469 -0.7892
14025SOL    HW143516   0.063   0.844   6.703  0.7819 -0.3814 -0.8181
14025SOL    HW243517   0.172   0.739   6.693  1.1416  0.0486 -1.5406
14026SOL     OW43518   5.469   6.687   8.204  1.0014  0.2150  0.2174
14026SOL    HW143519   5.557   6.696   8.167  1.1103 -1.8887 -0.1787
14026SOL    HW243520   5.412   6.734   8.143  1.5694 -0.6144 -1.0052
14027SOL     OW43521   5.512   7.344  10.021 -0.6569  0.0531 -0.5452
14027SOL    HW143522   5.434   7.341  10.077 -0.4164 -1.3119 -0.2456
14027SOL    HW243523   5.561   7.420  10.052 -1.8498  0.9309 -0.7334
14028SOL     OW43524   3.598   0.772   6.838  0.1467  0.0858  0.2312
14028SOL    HW143525   3.542   0.716   6.891 -0.5854  1.4781  0.9706
14028SOL    HW243526   3.548   0.853   6.829  1.6371  1.0040  0.0776
14029SOL     OW43527   4.235   1.166   7.535  0.4061 -0.2030  0.3031
14029SOL    HW143528   4.148   1.161   7.496  0.0498  0.4370  1.0013
14029SOL    HW243529   4.247   1.080   7.576  0.0328 -0.2402  0.3399
14030SOL     OW43530   1.431   1.930   8.689  0.3835 -0.0159 -0.1780
14030SOL    HW143531   1.435   2.022   8.714  0.1109  0.5306 -2.0006
14030SOL    HW243532   1.517   1.895   8.711 -0.1015  0.1405  2.2816
14031SOL     OW43533   2.507   7.397  12.422  0.0935  0.0658 -0.0755
14031SOL    HW143534   2.586   7.379  12.474  0.2266 -2.5503 -1.0385
14031SOL    HW243535   2.439   7.342  12.462 -1.0088  1.4717  0.0728
14032SOL     OW43536   6.891   6.783  11.316  0.5242  0.3726 -0.2613
14032SOL    HW143537   6.803   6.812  11.338  0.5045  0.6886 -0.7370
14032SOL    HW243538   6.921   6.845  11.250  1.8381  1.4108  1.2591
14033SOL     OW43539   4.403   5.799   6.667 -0.1147 -0.0400 -0.0036
14033SOL    HW143540   4.496   5.794   6.647  0.0620 -1.3490  0.9996
14033SOL    HW243541   4.399   5.832   6.756 -0.6391  0.5218 -0.2323
14034SOL     OW43542   2.342   2.461   6.088  0.5018  0.3177 -0.5179
14034SOL    HW143543   2.376   2.455   5.999  0.9085 -1.7481 -0.2912
14034SOL    HW243544   2.359   2.374   6.125 -2.4636  0.0895  0.5689
14035SOL     OW43545   7.735   2.195   2.644  0.2501 -0.0924 -0.0776
14035SOL    HW143546   7.760   2.287   2.652  1.4980 -0.2938 -1.2366
14035SOL    HW243547   7.668   2.194   2.575  0.2671 -0.0563 -0.0944
14036SOL     OW43548   7.116   0.140   7.892  0.3246  0.2350 -0.4534
14036SOL    HW143549   7.079   0.058   7.858 -0.5991  0.7187 -0.6455
14036SOL    HW243550   7.094   0.205   7.825  0.0983  0.8457  0.2054
14037SOL     OW43551   1.643   4.459  12.220  0.3087  0.1028 -0.1197
14037SOL    HW143552   1.605   4.485  12.136  0.2287 -0.7615 -0.3549
14037SOL    HW243553   1.568   4.434  12.273  0.3764  0.4626  0.1509
14038SOL     OW43554   3.496   7.182   5.844 -0.4997 -0.0520 -0.1253
14038SOL    HW143555   3.410   7.182   5.802 -0.1426 -0.2629 -0.8883
14038SOL    HW243556   3.513   7.273   5.866 -0.2324  0.2457 -1.4578
14039SOL     OW43557   2.905   4.418  11.435 -0.1987 -0.1133  0.1061
14039SOL    HW143558   2.824   4.452  11.473 -1.9472 -1.7557 -1.9186
14039SOL    HW243559   2.919   4.471  11.357 -1.3788 -2.0495 -1.5077
14040SOL     OW43560   7.085   2.354   4.121 -0.1084  0.3767 -0.4441
14040SOL    HW143561   7.165   2.333   4.073  1.5454  0.3876  2.0864
14040SOL    HW243562   7.048   2.428   4.074  1.8958  0.9720 -1.2090
14041SOL     OW43563   0.662   4.197  10.889  0.5453  0.3071  0.5046
14041SOL    HW143564   0.647   4.108  10.921 -1.5111  0.9326  1.4497
14041SOL    HW243565   0.703   4.185  10.803  1.7128 -1.4966  1.2556
14042SOL     OW43566   5.216   3.582   0.239 -0.3623  0.4205  0.4378
14042SOL    HW143567   5.153   3.617   0.303 -0.5882  1.6237 -0.4116
14042SOL    HW243568   5.238   3.496   0.273 -4.2654 -1.1389 -0.3885
14043SOL     OW43569   1.132   2.306   6.133  0.0484  0.7835  0.2307
14043SOL    HW143570   1.059   2.326   6.191 -0.1059  1.1118 -0.0781
14043SOL    HW243571   1.111   2.219   6.098 -0.2473  0.9232  0.0581
14044SOL     OW43572   4.025   3.244   0.829 -0.0681 -0.1022  0.1276
14044SOL    HW143573   4.058   3.191   0.756  1.7983  0.6690  0.3469
14044SOL    HW243574   3.993   3.181   0.893  0.4795 -0.8882 -0.3574
14045SOL     OW43575   7.447   7.828  12.181 -0.1204 -0.7158 -0.2820
14045SOL    HW143576   7.380   7.818  12.113 -1.8681 -0.5199  1.3120
14045SOL    HW243577   7.448   7.743  12.226 -1.9293  0.2947  1.8931
14046SOL     OW43578   1.939   1.021  11.457 -0.4411  0.4910  0.2260
14046SOL    HW143579   2.005   1.089  11.444 -0.0166  0.1698  0.6630
14046SOL    HW243580   1.891   1.050  11.534  2.4621 -1.7435  3.1178
14047SOL     OW43581   5.799   1.866   2.853  0.3438 -0.2835 -0.7312
14047SOL    HW143582   5.759   1.952   2.839  0.4734 -0.3684 -1.7061
14047SOL    HW243583   5.850   1.875   2.933 -1.9634 -0.2966  0.8181
14048SOL     OW43584   1.812   6.287   2.338 -0.1610  0.3974 -0.5905
14048SOL    HW143585   1.749   6.215   2.347 -1.4772  1.7910  2.9321
14048SOL    HW243586   1.872   6.276   2.412  1.4700  1.3154 -1.6919
14049SOL     OW43587   4.461   0.632  11.964  0.4049  0.2225 -0.1048
14049SOL    HW143588   4.406   0.578  12.021  0.2227  0.5999  0.0754
14049SOL    HW243589   4.417   0.717  11.960  1.0756  0.5871  0.1988
14050SOL     OW43590   6.751   7.161   1.501  0.0776  0.7982 -0.4064
14050SOL    HW143591   6.696   7.213   1.560  0.1576  1.4397 -0.8846
14050SOL    HW243592   6.746   7.072   1.536 -0.8252  0.9435 -0.1202
14051SOL     OW43593   2.519   7.360   7.535  0.0007 -0.3181 -0.1583
14051SOL    HW143594   2.468   7.426   7.487  2.1618  1.0353 -0.7589
14051SOL    HW243595   2.481   7.360   7.623 -2.5420 -1.1566 -1.1845
14052SOL     OW43596   6.098   3.489   0.855 -0.4110 -0.4215 -0.1118
14052SOL    HW143597   6.187   3.458   0.835 -0.5331 -0.9635  0.1606
14052SOL    HW243598   6.053   3.491   0.771 -0.4645 -1.2094 -0.1115
14053SOL     OW43599   7.935   6.704   9.567 -0.0853  0.4670  0.1329
14053SOL    HW143600   7.842   6.719   9.581  0.2539  2.5693  0.5558
14053SOL    HW243601   7.940   6.656   9.484 -1.5573 -0.6238  0.6356
14054SOL     OW43602   6.436   1.472   6.906 -0.0781  0.5397 -0.0561
14054SOL    HW143603   6.420   1.449   6.814 -0.6198 -2.1941  0.6300
14054SOL    HW243604   6.395   1.401   6.955  3.4893 -0.1665  2.2189
14055SOL     OW43605   7.402   6.433   8.169 -0.2709  0.3933 -0.4748
14055SOL    HW143606   7.447   6.430   8.254 -0.8443 -0.5747 -0.1808
14055SOL    HW243607   7.404   6.525   8.144  0.1413  0.6568  0.4696
14056SOL     OW43608   3.278   3.842   0.394  0.5076 -0.3543  0.1613
14056SOL    HW143609   3.214   3.788   0.347 -1.2032  0.6547  1.2639
14056SOL    HW243610   3.314   3.900   0.327 -0.3055 -0.4086 -0.3317
14057SOL     OW43611   5.749   7.515   2.081  0.1290  0.5785 -0.7623
14057SOL    HW143612   5.764   7.502   2.174 -0.5216 -1.1557 -0.8722
14057SOL    HW243613   5.761   7.609   2.068 -2.1913  1.3269  1.5444
14058SOL     OW43614   3.652   4.904   0.893 -0.0146  0.1924 -0.1944
14058SOL    HW143615   3.573   4.943   0.931 -0.1064  0.3622 -0.5546
14058SOL    HW243616   3.701   4.871   0.969 -0.0960  0.7076  0.0863
14059SOL     OW43617   0.199   1.149  10.422  0.3473  0.8512  0.4624
14059SOL    HW143618   0.131   1.216  10.416 -0.0250  0.5872  1.4965
14059SOL    HW243619   0.167   1.088  10.488  1.1323  0.1739  0.2419
14060SOL     OW43620   4.443   0.919   9.331  0.2155  0.4270 -0.2623
14060SOL    HW143621   4.405   0.879   9.409 -1.5466  1.7390 -0.3760
14060SOL    HW243622   4.464   0.845   9.273  0.1936 -0.4769  0.8546
14061SOL     OW43623   2.159   5.761  11.447 -0.1819 -0.1908 -0.4020
14061SOL    HW143624   2.250   5.791  11.437  0.4854 -1.3281  1.6732
14061SOL    HW243625   2.167   5.669  11.471 -1.8654 -0.1890  0.2666
14062SOL     OW43626   3.878   2.693   5.886  0.1734 -0.5355 -0.2174
14062SOL    HW143627   3.826   2.772   5.899 -1.0248 -1.3667  0.2531
14062SOL    HW243628   3.854   2.636   5.960  0.7190 -1.4803 -0.7489
14063SOL     OW43629   7.940   1.161   5.517  0.1572  0.6196  0.0146
14063SOL    HW143630   7.848   1.137   5.521 -0.0191  1.2014 -0.4113
14063SOL    HW243631   7.981   1.112   5.589 -0.4737  0.3338  0.1850
14064SOL     OW43632   2.110   3.367   9.447 -0.1760  0.3954 -0.0073
14064SOL    HW143633   2.132   3.307   9.518  2.4453 -1.0245 -1.8340
14064SOL    HW243634   2.175   3.436   9.453  0.3282  0.0507 -1.1921
14065SOL     OW43635   1.280   7.532   1.867 -0.5165 -0.1552  0.0870
14065SOL    HW143636   1.330   7.472   1.811  0.6544 -0.7486  1.7033
14065SOL    HW243637   1.224   7.580   1.806  0.8098 -0.6633 -1.6073
14066SOL     OW43638   2.321   4.883   3.646 -0.2159 -0.0606  0.0888
14066SOL    HW143639   2.411   4.915   3.643 -0.1784 -0.1363  0.3406
14066SOL    HW243640   2.319   4.808   3.587 -0.1324 -0.0103  0.0228
14067SOL     OW43641   6.976   1.036   0.643  0.0361  0.0893  0.1340
14067SOL    HW143642   6.957   1.039   0.736  0.7189  2.1570  0.2629
14067SOL    HW243643   6.893   1.057   0.600 -0.0669  0.0453  0.3142
14068SOL     OW43644   5.233   6.069   1.218  0.8430  0.4709  0.0037
14068SOL    HW143645   5.158   6.009   1.219 -0.0606  1.2967 -3.3511
14068SOL    HW243646   5.207   6.142   1.273  0.5566 -0.6418  1.4029
14069SOL     OW43647   4.778   7.024  11.411  0.4407 -0.0858  0.0847
14069SOL    HW143648   4.794   6.933  11.434  0.6094 -0.3314 -0.9581
14069SOL    HW243649   4.692   7.043  11.450  1.8816  0.4411  3.4076
14070SOL     OW43650   5.986   5.050   0.765 -0.0846 -0.0683  0.6219
14070SOL    HW143651   6.082   5.054   0.761 -0.0772 -0.3618  0.5121
14070SOL    HW243652   5.961   4.996   0.691 -0.1733 -2.2308  2.1293
14071SOL     OW43653   4.090   5.524  10.181 -0.2388 -0.2264  0.0743
14071SOL    HW143654   4.139   5.496  10.104 -0.7286  2.5741 -1.3864
14071SOL    HW243655   3.998   5.519  10.154 -0.4938 -0.5974  0.9887
14072SOL     OW43656   2.507   4.512   3.472  0.6974 -0.0982 -0.3128
14072SOL    HW143657   2.447   4.585   3.458  2.3489  1.1056 -1.4684
14072SOL    HW243658   2.465   4.438   3.427 -0.6737  0.2684  0.3034
14073SOL     OW43659   4.365   6.403   5.625  0.1290 -0.2163 -0.2428
14073SOL    HW143660   4.330   6.341   5.561  2.1859  0.3171 -2.0133
14073SOL    HW243661   4.289   6.451   5.657 -1.1962 -1.9159 -0.7342
14074SOL     OW43662   5.915   1.370   5.199  0.0276 -0.0457  0.1107
14074SOL    HW143663   5.968   1.414   5.132  0.0397 -1.7753 -1.0653
14074SOL    HW243664   5.909   1.280   5.169 -1.0752 -0.5660  1.8001
14075SOL     OW43665   0.992   0.451   5.608  0.4919 -0.1567 -0.3820
14075SOL    HW143666   0.984   0.376   5.668  1.8673  0.3909  0.5193
14075SOL    HW243667   1.084   0.451   5.581  0.0119 -0.0819 -2.1276
14076SOL     OW43668   4.449   1.950   6.860 -0.1331 -0.4468  0.2752
14076SOL    HW143669   4.379   2.012   6.842 -0.0634 -0.1696  0.9110
14076SOL    HW243670   4.511   1.998   6.915  1.3699 -0.1865 -1.5443
14077SOL     OW43671   3.827   0.360   9.378  0.0838  0.4619 -0.3917
14077SOL    HW143672   3.917   0.358   9.345  0.8963 -0.9453  1.6876
14077SOL    HW243673   3.812   0.450   9.404  1.3607  0.4707  0.3725
14078SOL     OW43674   5.971   6.557   7.820 -0.2770 -0.6302  0.1099
14078SOL    HW143675   6.011   6.504   7.751 -0.6676  0.2220 -0.8001
14078SOL    HW243676   6.010   6.644   7.809 -1.5553 -0.0584 -0.1090
14079SOL     OW43677   3.073   0.576   7.831  0.0008 -0.2271 -0.2032
14079SOL    HW143678   3.097   0.505   7.772  1.6953 -0.2749  0.4851
14079SOL    HW243679   3.105   0.655   7.787 -0.9296  0.0101 -0.4720
14080SOL     OW43680   6.263   7.016   0.533  0.2506  0.3984  0.6072
14080SOL    HW143681   6.310   7.099   0.521 -0.1068  0.2968 -2.3853
14080SOL    HW243682   6.329   6.949   0.516  0.1403  0.1188  1.2755
14081SOL     OW43683   3.487   7.607  11.018  0.2003 -0.0130  0.3999
14081SOL    HW143684   3.528   7.684  11.058  2.7774 -0.0452 -1.8699
14081SOL    HW243685   3.552   7.537  11.029  0.5813 -0.2723 -2.7115
14082SOL     OW43686   5.342   6.766  12.276 -0.4385  0.3771 -0.2449
14082SOL    HW143687   5.253   6.759  12.310 -0.5364 -3.0105 -0.7972
14082SOL    HW243688   5.331   6.785  12.183 -0.6455 -0.3489 -0.3792
14083SOL     OW43689   6.814   1.588   3.121 -0.1008  0.3560 -0.0193
14083SOL    HW143690   6.832   1.595   3.215  0.0344  0.0060 -0.0144
14083SOL    HW243691   6.735   1.640   3.108 -1.0604 -0.8876  0.5823
14084SOL     OW43692   3.481   1.243  11.486  0.0578 -0.2420  0.0182
14084SOL    HW143693   3.456   1.255  11.577 -1.2413 -3.5313  0.2511
14084SOL    HW243694   3.398   1.229  11.440  0.7662  0.2173 -1.4784
14085SOL     OW43695   4.521   2.768   7.256 -0.1647  0.1825  0.4730
14085SOL    HW143696   4.511   2.863   7.259 -1.6988  0.0350  0.7482
14085SOL    HW243697   4.449   2.738   7.201  2.5430 -0.5768 -2.9855
14086SOL     OW43698   6.395   0.564   2.781  0.1484  0.3943 -0.3515
14086SOL    HW143699   6.358   0.651   2.763  1.5275  0.9934 -0.4096
14086SOL    HW243700   6.319   0.506   2.784 -0.8827  1.7419  0.5346
14087SOL     OW43701   7.207   2.942   9.497  0.4748 -0.5036  0.3057
14087SOL    HW143702   7.205   2.860   9.448 -1.6155 -0.1663 -0.2598
14087SOL    HW243703   7.240   2.917   9.584  1.1842 -1.6714 -0.2774
14088SOL     OW43704   6.322   6.646   5.809 -0.0291 -0.0865 -0.2297
14088SOL    HW143705   6.227   6.636   5.800  0.0780 -0.7122 -0.7932
14088SOL    HW243706   6.355   6.556   5.810  0.8247  0.0783 -3.3734
14089SOL     OW43707   7.508   4.462   4.627 -0.0667 -0.2452  0.0528
14089SOL    HW143708   7.462   4.382   4.603  0.2327 -0.6544  0.8037
14089SOL    HW243709   7.483   4.526   4.560 -0.5981 -0.8608 -0.3415
14090SOL     OW43710   7.602   2.709   3.673  0.3631  0.8112 -0.4572
14090SOL    HW143711   7.608   2.671   3.585  0.1993 -2.0574  0.6438
14090SOL    HW243712   7.687   2.750   3.687  0.5985  0.8126 -1.7431
14091SOL     OW43713   6.019   4.113   2.646  0.4416  0.6883 -0.4554
14091SOL    HW143714   6.046   4.202   2.669  1.2250  0.2201  0.5547
14091SOL    HW243715   5.924   4.113   2.654  0.5685  0.8443  2.0055
14092SOL     OW43716   4.264   5.081  11.702  1.0113  0.0955 -0.2307
14092SOL    HW143717   4.325   5.105  11.632  1.9925 -1.9841 -0.1703
14092SOL    HW243718   4.306   5.113  11.782  2.5432 -2.0111 -0.0986
14093SOL     OW43719   6.534   1.208   1.862 -0.0624 -0.2323  0.0986
14093SOL    HW143720   6.478   1.279   1.893  1.2804  0.2572  1.5648
14093SOL    HW243721   6.614   1.251   1.834  0.1569 -1.0438 -0.5596
14094SOL     OW43722   0.229   5.379   9.265  0.2400 -0.5477  0.5240
14094SOL    HW143723   0.280   5.452   9.228  1.5242 -1.4760  0.4005
14094SOL    HW243724   0.295   5.321   9.303 -0.8618 -0.9755  1.8580
14095SOL     OW43725   7.140   5.084   4.542 -0.2500 -0.2242  0.5604
14095SOL    HW143726   7.078   5.024   4.584  0.6776 -2.3584 -0.9084
14095SOL    HW243727   7.095   5.112   4.462 -0.1856 -0.0054  0.6018
14096SOL     OW43728   6.916   6.520   2.311  0.0136 -0.3869  0.0600
14096SOL    HW143729   6.986   6.489   2.368 -0.9241 -1.7785  0.5076
14096SOL    HW243730   6.910   6.455   2.241 -1.2305 -0.6340  0.3693
14097SOL     OW43731   2.188   3.903  11.431 -0.1464 -0.5559  0.6014
14097SOL    HW143732   2.252   3.973  11.440 -0.6811 -0.1949  1.9254
14097SOL    HW243733   2.184   3.885  11.337 -0.2054  1.3973  0.1829
14098SOL     OW43734   0.325   3.480  10.595  0.6522  0.4947  0.1512
14098SOL    HW143735   0.298   3.528  10.517  1.9468  2.1129  0.6433
14098SOL    HW243736   0.339   3.547  10.661 -0.7329 -0.8641  1.9098
14099SOL     OW43737   1.712   3.851  10.054 -0.0704 -0.6633 -0.1619
14099SOL    HW143738   1.781   3.813   9.999 -0.5648 -0.4039 -0.9859
14099SOL    HW243739   1.661   3.906   9.994 -1.2969 -1.2354  0.3105
14100SOL     OW43740   0.716   7.967   9.761  0.4196 -0.3485  0.4321
14100SOL    HW143741   0.755   7.938   9.843 -1.4382 -1.1429  1.0910
14100SOL    HW243742   0.669   7.890   9.728 -0.8864  0.6271 -0.0928
14101SOL     OW43743   0.559   1.079  10.844  0.1682 -0.1556 -0.0096
14101SOL    HW143744   0.589   1.076  10.753  0.5694 -1.3354  0.1526
14101SOL    HW243745   0.557   1.172  10.866 -0.8596  0.2158 -1.5300
14102SOL     OW43746   3.106   1.978  11.567  0.1645  0.2240  0.0972
14102SOL    HW143747   3.065   2.051  11.520 -0.5612 -0.4277 -0.3107
14102SOL    HW243748   3.048   1.963  11.641 -0.3481 -0.6892 -0.4715
14103SOL     OW43749   3.790   3.827   1.594 -0.0699 -0.0859 -0.0327
14103SOL    HW143750   3.854   3.896   1.609  1.0300 -0.9632 -0.5074
14103SOL    HW243751   3.728   3.864   1.531  0.5984  0.4141 -0.4092
14104SOL     OW43752   0.185   2.014   9.801 -0.5684 -0.6671  0.2709
14104SOL    HW143753   0.267   2.049   9.765 -0.7687 -1.1519 -0.6857
14104SOL    HW243754   0.164   2.072   9.873 -0.4564  0.6919 -0.7561
14105SOL     OW43755   5.309   7.869  11.342 -0.3417 -0.6253 -0.7791
14105SOL    HW143756   5.282   7.806  11.409  2.8731 -0.2498  1.0848
14105SOL    HW243757   5.397   7.895  11.368 -0.1618  1.9857 -3.4700
14106SOL     OW43758   5.706   3.246  11.288  0.3578  0.4998  0.4773
14106SOL    HW143759   5.629   3.290  11.326 -0.8878  0.8335 -2.1945
14106SOL    HW243760   5.672   3.203  11.209  2.2370 -2.4245  1.0941
14107SOL     OW43761   3.643   3.937   4.437  0.3192  0.0680  0.2430
14107SOL    HW143762   3.587   4.009   4.466 -0.6927 -1.2668  1.7400
14107SOL    HW243763   3.637   3.939   4.341  1.2321  2.6361  0.1583
14108SOL     OW43764   4.723   4.853   8.682 -0.3580 -0.3474  0.2006
14108SOL    HW143765   4.657   4.845   8.751 -1.3006 -1.6021 -0.8039
14108SOL    HW243766   4.777   4.775   8.692  0.1955  0.0280  0.2017
14109SOL     OW43767   4.288   6.212   9.847 -0.4534  0.7511  0.0267
14109SOL    HW143768   4.271   6.213   9.941 -1.8396 -2.9017 -0.0146
14109SOL    HW243769   4.265   6.123   9.819  1.5855  1.1223 -3.4902
14110SOL     OW43770   2.712   0.515   3.896  0.4315 -0.1549  0.0184
14110SOL    HW143771   2.751   0.601   3.908  0.2995  0.3865 -2.7732
14110SOL    HW243772   2.787   0.457   3.880  0.4220 -0.2758  0.3955
14111SOL     OW43773   7.350   2.794   3.717 -0.0219 -0.7251 -0.5217
14111SOL    HW143774   7.442   2.779   3.695  0.1410  2.8687 -3.0731
14111SOL    HW243775   7.304   2.791   3.634 -2.1712 -1.7792  0.6307
14112SOL     OW43776   3.970   7.142   6.426 -0.0107 -0.0364 -0.8144
14112SOL    HW143777   3.905   7.179   6.366 -0.8181 -1.6273 -0.9785
14112SOL    HW243778   3.957   7.191   6.507  0.2434  1.2915 -1.5536
14113SOL     OW43779   6.291   1.429   2.879 -0.5365 -0.3723 -0.1388
14113SOL    HW143780   6.332   1.403   2.961  0.0685 -0.9369 -0.6081
14113SOL    HW243781   6.362   1.466   2.827 -1.2745  1.8618  0.3231
14114SOL     OW43782   1.650   2.366   8.747  0.7031 -0.5516  0.0986
14114SOL    HW143783   1.645   2.440   8.687  0.0354 -0.8107 -0.1747
14114SOL    HW243784   1.668   2.406   8.833 -0.5770  0.0183  0.1248
14115SOL     OW43785   5.496   0.016   3.308  0.1728  0.2217 -0.7548
14115SOL    HW143786   5.471   0.050   3.222 -0.9601  0.1922 -0.4490
14115SOL    HW243787   5.414  -0.014   3.347  0.7473 -0.2475  0.1333
14116SOL     OW43788   1.735   1.024   1.711 -0.4147  0.0752 -0.6737
14116SOL    HW143789   1.722   1.067   1.627 -2.2221  1.3128  0.1684
14116SOL    HW243790   1.685   1.077   1.773  0.9356 -0.7344  1.2171
14117SOL     OW43791   5.037   5.496   4.597 -0.3393 -0.2676  0.4526
14117SOL    HW143792   4.945   5.519   4.581 -0.8781 -1.8445  1.0486
14117SOL    HW243793   5.036   5.401   4.607  1.4462 -0.3636  0.0288
14118SOL     OW43794   6.311   0.450   1.505 -0.2973 -0.0080  0.5122
14118SOL    HW143795   6.232   0.403   1.478  1.1883 -1.7637 -1.0473
14118SOL    HW243796   6.334   0.504   1.429  0.1279  0.3273  0.8709
14119SOL     OW43797   2.190   3.356   3.444 -0.0072 -0.3215  0.2209
14119SOL    HW143798   2.177   3.440   3.489  1.0621  0.7736 -1.3789
14119SOL    HW243799   2.221   3.297   3.513 -0.1192  0.7879  1.2681
14120SOL     OW43800   4.366   3.262  10.334  0.1163  0.3179  0.0973
14120SOL    HW143801   4.384   3.353  10.311 -1.3910  1.0746  1.6859
14120SOL    HW243802   4.275   3.262  10.364  0.5002 -1.4405  1.4419
14121SOL     OW43803   5.753   7.824   2.957 -0.6668  0.2714 -0.6259
14121SOL    HW143804   5.662   7.854   2.961 -0.8091  0.0747 -1.9310
14121SOL    HW243805   5.771   7.818   2.863  0.3331 -0.7862 -0.3735
14122SOL     OW43806   6.749   0.835   7.610  0.0951 -0.2332 -0.0412
14122SOL    HW143807   6.829   0.814   7.562  0.2018  2.2201 -1.0884
14122SOL    HW243808   6.679   0.826   7.545 -0.1074  0.4770  0.0747
14123SOL     OW43809   2.363   7.455   8.155  0.5553 -0.3364  0.1228
14123SOL    HW143810   2.343   7.509   8.232  0.4595 -0.1639 -0.0210
14123SOL    HW243811   2.288   7.396   8.147  0.1528  0.2288 -0.3455
14124SOL     OW43812   7.732   4.099   5.962 -0.2324  0.5432  0.0168
14124SOL    HW143813   7.795   4.062   5.900  0.5323  1.7054  0.0773
14124SOL    HW243814   7.775   4.093   6.047 -0.8224 -0.0102  0.2905
14125SOL     OW43815   4.431   6.932   4.347 -0.0685  0.4423 -0.1167
14125SOL    HW143816   4.467   6.880   4.275  1.5821 -1.7392  2.0773
14125SOL    HW243817   4.494   6.920   4.418 -0.9386  3.5197  1.3514
14126SOL     OW43818   5.077   5.410   3.810  0.0217 -0.0450  0.0195
14126SOL    HW143819   5.021   5.488   3.804 -1.8608 -1.2392  1.0817
14126SOL    HW243820   5.106   5.408   3.901 -0.1291 -0.7211  0.0553
14127SOL     OW43821   3.756   4.229   5.204  0.7168 -0.2082 -0.4521
14127SOL    HW143822   3.836   4.257   5.248 -0.0130 -0.5209  1.1269
14127SOL    HW243823   3.749   4.287   5.128  1.5415  0.9529  0.3275
14128SOL     OW43824   6.931   2.999   1.018 -0.2976  0.2521 -0.6384
14128SOL    HW143825   6.888   2.962   1.095 -0.6449  1.4945 -0.2086
14128SOL    HW243826   6.869   2.986   0.947  0.0199 -0.8939 -0.7232
14129SOL     OW43827   3.999   1.350   9.245 -0.4625  0.2247  0.7212
14129SOL    HW143828   4.065   1.296   9.200 -0.3105 -0.0298  1.2381
14129SOL    HW243829   3.961   1.404   9.176 -0.7965 -0.7265  0.1419
14130SOL     OW43830   6.087   2.174   5.402 -0.4531  0.3011  0.0557
14130SOL    HW143831   6.032   2.127   5.340 -0.4353 -1.5262  1.3508
14130SOL    HW243832   6.030   2.191   5.477 -0.2894  1.8941 -0.1389
14131SOL     OW43833   0.364   2.150  10.878  0.1029  0.7405 -0.3242
14131SOL    HW143834   0.445   2.153  10.828 -0.1200  2.9762 -0.6403
14131SOL    HW243835   0.299   2.117  10.817  0.4705  0.2679 -0.4743
14132SOL     OW43836   0.823   5.090   5.599 -0.0159  0.4214 -0.2110
14132SOL    HW143837   0.895   5.058   5.654 -0.3008  0.4783  0.2019
14132SOL    HW243838   0.829   5.185   5.605  0.4067  0.4367 -0.8783
14133SOL     OW43839   0.382   0.672   8.532  0.7259 -0.5027  0.1268
14133SOL    HW143840   0.419   0.607   8.591 -0.2965 -0.4830  0.8152
14133SOL    HW243841   0.364   0.624   8.451  0.3961 -0.9844  0.4800
14134SOL     OW43842   3.371   3.608   5.039 -0.1370 -0.0396 -0.1316
14134SOL    HW143843   3.384   3.532   4.982  1.4623  0.1352 -0.0611
14134SOL    HW243844   3.288   3.591   5.084  0.8401 -2.4569  0.9342
14135SOL     OW43845   1.681   3.279   5.763 -0.4275  0.1691  0.2546
14135SOL    HW143846   1.756   3.220   5.766  1.0743  1.9471 -0.1563
14135SOL    HW243847   1.699   3.344   5.831 -1.7906  0.4384  0.3794
14136SOL     OW43848   4.115   7.294   8.368  0.3413 -0.3366 -0.6456
14136SOL    HW143849   4.062   7.236   8.313  1.3279 -1.4632 -0.4325
14136SOL    HW243850   4.105   7.380   8.328 -1.3838 -0.5667 -0.8057
14137SOL     OW43851   6.328   7.303  11.499  0.4649 -0.3520  0.0642
14137SOL    HW143852   6.276   7.258  11.566  0.3429 -0.2525  0.0379
14137SOL    HW243853   6.287   7.390  11.492  1.1163  0.0134  0.6150
14138SOL     OW43854   6.758   1.980   6.207 -0.7397 -0.6651  0.3918
14138SOL    HW143855   6.673   1.975   6.252 -0.5467  1.7853  1.1657
14138SOL    HW243856   6.748   1.923   6.132 -3.1233 -0.4278  0.4451
14139SOL     OW43857   5.897   6.057   5.126  0.2882  0.8755 -0.5111
14139SOL    HW143858   5.888   6.151   5.117  0.1881  0.7580 -1.8520
14139SOL    HW243859   5.808   6.023   5.116 -0.0984  0.7588  2.4150
14140SOL     OW43860   2.416   6.802   3.960 -0.0146  0.3441 -0.4877
14140SOL    HW143861   2.435   6.713   3.991  0.5533  0.3806 -0.7112
14140SOL    HW243862   2.495   6.828   3.912  0.7115  1.7264  1.2887
14141SOL     OW43863   1.642   5.330   1.556 -0.5314  0.0056 -0.0182
14141SOL    HW143864   1.547   5.317   1.559 -0.7403  0.7164 -1.9167
14141SOL    HW243865   1.655   5.423   1.575 -0.3546  0.1976 -0.9941
14142SOL     OW43866   3.110   1.615   7.837 -0.1878  0.1038 -0.1792
14142SOL    HW143867   3.178   1.658   7.889  0.1744 -0.0184 -0.5495
14142SOL    HW243868   3.032   1.668   7.852  0.1251  0.5748 -0.2004
14143SOL     OW43869   6.865   6.893   0.713  0.8774 -0.5328 -0.0168
14143SOL    HW143870   6.796   6.956   0.694  1.0896 -0.5882 -1.0370
14143SOL    HW243871   6.946   6.939   0.689  1.1026 -0.8620  0.1076
14144SOL     OW43872   4.090   4.979   3.885  0.2521 -0.0565 -0.5576
14144SOL    HW143873   4.033   4.920   3.934 -1.1482 -0.2459 -2.3032
14144SOL    HW243874   4.157   4.923   3.848 -0.2446 -0.3530 -1.0281
14145SOL     OW43875   3.712   5.823  11.250 -0.1514 -0.2304 -0.1663
14145SOL    HW143876   3.630   5.847  11.294  0.3224 -0.7271  1.0518
14145SOL    HW243877   3.781   5.858  11.308  0.5091  0.8405 -1.5509
14146SOL     OW43878   1.582   5.178  10.340  0.2194  0.0097  0.1359
14146SOL    HW143879   1.535   5.136  10.268  0.0149  1.1229 -0.4026
14146SOL    HW243880   1.521   5.245  10.371  0.3613 -0.3639  1.2658
14147SOL     OW43881   2.982   6.196   1.665  0.2713 -0.2839  0.1709
14147SOL    HW143882   2.973   6.104   1.688  1.8849 -0.6516 -0.5663
14147SOL    HW243883   3.020   6.237   1.743  0.7764 -0.4982  0.0373
14148SOL     OW43884   5.115   5.240   5.857 -0.0860 -0.1824  0.1312
14148SOL    HW143885   5.050   5.192   5.908 -1.5538  1.2041 -0.3016
14148SOL    HW243886   5.184   5.263   5.919  0.4305 -2.3971  0.4271
14149SOL     OW43887   3.594   6.156   3.944  0.1877  0.8420  0.4939
14149SOL    HW143888   3.621   6.066   3.966 -1.3988  0.1541 -0.1950
14149SOL    HW243889   3.659   6.185   3.880  1.9137  0.9892  2.2148
14150SOL     OW43890   2.141   1.053   8.842 -0.1810  0.1519 -0.7028
14150SOL    HW143891   2.157   0.991   8.912 -1.1428  0.5777 -0.0935
14150SOL    HW243892   2.110   0.999   8.769 -3.8061  0.0921  0.6964
14151SOL     OW43893   6.699   6.629   5.955  0.1276 -0.0617 -0.1770
14151SOL    HW143894   6.669   6.671   5.875 -0.6280 -0.2782 -0.0102
14151SOL    HW243895   6.689   6.535   5.939  0.4769 -0.1277 -0.0261
14152SOL     OW43896   0.174   3.144   3.491 -0.1117 -0.0128 -0.7389
14152SOL    HW143897   0.261   3.166   3.457 -0.7739  2.0860 -1.2549
14152SOL    HW243898   0.162   3.204   3.566 -0.6424 -1.1249  0.0882
14153SOL     OW43899   4.588   7.970   8.188  0.7446  0.3945 -0.0399
14153SOL    HW143900   4.598   7.893   8.244 -0.6313 -0.7330 -1.2532
14153SOL    HW243901   4.597   8.044   8.248  0.9636 -0.7184  1.3687
14154SOL     OW43902   1.093   2.221   4.955  0.1577  0.5153 -0.0054
14154SOL    HW143903   1.078   2.312   4.980  1.5602  0.5544  0.7539
14154SOL    HW243904   1.178   2.221   4.911 -0.7728 -0.1017 -1.9433
14155SOL     OW43905   4.053   7.070  10.523 -0.4804  0.7190 -0.2760
14155SOL    HW143906   4.070   6.982  10.489  0.0256  0.0527  1.5868
14155SOL    HW243907   4.137   7.097  10.561 -0.7456  1.8558 -0.4648
14156SOL     OW43908   4.133   2.438  10.332 -0.8824  0.0616 -0.2491
14156SOL    HW143909   4.199   2.449  10.400  0.0694  1.0081 -1.2832
14156SOL    HW243910   4.118   2.343  10.329 -1.3722  0.0480  1.6343
14157SOL     OW43911   2.103   4.738   4.165  0.0714  0.4978  0.5043
14157SOL    HW143912   2.170   4.763   4.228 -0.0211  1.3056  0.2937
14157SOL    HW243913   2.151   4.723   4.084  0.2386 -0.8983  0.8257
14158SOL     OW43914   7.199   6.670  10.252 -0.0754 -0.7107  0.6627
14158SOL    HW143915   7.263   6.712  10.195 -1.1204  2.7981  1.8258
14158SOL    HW243916   7.247   6.652  10.333  0.1725 -1.0187  0.4511
14159SOL     OW43917   1.039   2.337   1.274  0.9655  0.0313 -0.0542
14159SOL    HW143918   1.041   2.242   1.290  1.2601  0.1510  0.6230
14159SOL    HW243919   0.946   2.357   1.263  1.0283 -0.8651 -3.5482
14160SOL     OW43920   1.622   6.050   3.358 -0.0621 -0.3024  0.1870
14160SOL    HW143921   1.615   6.140   3.390  0.5354 -0.5862  1.1657
14160SOL    HW243922   1.705   6.048   3.311 -0.4480 -0.1510 -0.5130
14161SOL     OW43923   5.361   3.577  11.317 -0.6605  0.7143  0.2440
14161SOL    HW143924   5.329   3.583  11.407  1.8909  3.1415  1.1180
14161SOL    HW243925   5.414   3.497  11.316 -0.0557  1.0821  1.1645
14162SOL     OW43926   6.529   1.707   1.895  0.3217  0.7442 -0.2778
14162SOL    HW143927   6.495   1.794   1.873  0.3220  0.5577 -1.0390
14162SOL    HW243928   6.607   1.697   1.840  1.4726  1.0466  1.2376
14163SOL     OW43929   1.685   0.674   0.857  0.9241  0.0790  0.3762
14163SOL    HW143930   1.660   0.738   0.791 -0.6389  0.2651  1.1195
14163SOL    HW243931   1.614   0.610   0.857  1.8363 -0.9878  0.5512
14164SOL     OW43932   0.719   7.312   5.002 -0.7492 -0.1270 -0.2899
14164SOL    HW143933   0.794   7.364   4.975 -1.9641  1.7822 -0.1706
14164SOL    HW243934   0.669   7.370   5.060 -2.9533 -0.8566 -1.3447
14165SOL     OW43935   4.770   0.677   2.905 -0.3285 -0.0856 -0.1201
14165SOL    HW143936   4.703   0.705   2.967 -1.9957  2.1766 -2.7163
14165SOL    HW243937   4.733   0.600   2.862 -0.4697  0.0704 -0.2811
14166SOL     OW43938   2.944   4.329   7.114  0.1362 -0.2978 -0.3526
14166SOL    HW143939   2.889   4.371   7.049  0.5930  0.4459 -0.2705
14166SOL    HW243940   3.030   4.322   7.072  0.8298  1.5368  0.6650
14167SOL     OW43941   4.999   4.937   3.705 -0.4345  0.1195  0.4999
14167SOL    HW143942   4.920   4.948   3.652  0.5666  0.1496 -1.0338
14167SOL    HW243943   5.038   5.024   3.710 -1.0300  0.3382  2.2053
14168SOL     OW43944   6.669   0.850  10.281  0.0140 -0.4016  0.4871
14168SOL    HW143945   6.740   0.872  10.220  0.7211 -0.8537  1.1286
14168SOL    HW243946   6.620   0.931  10.291  0.3929 -0.1028 -0.0324
14169SOL     OW43947   2.232   4.722   8.589  0.5868 -0.3986 -0.6484
14169SOL    HW143948   2.212   4.685   8.675 -1.2513 -0.9282 -1.2504
14169SOL    HW243949   2.328   4.720   8.583  0.6771 -2.3678  0.5318
14170SOL     OW43950   0.893   0.800  12.126  0.5773  0.1880 -0.0267
14170SOL    HW143951   0.922   0.710  12.140  0.6740  0.1696 -0.3403
14170SOL    HW243952   0.825   0.814  12.193 -1.3210 -0.9765 -1.6119
14171SOL     OW43953   1.303   5.092   1.586  0.0412  0.5565 -0.1972
14171SOL    HW143954   1.341   5.177   1.563 -0.5729  0.9925  0.3609
14171SOL    HW243955   1.362   5.057   1.653 -0.2975  1.0327  0.3513
14172SOL     OW43956   6.190   6.587   6.232  0.6409 -0.5647  0.4293
14172SOL    HW143957   6.242   6.532   6.173 -0.9721  0.2501 -1.9042
14172SOL    HW243958   6.212   6.676   6.207 -0.1966 -0.1974  0.9617
14173SOL     OW43959   1.892   5.509   0.803  0.2754  0.4504 -0.5082
14173SOL    HW143960   1.909   5.422   0.768 -0.0302  0.8456 -1.6671
14173SOL    HW243961   1.969   5.528   0.857  1.6666  0.5625 -2.4486
14174SOL     OW43962   2.826   7.282  11.209  0.9630 -0.0349  0.2710
14174SOL    HW143963   2.916   7.251  11.220  0.3342 -2.4562 -0.7271
14174SOL    HW243964   2.806   7.328  11.291  2.8350 -0.1295  0.8196
14175SOL     OW43965   7.711   2.393  10.643 -0.0586 -0.5737 -0.3009
14175SOL    HW143966   7.800   2.427  10.650 -0.3402  0.6848 -2.0434
14175SOL    HW243967   7.703   2.330  10.714  1.8012  0.2115  0.6654
14176SOL     OW43968   1.647   0.918   0.147  0.1023 -0.1868  0.3568
14176SOL    HW143969   1.617   0.955   0.229  0.9166  0.9486  0.1594
14176SOL    HW243970   1.709   0.849   0.172  1.4297  1.0967  0.7020
14177SOL     OW43971   2.053   2.254   6.192  0.0773 -0.3745  0.2744
14177SOL    HW143972   1.999   2.188   6.237  0.2305 -0.0433  0.9432
14177SOL    HW243973   2.032   2.336   6.236 -0.1159  0.0361 -0.5656
14178SOL     OW43974   7.366   3.212   0.903  0.1938 -0.1986  0.3622
14178SOL    HW143975   7.389   3.146   0.969 -2.3165 -1.4223  0.1044
14178SOL    HW243976   7.357   3.163   0.822  4.0551  1.3845 -1.3079
14179SOL     OW43977   4.235   5.576   1.325  0.4287  0.5778  0.0991
14179SOL    HW143978   4.240   5.629   1.404  0.5235 -0.5856  0.9124
14179SOL    HW243979   4.326   5.560   1.300  0.4281  0.0266  0.4201
14180SOL     OW43980   0.576   2.796   1.697  0.6272 -0.1441  0.1957
14180SOL    HW143981   0.516   2.839   1.758 -0.9002 -0.7595 -0.7962
14180SOL    HW243982   0.552   2.704   1.700 -0.8308  0.0314 -2.6525
14181SOL     OW43983   1.134   3.567   2.817 -0.5771 -0.4803 -0.1933
14181SOL    HW143984   1.202   3.635   2.818 -0.0756 -0.9351 -1.2326
14181SOL    HW243985   1.112   3.553   2.909  1.1371 -0.7003  0.2184
14182SOL     OW43986   3.860   7.055   5.509 -0.0883 -0.3759 -0.1525
14182SOL    HW143987   3.778   7.031   5.552 -0.1115 -0.3863 -0.2026
14182SOL    HW243988   3.917   7.085   5.580  1.4149 -4.4055  0.6168
14183SOL     OW43989   3.584   6.925   4.242 -0.1246  0.4245 -0.2132
14183SOL    HW143990   3.590   6.848   4.299 -0.8840  0.1670 -0.4763
14183SOL    HW243991   3.535   6.895   4.165  0.3078  0.9493 -0.7030
14184SOL     OW43992   4.077   6.544   0.747 -0.2920 -0.1555 -0.0332
14184SOL    HW143993   4.083   6.528   0.842 -1.3980  1.4580  0.3459
14184SOL    HW243994   4.121   6.468   0.708 -0.1289 -1.0527  1.7520
14185SOL     OW43995   0.009   5.954   7.413  0.2865 -0.1329  0.1219
14185SOL    HW143996   0.028   5.928   7.504  1.8817 -0.8164 -0.3716
14185SOL    HW243997   0.000   5.870   7.367  0.9281  0.2117 -0.6293
14186SOL     OW43998   3.821   1.285  11.060  0.1084  0.2169  0.0715
14186SOL    HW143999   3.824   1.318  11.150 -0.2567 -2.9838  1.3999
14186SOL    HW244000   3.911   1.255  11.043  0.2414  1.0515 -0.7686
14187SOL     OW44001   0.407   3.214  11.011  0.2822  0.1338  0.2519
14187SOL    HW144002   0.492   3.171  11.005  0.2962 -0.2291  2.3841
14187SOL    HW244003   0.344   3.146  10.987  0.3740 -0.8749  2.6014
14188SOL     OW44004   4.469   0.642   7.998  0.9270  0.1799 -0.4216
14188SOL    HW144005   4.466   0.547   7.986 -0.3809  0.2532 -0.8014
14188SOL    HW244006   4.377   0.669   8.003  1.2584  1.5042 -0.9565
14189SOL     OW44007   7.388   6.670   3.663  0.0592  0.1892 -0.3018
14189SOL    HW144008   7.412   6.588   3.706  1.7902 -0.8241 -2.9469
14189SOL    HW244009   7.321   6.645   3.599 -2.6056  1.6858  1.6832
14190SOL     OW44010   0.152   3.668   0.239 -0.1464  0.0486 -0.5355
14190SOL    HW144011   0.098   3.742   0.268 -0.5331 -0.0193 -1.0648
14190SOL    HW244012   0.234   3.708   0.211  0.1808  0.1330  0.4815
14191SOL     OW44013   6.115   0.579   6.803 -0.5989 -0.5749  0.4008
14191SOL    HW144014   6.139   0.588   6.710 -0.5094 -0.0485  0.4725
14191SOL    HW244015   6.024   0.609   6.807 -0.2063  0.6459  0.6913
14192SOL     OW44016   6.532   7.915   7.363  0.0694 -0.1594 -0.0703
14192SOL    HW144017   6.540   7.935   7.456 -1.8109  0.0421  0.1007
14192SOL    HW244018   6.540   8.000   7.319 -2.6814  0.3860  0.2560
14193SOL     OW44019   4.346   1.618   0.671  0.0646  0.0404 -0.3564
14193SOL    HW144020   4.337   1.550   0.604  0.6752 -0.2551 -0.1377
14193SOL    HW244021   4.384   1.692   0.625 -1.1421  0.4618 -0.7337
14194SOL     OW44022   7.647   3.950   2.604  0.2932 -0.4545 -0.3576
14194SOL    HW144023   7.736   3.965   2.633  0.5131 -1.0621 -0.7018
14194SOL    HW244024   7.592   3.992   2.670  0.8185 -0.4917  0.1044
14195SOL     OW44025   7.092   7.241   2.125  0.4609  0.0532  0.0881
14195SOL    HW144026   7.152   7.296   2.176 -0.1080  0.7704  0.0010
14195SOL    HW244027   7.138   7.157   2.116  1.4037  0.5484  0.1185
14196SOL     OW44028   7.882   7.760   1.466  0.1862 -0.1847 -0.6483
14196SOL    HW144029   7.885   7.671   1.503  1.6954  0.3758  0.7220
14196SOL    HW244030   7.794   7.792   1.487 -0.5488 -1.4926 -1.5868
14197SOL     OW44031   3.546   7.730   7.406 -0.1464  0.2904 -0.2981
14197SOL    HW144032   3.461   7.728   7.361 -0.1462 -1.5502 -0.2853
14197SOL    HW244033   3.608   7.696   7.342  0.8871  2.7925 -0.7608
14198SOL     OW44034   5.083   6.582   4.200  0.7564 -0.1465  0.6480
14198SOL    HW144035   5.062   6.565   4.109  0.7809 -0.5040  0.7097
14198SOL    HW244036   5.178   6.576   4.205  0.7104 -0.7950  0.8304
14199SOL     OW44037   0.308   2.027   2.738 -0.6958 -0.0085 -0.4159
14199SOL    HW144038   0.366   2.087   2.785  0.6143 -0.8733 -0.8508
14199SOL    HW244039   0.245   2.084   2.695  0.2158  1.0334 -0.4320
14200SOL     OW44040   5.663   6.138   5.520  0.1428 -0.0147  0.3843
14200SOL    HW144041   5.684   6.052   5.484  0.0164  0.3621 -0.5964
14200SOL    HW244042   5.652   6.122   5.614  0.6722 -0.9659  0.2958
14201SOL     OW44043   0.388   6.922   9.432 -0.5654  0.4534  0.1952
14201SOL    HW144044   0.340   6.909   9.514 -0.3412  0.8151  0.3869
14201SOL    HW244045   0.332   6.980   9.380 -1.0410 -0.3449 -0.2037
14202SOL     OW44046   5.449   5.416   0.613 -0.0675 -0.0050  0.1974
14202SOL    HW144047   5.528   5.469   0.604 -0.2087  0.4464  1.4278
14202SOL    HW244048   5.394   5.465   0.673 -0.0364 -1.7118  1.7259
14203SOL     OW44049   2.316   7.138   8.978  0.4418 -0.6361  0.0601
14203SOL    HW144050   2.300   7.074   8.908 -0.1363  0.6415 -1.0263
14203SOL    HW244051   2.235   7.190   8.981 -0.3496 -1.8038  2.9994
14204SOL     OW44052   0.361   3.384   3.889 -0.3208  0.2327  0.3258
14204SOL    HW144053   0.451   3.358   3.867 -0.2876  0.4655  0.1797
14204SOL    HW244054   0.314   3.302   3.901  0.0421  0.1063  0.9268
14205SOL     OW44055   4.218   2.766   9.845  0.2531  0.3446  0.2010
14205SOL    HW144056   4.162   2.837   9.877 -0.9393  1.1659 -3.2365
14205SOL    HW244057   4.305   2.804   9.840 -0.6346  2.3574 -3.1814
14206SOL     OW44058   5.455   1.226   5.615  0.1043  0.3342 -0.2287
14206SOL    HW144059   5.422   1.282   5.684 -1.2997  1.9914 -2.1240
14206SOL    HW244060   5.407   1.143   5.626 -0.3560  0.6960  0.5639
14207SOL     OW44061   1.359   7.134   7.120  0.3401 -0.0315  0.1247
14207SOL    HW144062   1.321   7.069   7.061  0.3348  0.6651 -0.6593
14207SOL    HW244063   1.443   7.157   7.080 -0.8051  2.3949 -1.1190
14208SOL     OW44064   4.289   6.422  12.055 -0.5931 -0.0870 -0.0875
14208SOL    HW144065   4.207   6.470  12.046 -2.1565 -2.5730 -0.0614
14208SOL    HW244066   4.311   6.396  11.965 -0.2288 -0.0539 -0.0087
14209SOL     OW44067   4.732   5.840   2.862  0.2646 -0.0817 -0.2926
14209SOL    HW144068   4.723   5.826   2.957  0.0384  0.0025 -0.3019
14209SOL    HW244069   4.754   5.753   2.827  2.2780  0.2273  0.0684
14210SOL     OW44070   6.271   1.449   5.247  0.0553  0.1559  0.3951
14210SOL    HW144071   6.240   1.367   5.209 -1.6999  0.7355  0.4870
14210SOL    HW244072   6.334   1.482   5.184 -0.2720 -0.5748 -0.3338
14211SOL     OW44073   4.963   1.614  10.240 -0.0449 -0.0208 -0.5584
14211SOL    HW144074   5.012   1.696  10.237  2.4442 -1.4178 -0.8747
14211SOL    HW244075   4.886   1.635  10.293  0.8165  2.3430 -0.0840
14212SOL     OW44076   7.851   7.127   2.869  0.0056  0.0988  0.7652
14212SOL    HW144077   7.862   7.153   2.961  2.6848 -1.8466  1.0882
14212SOL    HW244078   7.800   7.046   2.874  0.5138 -0.2343  0.5860
14213SOL     OW44079   6.536   5.197  11.431 -0.2852  0.7774 -0.1412
14213SOL    HW144080   6.471   5.165  11.368 -0.0308  0.3385 -0.1862
14213SOL    HW244081   6.486   5.252  11.491 -0.5854  0.9626 -0.5493
14214SOL     OW44082   3.194   4.085   5.760  0.4805 -0.0372  0.2044
14214SOL    HW144083   3.220   4.136   5.837  1.0073 -0.0245  0.0249
14214SOL    HW244084   3.148   4.148   5.705 -0.4211 -0.1946  0.7723
14215SOL     OW44085   3.496   3.821   2.406  0.7210 -0.3739 -0.7396
14215SOL    HW144086   3.523   3.832   2.497  2.3566 -0.1044 -1.2212
14215SOL    HW244087   3.498   3.727   2.391 -2.9137 -0.8075  0.3928
14216SOL     OW44088   2.973   1.211   9.954 -0.5793  0.4139  0.0504
14216SOL    HW144089   2.966   1.147  10.025  0.7784  1.7379  1.4449
14216SOL    HW244090   2.910   1.279   9.977 -0.5309  0.5890 -0.3276
14217SOL     OW44091   0.442   7.846   0.863  0.2854 -0.3461 -0.2177
14217SOL    HW144092   0.423   7.767   0.912  0.4372 -0.7726 -0.8262
14217SOL    HW244093   0.403   7.831   0.777  0.8873 -0.0428 -0.5541
14218SOL     OW44094   0.409   7.972   1.645  0.7715 -0.1101  0.2559
14218SOL    HW144095   0.447   7.960   1.558 -1.6515 -1.0524 -0.7850
14218SOL    HW244096   0.477   7.944   1.706  1.7862 -1.5208 -1.4427
14219SOL     OW44097   6.234   1.194  11.166  0.4980  0.2242  0.0643
14219SOL    HW144098   6.155   1.246  11.155  0.2313 -0.3558 -0.9090
14219SOL    HW244099   6.213   1.131  11.235  0.3707  0.5593  0.3292
14220SOL     OW44100   7.831   4.591   5.673 -0.3428 -0.2516  0.3663
14220SOL    HW144101   7.910   4.607   5.622  0.1075 -0.8967  0.8537
14220SOL    HW244102   7.863   4.557   5.756 -1.1817 -1.9596  0.0268
14221SOL     OW44103   7.659   0.584  11.707  0.1678  0.3842 -0.4901
14221SOL    HW144104   7.734   0.550  11.756 -0.1635  1.0231  0.4928
14221SOL    HW244105   7.619   0.648  11.766 -0.9706  0.2839 -1.1217
14222SOL     OW44106   7.320   6.021   2.824 -0.7027  0.0146  0.3346
14222SOL    HW144107   7.414   6.011   2.811 -0.4623 -0.6443  2.2546
14222SOL    HW244108   7.281   5.981   2.746  0.5801  1.9369 -1.3857
14223SOL     OW44109   3.134   0.742  10.580 -0.3289 -0.1094  0.6004
14223SOL    HW144110   3.064   0.808  10.581 -0.4164 -0.1881 -0.0175
14223SOL    HW244111   3.131   0.705  10.492 -1.4140 -2.1765  1.4557
14224SOL     OW44112   5.540   7.024   6.627  0.2853  0.3883 -0.2704
14224SOL    HW144113   5.479   7.070   6.569  1.1039  0.0229 -1.4433
14224SOL    HW244114   5.616   7.006   6.572  0.3544 -1.5691  0.4176
14225SOL     OW44115   1.433   4.492   6.799  0.6428  0.5844  0.4670
14225SOL    HW144116   1.436   4.587   6.799 -3.8747  0.9429 -0.3196
14225SOL    HW244117   1.380   4.469   6.876  1.2506 -1.2931  0.3966
14226SOL     OW44118   7.447   7.583   0.889  0.3517 -0.1274 -0.3658
14226SOL    HW144119   7.437   7.679   0.887 -0.4144 -0.2023 -1.3712
14226SOL    HW244120   7.423   7.555   0.800 -0.8353 -1.3682  0.2989
14227SOL     OW44121   5.367   7.017   8.258 -0.3474  1.0460 -0.1389
14227SOL    HW144122   5.422   7.081   8.213 -0.4811  1.6934  0.6126
14227SOL    HW244123   5.362   6.943   8.196 -1.5749  2.4080 -1.7637
14228SOL     OW44124   3.124   4.618   8.351 -0.1276 -0.3161 -0.2223
14228SOL    HW144125   3.200   4.560   8.359  0.4269  0.4195 -0.0193
14228SOL    HW244126   3.073   4.581   8.279  1.3786  0.2184 -1.6252
14229SOL     OW44127   0.419   4.560   2.222  0.2860  0.4297  0.1653
14229SOL    HW144128   0.386   4.620   2.290  0.1290  0.9820 -0.3883
14229SOL    HW244129   0.495   4.519   2.262  0.6952  1.3661  0.3850
14230SOL     OW44130   6.468   6.465  11.981 -0.0475  0.2977 -0.0201
14230SOL    HW144131   6.481   6.558  12.002 -0.7121  0.0661  1.5327
14230SOL    HW244132   6.543   6.443  11.926 -0.0592  1.8323 -0.7128
14231SOL     OW44133   5.313   0.813   8.384 -0.8486  0.3187 -0.3463
14231SOL    HW144134   5.325   0.851   8.297  0.1527  1.7576  0.3967
14231SOL    HW244135   5.395   0.768   8.402  0.2362  2.7189  1.1206
14232SOL     OW44136   1.575   1.883   1.403 -0.4907  0.2733 -0.7284
14232SOL    HW144137   1.560   1.968   1.444  0.4605  0.5139 -0.8454
14232SOL    HW244138   1.494   1.864   1.357 -1.4408  0.1799  0.9136
14233SOL     OW44139   1.579   1.524   2.499  0.0315  0.8992  0.2122
14233SOL    HW144140   1.579   1.618   2.483  0.2898  0.7550 -0.6847
14233SOL    HW244141   1.578   1.485   2.412 -1.4283  0.0630  0.5602
14234SOL     OW44142   5.874   2.965   1.795 -0.4979 -0.0076 -0.0413
14234SOL    HW144143   5.841   2.970   1.885 -0.6239  0.4811 -0.1112
14234SOL    HW244144   5.795   2.968   1.741 -0.4510 -0.7694 -0.1565
14235SOL     OW44145   4.432   4.425  10.691  0.1038  0.4352 -0.0326
14235SOL    HW144146   4.360   4.483  10.666 -0.7198 -0.2507  0.6864
14235SOL    HW244147   4.449   4.448  10.783 -3.0828 -3.1850  1.7483
14236SOL     OW44148   7.586   2.548   7.356 -0.6148  0.3582  0.6794
14236SOL    HW144149   7.574   2.589   7.442 -0.8404  0.1352  0.7525
14236SOL    HW244150   7.530   2.599   7.297 -0.6668  0.3402  0.7139
14237SOL     OW44151   7.917   4.169   0.672  0.6345  0.4188  0.3590
14237SOL    HW144152   7.938   4.197   0.761  2.4384 -0.0115  0.1013
14237SOL    HW244153   7.914   4.251   0.622  1.2602  0.5383  0.5038
14238SOL     OW44154   7.241   4.033  10.294  0.9175  0.6680  0.1844
14238SOL    HW144155   7.324   4.079  10.278  0.9096  0.8517  0.6608
14238SOL    HW244156   7.264   3.963  10.356  0.8556  0.2615 -0.2441
14239SOL     OW44157   3.385   2.300   0.803  0.4054 -0.2480  0.2842
14239SOL    HW144158   3.421   2.282   0.890 -1.2732  0.3190  1.1368
14239SOL    HW244159   3.452   2.267   0.742  1.4823 -0.9288  1.7701
14240SOL     OW44160   2.714   6.904  10.687  0.0234 -0.5268 -0.1777
14240SOL    HW144161   2.798   6.905  10.640  0.3130 -1.8214  0.2495
14240SOL    HW244162   2.739   6.902  10.780 -0.4509 -1.4204 -0.0579
14241SOL     OW44163   1.037   4.509   8.344 -0.4408 -0.0990 -0.1532
14241SOL    HW144164   1.057   4.417   8.325 -0.5256  0.2694 -2.2366
14241SOL    HW244165   1.103   4.534   8.409 -0.2435 -1.5359  0.2540
14242SOL     OW44166   4.234   2.429  11.180  0.1887  0.5903  0.0654
14242SOL    HW144167   4.280   2.485  11.117 -0.2629  1.4243  0.4609
14242SOL    HW244168   4.143   2.431  11.152  0.0690  0.5645  0.4431
14243SOL     OW44169   1.085   4.754  12.039 -0.4244 -0.2566 -0.0354
14243SOL    HW144170   1.108   4.713  11.956  1.7059 -0.2783  0.5104
14243SOL    HW244171   1.117   4.844  12.031  0.8871 -0.5852  1.1559
14244SOL     OW44172   2.832   2.399   4.044 -0.0032  0.4938 -0.1065
14244SOL    HW144173   2.906   2.386   3.985  1.4082  0.7301  1.5636
14244SOL    HW244174   2.810   2.492   4.035  0.4265  0.6057  0.0005
14245SOL     OW44175   3.817   7.833   4.431  0.4724  0.0596 -0.7870
14245SOL    HW144176   3.789   7.742   4.442 -0.0919 -0.0788 -2.9288
14245SOL    HW244177   3.912   7.827   4.417  0.5029 -0.1536 -0.4991
14246SOL     OW44178   7.011   5.458   3.286  0.0327 -0.2116 -0.3061
14246SOL    HW144179   7.032   5.551   3.274  0.0552  0.1392  1.9722
14246SOL    HW244180   6.937   5.443   3.228  1.3706  0.6226 -2.3702
14247SOL     OW44181   7.147   4.783   3.504 -0.5594  0.4480 -0.1365
14247SOL    HW144182   7.234   4.764   3.541 -1.6070  0.3508  2.5325
14247SOL    HW244183   7.160   4.860   3.449  1.2224  0.4011  0.1653
14248SOL     OW44184   0.607   7.173  12.473 -0.5211 -0.5002  0.0893
14248SOL    HW144185   0.549   7.249  12.465 -1.1812 -0.9719  0.3301
14248SOL    HW244186   0.555   7.107  12.519 -0.5656 -1.7129 -1.5821
14249SOL     OW44187   1.370   1.114   0.504  0.2148  0.6449  0.1720
14249SOL    HW144188   1.333   1.202   0.516  1.1807  1.6086 -2.9235
14249SOL    HW244189   1.293   1.057   0.495 -0.4803  1.6678 -0.6244
14250SOL     OW44190   3.541   1.552   3.185  0.0839 -0.0777 -0.2120
14250SOL    HW144191   3.587   1.470   3.169  1.5359  0.2115  2.0114
14250SOL    HW244192   3.592   1.618   3.138 -0.7082 -0.3218 -1.4570
14251SOL     OW44193   2.351   5.708   2.451 -0.3581 -0.0247 -0.0137
14251SOL    HW144194   2.431   5.670   2.414  0.4321 -0.6084  2.1005
14251SOL    HW244195   2.361   5.803   2.439  0.8039 -0.0725  0.4202
14252SOL     OW44196   7.050   2.499  12.233  0.8874 -0.6924 -0.0642
14252SOL    HW144197   7.058   2.589  12.201 -0.5597 -0.3321  0.4818
14252SOL    HW244198   7.060   2.506  12.328 -0.5522 -0.8706  0.1331
14253SOL     OW44199   3.349   3.279   1.548  0.2836  0.2357 -1.0086
14253SOL    HW144200   3.391   3.194   1.558 -1.8579 -0.8932 -1.0488
14253SOL    HW244201   3.342   3.291   1.453 -0.1344  0.0654 -1.0015
14254SOL     OW44202   5.435   7.870   5.685  0.5854  0.2800 -0.1152
14254SOL    HW144203   5.388   7.836   5.761  0.6335 -0.9144 -0.6083
14254SOL    HW244204   5.523   7.890   5.718  1.0352 -1.5209 -0.1319
14255SOL     OW44205   2.315   2.496   9.594  0.1609  0.1892  1.1706
14255SOL    HW144206   2.325   2.432   9.524  3.3076  0.3906  1.2782
14255SOL    HW244207   2.223   2.490   9.619 -1.0306 -0.1513 -2.6479
14256SOL     OW44208   6.344   1.792   3.436 -0.1126 -0.0327 -0.3987
14256SOL    HW144209   6.316   1.720   3.493  1.0584  0.4639  0.8382
14256SOL    HW244210   6.411   1.754   3.379  2.3036  0.5536  1.8748
14257SOL     OW44211   7.390   2.138   6.606  0.1995 -0.4089 -0.6916
14257SOL    HW144212   7.345   2.217   6.576 -0.0174 -0.4226 -0.3993
14257SOL    HW244213   7.475   2.168   6.636  0.2483 -0.3345 -0.9014
14258SOL     OW44214   6.267   5.055   0.752  0.0896 -0.5103 -0.2989
14258SOL    HW144215   6.347   5.034   0.704 -0.1968 -0.3536 -0.8513
14258SOL    HW244216   6.252   5.148   0.733  0.7189 -0.0652  1.1955
14259SOL     OW44217   4.931   5.339   9.580  0.5045 -0.0371  0.3590
14259SOL    HW144218   4.862   5.372   9.636  1.6025  1.2820  0.9887
14259SOL    HW244219   4.925   5.244   9.587 -1.0883  0.0569  0.5495
14260SOL     OW44220   1.182   4.262   9.934  0.4649 -0.2049  0.5952
14260SOL    HW144221   1.251   4.326   9.917  0.0274  0.2576  0.5255
14260SOL    HW244222   1.102   4.314   9.936 -0.0843 -0.9354 -0.8597
14261SOL     OW44223   0.355   3.904   2.091 -0.5314  0.3965 -0.3949
14261SOL    HW144224   0.446   3.926   2.110 -1.1243  1.7155  1.0754
14261SOL    HW244225   0.359   3.815   2.056  1.1692 -0.1520  1.0692
14262SOL     OW44226   3.817   6.605   3.525 -0.2551 -0.4552  0.2190
14262SOL    HW144227   3.865   6.664   3.467 -1.2095 -0.3476 -0.5070
14262SOL    HW244228   3.882   6.543   3.557  0.6580  0.6442  0.5484
14263SOL     OW44229   0.282   0.309   0.406  0.5852 -0.3446  0.2231
14263SOL    HW144230   0.306   0.328   0.315 -1.4111  0.2325 -0.2343
14263SOL    HW244231   0.248   0.220   0.404 -2.1655  0.6321 -0.2371
14264SOL     OW44232   1.002   4.381   0.299 -0.7239  0.4914  0.3436
14264SOL    HW144233   1.030   4.360   0.210  1.5265  0.1281  1.0856
14264SOL    HW244234   1.021   4.474   0.309 -1.3204  0.6169  0.3345
14265SOL     OW44235   4.462   2.013   1.133 -0.8732 -0.1894  0.2518
14265SOL    HW144236   4.405   2.083   1.102  0.8992  1.7383  1.0973
14265SOL    HW244237   4.425   1.986   1.217 -1.6769 -0.4391 -0.1761
14266SOL     OW44238   2.682   6.969  11.243  0.5057 -0.0301  0.0009
14266SOL    HW144239   2.681   7.033  11.171 -0.4001 -0.5412 -0.4533
14266SOL    HW244240   2.774   6.961  11.266  0.6368  1.5610  0.1805
14267SOL     OW44241   2.381   4.068   4.452  0.3700 -0.4382  0.0488
14267SOL    HW144242   2.342   3.983   4.471 -0.5401  0.2018  1.1212
14267SOL    HW244243   2.307   4.128   4.444  0.9170  0.0376 -2.0322
14268SOL     OW44244   5.736   7.762   9.534  0.1232  0.6090  0.2572
14268SOL    HW144245   5.654   7.736   9.577 -0.2742  0.3821 -0.6247
14268SOL    HW244246   5.804   7.742   9.599 -0.1971 -2.1886 -0.1537
14269SOL     OW44247   4.338   2.206   0.869 -0.2026  0.2787 -0.6903
14269SOL    HW144248   4.257   2.234   0.912 -1.2562 -0.2755 -2.2225
14269SOL    HW244249   4.346   2.113   0.891 -0.6844  0.0217 -1.5478
14270SOL     OW44250   5.382   2.593   9.029 -0.0027  0.7507 -0.2204
14270SOL    HW144251   5.428   2.597   8.946  0.4215 -0.3384 -0.0571
14270SOL    HW244252   5.360   2.684   9.049 -0.0671  1.0343 -1.4887
14271SOL     OW44253   0.067   5.197   6.715 -0.0811  0.6303 -0.5360
14271SOL    HW144254   0.062   5.155   6.629  0.2492 -0.6938  0.0620
14271SOL    HW244255  -0.008   5.257   6.717 -0.7077 -0.1000 -1.3565
14272SOL     OW44256   0.599   4.729   5.291 -0.1462 -0.1550  0.5185
14272SOL    HW144257   0.509   4.729   5.258 -0.8106 -0.0975  2.2545
14272SOL    HW244258   0.593   4.686   5.376  1.3564  0.4790  0.9693
14273SOL     OW44259   0.617   4.381   6.410 -0.1138 -0.1233 -0.1766
14273SOL    HW144260   0.684   4.435   6.453 -0.5032 -0.4274  0.8489
14273SOL    HW244261   0.537   4.397   6.461 -0.2166 -1.7209  0.2074
14274SOL     OW44262   3.902   0.271   2.909  0.1885 -0.0789 -0.2027
14274SOL    HW144263   3.994   0.243   2.914  0.2285 -0.2519 -1.6591
14274SOL    HW244264   3.902   0.361   2.941  0.8423 -0.1326 -0.0415
14275SOL     OW44265   2.194   7.731   2.371  0.1551  0.1693  0.2962
14275SOL    HW144266   2.256   7.778   2.427 -0.2030  0.4923  0.4302
14275SOL    HW244267   2.153   7.667   2.429  0.6973 -0.3708  0.0955
14276SOL     OW44268   7.374   6.007   4.949  0.2514 -0.1268 -0.1289
14276SOL    HW144269   7.467   5.995   4.928  0.1945 -0.1113 -0.3943
14276SOL    HW244270   7.329   5.998   4.865 -0.1396 -1.6805  0.2128
14277SOL     OW44271   6.886   0.536   2.795  0.5192  0.0290  0.8381
14277SOL    HW144272   6.889   0.589   2.716 -1.3698  0.1083  0.7664
14277SOL    HW244273   6.801   0.556   2.834  1.7272  0.6631  3.3781
14278SOL     OW44274   4.279   4.590   4.642 -0.2004  0.6130  0.3960
14278SOL    HW144275   4.325   4.558   4.721 -0.4775 -0.0255  0.3058
14278SOL    HW244276   4.220   4.658   4.674 -1.8140 -1.0228  1.0928
14279SOL     OW44277   6.264   4.262   9.600  0.1690  0.3256  0.3558
14279SOL    HW144278   6.214   4.243   9.521 -0.2357 -1.7019  1.0313
14279SOL    HW244279   6.349   4.292   9.568 -0.3258  0.5008 -0.8396
14280SOL     OW44280   3.155   4.849   0.699  0.0997  0.1908 -0.5582
14280SOL    HW144281   3.250   4.857   0.689 -0.1458  1.0374 -2.8221
14280SOL    HW244282   3.128   4.935   0.732 -0.0482  0.6495 -1.8152
14281SOL     OW44283   0.280   3.134   2.674  0.2866  0.2415  0.4115
14281SOL    HW144284   0.214   3.065   2.672  1.7839 -1.2619  0.4278
14281SOL    HW244285   0.232   3.215   2.656 -1.5778 -0.7532  0.7514
14282SOL     OW44286   3.528   0.828   3.254  0.6779  0.1033 -0.0442
14282SOL    HW144287   3.460   0.767   3.282  0.1380  0.1910 -1.1424
14282SOL    HW244288   3.486   0.882   3.187  2.0608 -0.3989 -1.3677
14283SOL     OW44289   1.939   1.409   9.761  0.5078 -0.1668  0.2063
14283SOL    HW144290   1.950   1.449   9.675  1.4123  1.2695  0.9546
14283SOL    HW244291   1.938   1.483   9.822 -1.3734 -1.0612  1.3443
14284SOL     OW44292   2.395   2.889   9.948 -0.2270  0.2782 -0.5510
14284SOL    HW144293   2.467   2.847   9.900  1.2207  0.1279  1.6552
14284SOL    HW244294   2.340   2.816   9.977  0.5799  0.1058  0.5992
14285SOL     OW44295   1.661   4.308  10.939 -0.8216  0.4824 -0.1534
14285SOL    HW144296   1.586   4.356  10.902  0.5737  1.2688 -2.1059
14285SOL    HW244297   1.732   4.371  10.939 -0.3410  0.0442  2.6034
14286SOL     OW44298   1.779   6.486   2.997  0.3755  0.3767 -0.3965
14286SOL    HW144299   1.688   6.492   2.968  0.1416  1.2264  0.4619
14286SOL    HW244300   1.776   6.512   3.089  1.6710  1.7420 -0.7065
14287SOL     OW44301   3.491   0.114   4.828 -0.3470  0.0693  0.7203
14287SOL    HW144302   3.568   0.090   4.776 -0.6018  0.8172 -0.0200
14287SOL    HW244303   3.425   0.050   4.803 -0.5693  0.6205 -0.1399
14288SOL     OW44304   1.904   0.370   9.963  0.3462  0.4456  0.0084
14288SOL    HW144305   1.834   0.350  10.025  0.5303  0.5155  0.2398
14288SOL    HW244306   1.914   0.290   9.912 -0.2812  0.6177 -0.3990
14289SOL     OW44307   6.612   6.490   4.592 -0.0254  0.0426 -0.3871
14289SOL    HW144308   6.553   6.518   4.522 -0.4517  0.3307  0.0837
14289SOL    HW244309   6.560   6.428   4.643  0.1018  0.2432 -0.0106
14290SOL     OW44310   1.492   3.893  10.983 -0.4422 -0.9675 -0.1842
14290SOL    HW144311   1.547   3.817  10.963  0.5617  0.0332 -1.4290
14290SOL    HW244312   1.537   3.937  11.055 -0.0466 -0.6108 -0.6404
14291SOL     OW44313   4.694   5.239  12.286 -0.4953  0.2069 -0.1857
14291SOL    HW144314   4.657   5.205  12.367 -3.4115  0.6449 -1.2305
14291SOL    HW244315   4.713   5.331  12.304 -0.6678  0.1816  0.1203
14292SOL     OW44316   3.297   7.473   6.622  0.0036  0.3420  0.1373
14292SOL    HW144317   3.316   7.493   6.713  0.7479 -1.4469  0.4130
14292SOL    HW244318   3.237   7.542   6.594 -0.8837  0.4651  2.2075
14293SOL     OW44319   6.187   5.032   1.841  0.2676 -0.4734 -0.2414
14293SOL    HW144320   6.256   5.098   1.843  0.8287 -1.0439 -0.7180
14293SOL    HW244321   6.109   5.079   1.872  0.5003  0.5933 -1.2221
14294SOL     OW44322   7.970   1.817   4.882  0.0874 -0.6455  0.5388
14294SOL    HW144323   7.941   1.778   4.965 -0.1488  0.8100  1.1789
14294SOL    HW244324   7.926   1.902   4.879 -0.1480 -0.7949 -1.2541
14295SOL     OW44325   2.990   1.318   1.205  0.4516 -0.4958  0.4226
14295SOL    HW144326   3.075   1.321   1.248  0.5696 -1.8763  0.3503
14295SOL    HW244327   3.010   1.327   1.112  0.3005  1.3441  0.5423
14296SOL     OW44328   2.400   2.532   8.785  0.5022  0.6584  0.7042
14296SOL    HW144329   2.438   2.536   8.873  1.7822 -0.2992  0.2216
14296SOL    HW244330   2.475   2.524   8.726 -0.3831  0.1874 -0.4007
14297SOL     OW44331   2.217   0.381  10.606 -0.6141  0.0097  0.1503
14297SOL    HW144332   2.275   0.396  10.531 -1.4891  0.5952 -0.4215
14297SOL    HW244333   2.234   0.455  10.664  0.0062 -0.4015  0.4980
14298SOL     OW44334   5.281   4.299   2.630 -0.2375 -0.3652 -0.2931
14298SOL    HW144335   5.213   4.284   2.695  1.3953 -1.2146  1.3056
14298SOL    HW244336   5.235   4.339   2.556 -2.2190  0.3594  1.2415
14299SOL     OW44337   7.825   4.033   4.471  0.5346  0.1151  0.1301
14299SOL    HW144338   7.799   3.999   4.557  0.5315  0.8551  0.4386
14299SOL    HW244339   7.913   3.997   4.457  1.4951  1.7646  1.5080
14300SOL     OW44340   4.762   1.818   2.428  0.4034 -0.1547  0.3309
14300SOL    HW144341   4.740   1.784   2.342  1.2729 -1.5718  0.6302
14300SOL    HW244342   4.824   1.889   2.411 -0.0630  0.1354 -0.2216
14301SOL     OW44343   1.929   4.403   5.596  0.0767 -0.2547  0.3464
14301SOL    HW144344   1.903   4.322   5.552 -0.5216 -0.1157  0.4269
14301SOL    HW244345   1.943   4.466   5.525 -1.8677  0.2556  0.3463
14302SOL     OW44346   2.424   2.154   7.661 -0.0487  0.1132  0.0695
14302SOL    HW144347   2.416   2.098   7.584  1.0635 -1.5144  1.0510
14302SOL    HW244348   2.495   2.214   7.640 -0.5357  0.4544 -0.6056
14303SOL     OW44349   1.083   5.819   7.247  0.1703 -0.5576  0.1440
14303SOL    HW144350   1.053   5.804   7.157 -1.3421  0.2095  0.4891
14303SOL    HW244351   1.123   5.736   7.273  1.7350 -0.4173 -1.6347
14304SOL     OW44352   3.092   3.513   4.520  0.1084  0.3346  0.2707
14304SOL    HW144353   3.001   3.512   4.489 -0.0528 -2.6788  0.6035
14304SOL    HW244354   3.144   3.503   4.441  0.1581  1.4097  0.1504
14305SOL     OW44355   3.325   5.057   9.941 -0.2703 -0.1500  0.8156
14305SOL    HW144356   3.394   5.019   9.995 -0.3723 -1.2873  0.1681
14305SOL    HW244357   3.371   5.096   9.867 -0.3420 -1.6802 -0.0770
14306SOL     OW44358   6.892   1.201   6.207 -0.3814  0.0567  0.0603
14306SOL    HW144359   6.831   1.169   6.273 -0.7217  0.4965 -0.0367
14306SOL    HW244360   6.887   1.136   6.136  1.0218 -1.1778  1.0238
14307SOL     OW44361   0.597   7.122   6.890 -0.0677 -0.5672  0.3387
14307SOL    HW144362   0.522   7.180   6.879 -0.5913 -1.0868  1.0532
14307SOL    HW244363   0.574   7.043   6.842  0.8234 -0.0435 -0.9885
14308SOL     OW44364   6.939   7.271   9.633  0.3014 -0.1535  0.4747
14308SOL    HW144365   6.963   7.224   9.553  1.2927 -0.6039  1.0218
14308SOL    HW244366   6.985   7.225   9.703  0.5860  1.1024  1.1449
14309SOL     OW44367   3.675   5.116   2.989  0.2787  0.7110 -0.1297
14309SOL    HW144368   3.765   5.137   3.015  0.1615  0.8904  0.1477
14309SOL    HW244369   3.621   5.149   3.062 -0.0800  1.4286 -0.6955
14310SOL     OW44370   4.235   4.573  11.754 -0.2564 -0.7567  0.1879
14310SOL    HW144371   4.310   4.613  11.709 -0.2257  0.7559  1.4890
14310SOL    HW244372   4.265   4.485  11.777  2.5347  0.8555  3.6886
14311SOL     OW44373   2.152   7.707   7.609  0.9523 -0.1269 -0.0739
14311SOL    HW144374   2.224   7.683   7.550  0.7497 -0.7422 -0.0813
14311SOL    HW244375   2.073   7.674   7.566  0.7643 -0.2674  0.3666
14312SOL     OW44376   1.863   4.896   2.656 -0.4659  0.2272 -0.2012
14312SOL    HW144377   1.836   4.889   2.564 -0.3236  1.1454 -0.3223
14312SOL    HW244378   1.786   4.870   2.706 -0.1291 -1.6181 -0.5729
14313SOL     OW44379   0.581   5.561  10.288  0.0732 -0.3915  0.0179
14313SOL    HW144380   0.667   5.601  10.304  0.3932 -1.2271  0.4952
14313SOL    HW244381   0.571   5.563  10.193  0.3376  0.2854 -0.0009
14314SOL     OW44382   0.723   7.097   4.576  0.4612 -0.1261  0.1120
14314SOL    HW144383   0.725   7.003   4.563 -0.0628 -0.0950 -0.2002
14314SOL    HW244384   0.651   7.128   4.521  0.7067  0.4700  0.1128
14315SOL     OW44385   7.665   1.886   5.846  0.2711  0.3259  0.3331
14315SOL    HW144386   7.726   1.905   5.917  0.3031  0.4791  0.2637
14315SOL    HW244387   7.611   1.964   5.839  0.4573  0.4254 -0.0040
14316SOL     OW44388   5.498   4.908   2.756  0.4031  0.5649  0.3023
14316SOL    HW144389   5.490   4.990   2.804 -0.3494  0.3594  0.5339
14316SOL    HW244390   5.509   4.841   2.824  1.0454  0.4687  0.1150
14317SOL     OW44391   1.419   4.776  11.440  0.7420 -0.0920  0.0550
14317SOL    HW144392   1.450   4.834  11.369  1.7177 -0.3081  0.2887
14317SOL    HW244393   1.485   4.786  11.509  0.8278 -1.3408  0.1714
14318SOL     OW44394   3.326   7.439   5.422 -0.2220  0.4747  0.5757
14318SOL    HW144395   3.402   7.382   5.420 -0.0835  0.6646  0.4483
14318SOL    HW244396   3.260   7.390   5.472  0.3574  0.7705  1.6763
14319SOL     OW44397   3.796   5.007   0.334  0.4380  0.0487 -0.7654
14319SOL    HW144398   3.739   5.080   0.357  0.9899  0.6609 -1.2965
14319SOL    HW244399   3.805   4.957   0.415 -0.0478  0.4972 -0.4288
14320SOL     OW44400   1.984   2.379   7.351 -0.5006 -0.1927  0.2995
14320SOL    HW144401   2.072   2.349   7.330 -1.1105 -1.2779 -0.8404
14320SOL    HW244402   1.975   2.462   7.304 -0.3960 -0.5160 -0.2907
14321SOL     OW44403   2.621   5.372   5.923 -0.3822  0.1128 -0.0114
14321SOL    HW144404   2.715   5.383   5.909 -0.2967 -0.4395  0.0854
14321SOL    HW244405   2.601   5.429   5.997 -0.1090  0.2006 -0.0049
14322SOL     OW44406   7.191   0.439   2.189 -0.1775  0.1698 -0.2051
14322SOL    HW144407   7.108   0.435   2.237 -0.7027  0.0540 -1.1144
14322SOL    HW244408   7.174   0.396   2.106  1.4432 -2.0013  0.4765
14323SOL     OW44409   3.989   5.329  11.082  0.0708 -0.6066 -0.0188
14323SOL    HW144410   3.944   5.401  11.126 -1.5529 -1.5893  0.0120
14323SOL    HW244411   4.007   5.362  10.994  1.5641  0.6759  0.7370
14324SOL     OW44412   0.964   1.900  10.884  0.2575 -0.1631 -0.6639
14324SOL    HW144413   0.925   1.899  10.796  0.5742 -1.2069 -0.8094
14324SOL    HW244414   0.896   1.937  10.940 -1.4597 -2.8920 -0.7153
14325SOL     OW44415   4.660   2.639   8.558 -0.3323  0.0074  0.4049
14325SOL    HW144416   4.635   2.731   8.546 -0.3883  0.0239  0.6375
14325SOL    HW244417   4.595   2.590   8.506 -1.4995 -0.0074  1.8104
14326SOL     OW44418   1.089   3.430  10.483 -0.1464  0.1260  0.5778
14326SOL    HW144419   1.024   3.500  10.484 -1.3891 -0.9798  0.6526
14326SOL    HW244420   1.046   3.357  10.529  0.4485 -1.2375 -0.9401
14327SOL     OW44421   2.225   3.808   5.721 -0.3651 -0.2721 -0.8149
14327SOL    HW144422   2.299   3.771   5.673 -0.0198  0.5775 -0.9561
14327SOL    HW244423   2.152   3.748   5.703  0.1668 -0.8605 -1.0563
14328SOL     OW44424   3.462   5.896  11.364 -0.4129  0.6301  0.0010
14328SOL    HW144425   3.416   5.814  11.383  1.8721 -1.4670 -2.7814
14328SOL    HW244426   3.400   5.946  11.311 -0.7423 -0.6784 -0.8914
14329SOL     OW44427   0.323   4.652   9.594  0.5559 -0.2596 -0.0660
14329SOL    HW144428   0.239   4.698   9.593  0.8164  0.2276 -0.1550
14329SOL    HW244429   0.344   4.642   9.687  0.7606  0.3000 -0.0497
14330SOL     OW44430   6.889   3.732   2.884  0.3250 -0.4583  0.3067
14330SOL    HW144431   6.915   3.689   2.965 -0.1653  1.1527  1.3759
14330SOL    HW244432   6.941   3.813   2.882 -0.7212  0.2258 -0.2107
14331SOL     OW44433   4.233   5.737  10.336  0.0181  0.4006  0.5587
14331SOL    HW144434   4.146   5.699  10.322 -0.6772  2.2466 -0.5179
14331SOL    HW244435   4.291   5.662  10.342 -1.5539 -0.8692  0.6406
14332SOL     OW44436   3.043   5.486   8.458 -0.9656 -0.1732 -0.1406
14332SOL    HW144437   2.972   5.524   8.509 -1.0907 -0.8302  0.1730
14332SOL    HW244438   3.001   5.423   8.400 -0.6224 -0.6812  0.1596
14333SOL     OW44439   1.363   0.237   0.196 -0.3173  0.6940  0.1407
14333SOL    HW144440   1.371   0.202   0.108  0.1895  0.8370  0.1297
14333SOL    HW244441   1.351   0.331   0.183 -1.2107  0.5950  0.1884
14334SOL     OW44442   4.111   4.755   2.738 -0.1321 -0.2052  0.7745
14334SOL    HW144443   4.059   4.694   2.790 -0.0248 -1.4890 -0.5544
14334SOL    HW244444   4.190   4.706   2.715 -0.6000 -0.0324 -1.3686
14335SOL     OW44445   0.974   1.055  12.040 -0.3557 -0.0514 -0.8391
14335SOL    HW144446   0.953   1.083  11.951 -2.1334 -1.4654 -0.9275
14335SOL    HW244447   0.927   0.972  12.051 -0.7048  0.3785  1.6206
14336SOL     OW44448   6.152   6.496   9.992 -0.2735 -0.4939 -0.5652
14336SOL    HW144449   6.113   6.454   9.916  0.4590  0.2642 -1.3836
14336SOL    HW244450   6.176   6.424  10.050 -2.4160 -1.0046 -0.2355
14337SOL     OW44451   2.434   3.130   1.013  0.9332  0.2897  0.0550
14337SOL    HW144452   2.411   3.208   0.961 -0.9722  0.7009  1.3949
14337SOL    HW244453   2.350   3.087   1.029  1.5806 -0.3464  1.9679
14338SOL     OW44454   0.864   4.350   8.013 -0.1437  0.4080 -0.0988
14338SOL    HW144455   0.832   4.406   8.083  0.6548  1.2906 -0.4268
14338SOL    HW244456   0.879   4.265   8.056 -1.2232  0.4659  0.4274
14339SOL     OW44457   6.211   1.202   5.120 -0.0245 -0.0603  0.1291
14339SOL    HW144458   6.235   1.146   5.046 -0.2476 -1.4680  1.0770
14339SOL    HW244459   6.186   1.141   5.189  0.1831  1.2104  1.3801
14340SOL     OW44460   6.901   3.289   3.164  0.1271  0.4077 -1.2172
14340SOL    HW144461   6.833   3.232   3.128  0.0354  1.0304 -2.0535
14340SOL    HW244462   6.857   3.372   3.181  0.2259  0.2063  0.1381
14341SOL     OW44463   4.329   2.138  11.688 -0.4103  0.0366 -0.5266
14341SOL    HW144464   4.398   2.078  11.717  0.0708  0.5476 -0.5952
14341SOL    HW244465   4.312   2.192  11.764  0.7766  1.3094 -1.1200
14342SOL     OW44466   5.015   7.672   7.040 -0.0720 -0.2857  0.2663
14342SOL    HW144467   5.076   7.615   7.088  2.3009  1.7675 -0.1140
14342SOL    HW244468   5.001   7.746   7.099  0.5570  0.8822 -0.9974
14343SOL     OW44469   6.318   2.023   0.964  0.0821 -0.1305 -0.3307
14343SOL    HW144470   6.388   1.986   1.019 -0.3882 -1.1263 -0.3740
14343SOL    HW244471   6.237   1.992   1.005 -0.4740  2.6915  0.9375
14344SOL     OW44472   6.254   1.302   7.081 -0.4177  0.1979 -0.3436
14344SOL    HW144473   6.205   1.262   7.152 -1.3896  0.1481 -1.0218
14344SOL    HW244474   6.212   1.270   7.001  0.8485  0.0006 -0.9568
14345SOL     OW44475   7.008   4.520   5.380 -0.2363 -0.2174  0.0426
14345SOL    HW144476   7.035   4.612   5.382 -1.1331  0.1014 -1.1579
14345SOL    HW244477   6.998   4.495   5.472 -0.0097  0.8951  0.3804
14346SOL     OW44478   6.984   4.327   9.643  0.1321 -1.1833  0.0223
14346SOL    HW144479   6.973   4.325   9.548 -0.6085  0.2544  0.0499
14346SOL    HW244480   7.078   4.338   9.656  0.1884 -0.9221 -0.5647
14347SOL     OW44481   4.520   7.623   7.977  0.0154 -0.1005  0.4465
14347SOL    HW144482   4.491   7.584   8.060  0.5237  0.7786  1.0503
14347SOL    HW244483   4.612   7.644   7.991  0.0135  0.3844 -0.2281
14348SOL     OW44484   3.194   3.740   1.103  0.3575  0.1662 -0.3092
14348SOL    HW144485   3.158   3.678   1.040  0.4508 -1.1234  0.8597
14348SOL    HW244486   3.137   3.732   1.179  1.0516  0.6797  0.2788
14349SOL     OW44487   5.848   5.974   4.425 -0.1553 -0.1767  0.3314
14349SOL    HW144488   5.833   5.899   4.367  2.8130  1.9928 -3.7100
14349SOL    HW244489   5.789   6.042   4.393  1.2698  0.9548  0.0169
14350SOL     OW44490   1.308   1.581   5.655 -0.4441 -0.6911 -0.5375
14350SOL    HW144491   1.243   1.539   5.711 -2.3792  0.4198 -1.8438
14350SOL    HW244492   1.262   1.597   5.573  0.6443  2.4675 -0.6581
14351SOL     OW44493   2.630   6.380   8.468 -0.2153  0.4917 -0.5251
14351SOL    HW144494   2.620   6.291   8.433  0.5928  0.5748 -0.9959
14351SOL    HW244495   2.632   6.367   8.563 -2.6426  0.2884 -0.4371
14352SOL     OW44496   1.643   4.323   2.812 -0.0607  0.5675 -0.6532
14352SOL    HW144497   1.618   4.397   2.868 -1.1207 -0.2412 -0.0195
14352SOL    HW244498   1.660   4.362   2.727 -0.2837  1.5885 -0.2447
14353SOL     OW44499   6.467   7.966   6.930  0.0464 -0.1519  0.2836
14353SOL    HW144500   6.457   7.878   6.966  2.9138 -1.1776 -1.1682
14353SOL    HW244501   6.429   7.961   6.842  0.1718  0.0650  0.2154
14354SOL     OW44502   0.782   1.441  11.317 -0.4197 -0.3562  0.7273
14354SOL    HW144503   0.842   1.514  11.329  0.0733 -0.8542  1.3151
14354SOL    HW244504   0.838   1.364  11.311 -0.8399 -0.5684 -1.2183
14355SOL     OW44505   1.084   3.634   4.279 -0.2052  0.1107  0.1646
14355SOL    HW144506   1.049   3.713   4.238  0.9638  0.2657 -0.5581
14355SOL    HW244507   1.054   3.641   4.370 -0.7815  0.9809 -0.0664
14356SOL     OW44508   6.092   1.692   5.383  0.3510 -0.0378  0.9346
14356SOL    HW144509   6.113   1.601   5.360 -0.3297 -0.0057  0.1387
14356SOL    HW244510   6.047   1.726   5.306  1.1999  1.2009  0.9637
14357SOL     OW44511   2.604   3.294   4.250  0.3564 -0.1350 -0.2247
14357SOL    HW144512   2.686   3.328   4.286  0.0077 -0.4455  0.9011
14357SOL    HW244513   2.628   3.208   4.213  0.6023 -0.0842 -0.1837
14358SOL     OW44514   7.922   6.976   7.666  0.5378  0.1855 -0.3562
14358SOL    HW144515   7.837   6.998   7.629 -0.0750  0.3420  1.0536
14358SOL    HW244516   7.979   7.048   7.641  0.7338 -0.7012 -2.6965
14359SOL     OW44517   4.903   0.851   8.104  0.0273 -0.3343 -0.8051
14359SOL    HW144518   4.921   0.832   8.197  0.9353 -1.5872 -1.1998
14359SOL    HW244519   4.881   0.944   8.102  1.4154  0.0619  0.4857
14360SOL     OW44520   1.066   7.174   9.970 -0.0747 -0.5535 -0.1997
14360SOL    HW144521   1.081   7.257   9.926  1.6262  0.0784  1.4549
14360SOL    HW244522   1.076   7.108   9.902  0.6017  0.4846 -1.1278
14361SOL     OW44523   3.712   6.767  11.665 -0.3993 -0.3387 -0.1821
14361SOL    HW144524   3.689   6.797  11.577  2.6523 -0.8105 -1.2776
14361SOL    HW244525   3.788   6.710  11.652  0.6426  0.1602  2.8122
14362SOL     OW44526   6.183   4.231  11.572  0.2829  0.1433 -0.6464
14362SOL    HW144527   6.198   4.295  11.503 -0.9843 -0.2770 -1.3418
14362SOL    HW244528   6.232   4.264  11.647  1.2792  0.8600 -1.5989
14363SOL     OW44529   5.054   3.705   1.472 -0.3061 -0.2130  0.3309
14363SOL    HW144530   4.996   3.630   1.459 -0.4079 -0.3788  1.5643
14363SOL    HW244531   5.007   3.762   1.533 -0.0392  0.6491 -0.2399
14364SOL     OW44532   2.451   2.420   8.384 -0.4661  0.0954 -0.1122
14364SOL    HW144533   2.382   2.354   8.373 -0.8030 -0.1160  2.6005
14364SOL    HW244534   2.404   2.504   8.384 -0.5825  0.0376  0.3578
14365SOL     OW44535   0.641   3.224   3.969  0.2361 -0.2375  0.5071
14365SOL    HW144536   0.655   3.177   4.051 -0.2224 -0.6558  0.3502
14365SOL    HW244537   0.643   3.156   3.901 -0.3449 -0.0258  0.2699
14366SOL     OW44538   6.307   3.841   4.499  0.1594 -0.0211  0.3916
14366SOL    HW144539   6.219   3.839   4.464  0.0382 -0.6573  0.7182
14366SOL    HW244540   6.332   3.749   4.509  1.1705  0.1394 -0.4618
14367SOL     OW44541   5.410   0.825  12.256 -0.6323 -0.3100 -0.2311
14367SOL    HW144542   5.372   0.737  12.253  0.5879 -0.8292 -2.5500
14367SOL    HW244543   5.334   0.883  12.260 -1.4534 -1.3989  1.6544
14368SOL     OW44544   7.875   1.616  11.828 -0.3452 -0.3753  0.1193
14368SOL    HW144545   7.860   1.709  11.808  0.8805 -0.3236 -0.6945
14368SOL    HW244546   7.792   1.573  11.808 -0.9059  0.5263  0.4293
14369SOL     OW44547   6.829   2.291   0.343  0.0419 -0.0224 -0.2765
14369SOL    HW144548   6.815   2.383   0.321  1.2136  0.2136 -0.1081
14369SOL    HW244549   6.776   2.242   0.281  1.2870  0.7031 -1.9804
14370SOL     OW44550   3.300   1.862   6.890 -0.4537  0.4041  0.1285
14370SOL    HW144551   3.222   1.806   6.886  0.6305 -1.3543  2.0179
14370SOL    HW244552   3.281   1.925   6.959 -0.2529  0.0803  0.4766
14371SOL     OW44553   5.922   7.217  12.014 -0.1424  0.0648 -0.0441
14371SOL    HW144554   5.869   7.236  12.092  0.6428  0.7308  0.3412
14371SOL    HW244555   5.858   7.205  11.944 -0.8083  0.7749  0.4294
14372SOL     OW44556   0.449   6.259   9.583  0.0841  0.2721 -0.3826
14372SOL    HW144557   0.402   6.251   9.500  0.5521 -0.0318 -0.6250
14372SOL    HW244558   0.403   6.328   9.630 -1.6189 -1.1250  0.0832
14373SOL     OW44559   4.498   2.400   8.651 -0.3625  0.3647  0.2204
14373SOL    HW144560   4.564   2.345   8.694  1.2150  2.2866  0.4209
14373SOL    HW244561   4.471   2.462   8.719  1.0139  2.4568 -1.0261
14374SOL     OW44562   4.824   4.263  11.729  0.0943 -0.3486 -0.1015
14374SOL    HW144563   4.853   4.237  11.641  0.3461 -0.5650  0.0455
14374SOL    HW244564   4.816   4.181  11.777  2.8117 -0.0883  0.9752
14375SOL     OW44565   3.884   1.713   7.753  0.2355  0.0979 -0.1277
14375SOL    HW144566   3.948   1.643   7.741  0.4640  0.4009 -0.6921
14375SOL    HW244567   3.937   1.793   7.757 -0.1728  0.4817 -1.7947
14376SOL     OW44568   6.369   4.818   9.609  0.0356 -1.0832 -0.2151
14376SOL    HW144569   6.325   4.895   9.647 -0.0424 -0.8568 -0.7504
14376SOL    HW244570   6.308   4.786   9.544  1.1875  0.0268 -1.9213
14377SOL     OW44571   3.291   3.547   2.020  0.1372  0.1950 -0.2620
14377SOL    HW144572   3.206   3.504   2.008 -1.0808  1.8585  1.6573
14377SOL    HW244573   3.352   3.497   1.965 -1.7532 -2.0449 -0.4660
14378SOL     OW44574   5.102   1.881   1.998  0.1676  0.0249  0.4545
14378SOL    HW144575   5.042   1.808   2.015  1.0309 -0.4090  1.8462
14378SOL    HW244576   5.172   1.869   2.062  1.4015  0.9006 -0.6821
14379SOL     OW44577   2.350   5.365   0.978  0.4960 -0.3474  0.3161
14379SOL    HW144578   2.438   5.383   0.946  1.5004 -1.3144  2.3480
14379SOL    HW244579   2.320   5.290   0.927  0.0407  1.1350 -1.6905
14380SOL     OW44580   4.374   2.600   8.465 -0.1796 -0.1648  0.0405
14380SOL    HW144581   4.420   2.531   8.514 -1.0620 -0.4125  0.5331
14380SOL    HW244582   4.326   2.649   8.532  0.6493  1.1153 -0.2708
14381SOL     OW44583   7.227   2.916   5.312 -0.1535 -0.0357  0.3954
14381SOL    HW144584   7.175   2.909   5.232  0.1300 -2.4869  0.3485
14381SOL    HW244585   7.198   2.842   5.365  1.8324 -0.2614  1.2491
14382SOL     OW44586   0.858   5.798   2.725 -0.2996  0.1306 -0.3092
14382SOL    HW144587   0.885   5.707   2.712  0.5046 -0.0312  1.9190
14382SOL    HW244588   0.799   5.817   2.652 -0.1807 -2.0475 -1.0420
14383SOL     OW44589   7.737   1.947   6.368  0.0880 -0.6227  0.3918
14383SOL    HW144590   7.767   2.036   6.352  0.1894 -0.8235 -0.6336
14383SOL    HW244591   7.789   1.916   6.442 -1.2115  0.7721  1.9599
14384SOL     OW44592   4.749   1.788   4.265 -0.1783  0.1307  0.5175
14384SOL    HW144593   4.789   1.730   4.329 -0.4082 -0.9626 -0.3119
14384SOL    HW244594   4.665   1.747   4.244 -1.3078  1.8464  1.4514
14385SOL     OW44595   3.294   0.104   5.489  0.3484 -0.1676 -0.0501
14385SOL    HW144596   3.297   0.086   5.583  4.8837 -0.6839 -0.1001
14385SOL    HW244597   3.251   0.027   5.452 -1.3579 -0.0415  1.4930
14386SOL     OW44598   4.928   5.640   0.163  0.4510 -0.0476  0.2524
14386SOL    HW144599   5.014   5.611   0.195  0.5777  0.6281  0.5400
14386SOL    HW244600   4.937   5.640   0.068 -0.0771 -2.5247  0.1534
14387SOL     OW44601   6.157   5.804  11.325  0.3089  0.5309 -0.2394
14387SOL    HW144602   6.234   5.826  11.377  1.0462 -4.4256  1.2406
14387SOL    HW244603   6.087   5.790  11.389 -1.1528  2.1484 -1.3639
14388SOL     OW44604   7.194   5.703   3.290  0.2402 -0.5106  0.5807
14388SOL    HW144605   7.157   5.737   3.209  0.4519  0.5231  0.8984
14388SOL    HW244606   7.173   5.770   3.356  2.5938  0.1168  0.7808
14389SOL     OW44607   2.156   4.842  11.802 -0.3593  0.5603 -0.3899
14389SOL    HW144608   2.159   4.901  11.727 -0.7103  0.6514 -0.3317
14389SOL    HW244609   2.170   4.898  11.878 -1.3676  0.6825 -0.2782
14390SOL     OW44610   4.063   2.241  12.245  0.3058 -0.1847  0.3038
14390SOL    HW144611   4.076   2.336  12.246  0.2759 -0.1021 -1.8950
14390SOL    HW244612   4.015   2.222  12.326  0.6771  1.6097  0.9798
14391SOL     OW44613   5.847   4.318   6.070  0.5682  0.2113 -0.0193
14391SOL    HW144614   5.822   4.226   6.058  1.0230  0.0727  0.0637
14391SOL    HW244615   5.764   4.363   6.085  0.4357 -0.3787  1.1619
14392SOL     OW44616   6.437   4.917   9.924 -0.9918  0.2400 -0.3011
14392SOL    HW144617   6.493   4.986   9.887 -1.2025 -0.4953 -2.1186
14392SOL    HW244618   6.380   4.892   9.851 -1.2860 -1.4826  0.4832
14393SOL     OW44619   6.342   3.836   3.944 -0.2533  0.0481 -0.2460
14393SOL    HW144620   6.382   3.902   3.887  1.2669 -0.7466 -0.1281
14393SOL    HW244621   6.279   3.791   3.888  0.0734  0.3398 -0.8526
14394SOL     OW44622   1.563   7.107   1.258  0.0790 -0.3405 -0.2155
14394SOL    HW144623   1.530   7.017   1.253  0.7016 -0.4961 -2.0237
14394SOL    HW244624   1.659   7.098   1.255  0.2020  0.3237  1.0090
14395SOL     OW44625   6.187   2.733   0.344  0.3065 -0.0154  0.5130
14395SOL    HW144626   6.268   2.761   0.386  0.9790  0.2740 -0.9020
14395SOL    HW244627   6.165   2.805   0.286 -0.5189 -0.4499  0.2798
14396SOL     OW44628   5.068   2.906   9.661 -0.0051  0.2579  0.4299
14396SOL    HW144629   5.039   2.997   9.654 -0.9837 -0.0845 -0.1608
14396SOL    HW244630   5.039   2.866   9.579  3.6169  0.2602 -1.0476
14397SOL     OW44631   7.701   7.663   2.138  0.1659  0.0267 -0.2517
14397SOL    HW144632   7.741   7.650   2.224 -0.8924 -1.8517  0.0003
14397SOL    HW244633   7.646   7.741   2.148  0.0427 -0.1877  0.7748
14398SOL     OW44634   3.783   6.532   0.693  0.2037  0.0398  0.1860
14398SOL    HW144635   3.743   6.597   0.635 -0.0783 -0.3586 -0.0702
14398SOL    HW244636   3.875   6.559   0.699 -0.1816  1.2414  1.1579
14399SOL     OW44637   1.057   3.470   3.385  0.6848 -0.0157 -0.0133
14399SOL    HW144638   1.008   3.552   3.396  0.9944 -0.0250  1.7510
14399SOL    HW244639   0.989   3.405   3.365 -0.1563 -0.0621  2.5899
14400SOL     OW44640   2.249   6.924   4.152 -0.0134 -0.1242  0.6112
14400SOL    HW144641   2.272   6.856   4.216  0.0527 -0.7521 -0.0730
14400SOL    HW244642   2.243   6.878   4.069 -0.0142  0.7049  0.1430
14401SOL     OW44643   7.624   2.905   1.840  0.2421  0.9106  0.0058
14401SOL    HW144644   7.621   2.971   1.910  0.9832 -0.4567  1.4054
14401SOL    HW244645   7.710   2.865   1.849 -0.5060 -0.8526 -0.1785
14402SOL     OW44646   0.871   6.672   0.472 -0.2582 -0.7204 -0.0196
14402SOL    HW144647   0.886   6.615   0.397 -0.2326 -0.5253 -0.1627
14402SOL    HW244648   0.778   6.659   0.493  0.1290 -2.1110  1.0195
14403SOL     OW44649   2.553   2.845   3.788 -0.1865 -0.1800 -0.0324
14403SOL    HW144650   2.580   2.856   3.879 -1.4979 -0.5682  0.4385
14403SOL    HW244651   2.531   2.752   3.780  0.5822 -0.2961 -0.9518
14404SOL     OW44652   5.475   0.372  11.966  0.7806 -0.5169 -0.1580
14404SOL    HW144653   5.512   0.285  11.947  2.1794 -0.5278  2.2584
14404SOL    HW244654   5.541   0.415  12.019  0.0833  2.0716 -1.2352
14405SOL     OW44655   3.949   3.049   9.830 -0.5655 -0.1700  0.1108
14405SOL    HW144656   3.989   3.013   9.909  0.9903 -1.4432 -1.2099
14405SOL    HW244657   3.926   2.973   9.777 -2.3084  0.6399 -0.3689
14406SOL     OW44658   2.150   7.732   8.868  0.1565  0.2017 -0.2049
14406SOL    HW144659   2.197   7.815   8.875 -0.3713  0.6732 -1.8074
14406SOL    HW244660   2.070   7.746   8.919  1.4711 -0.4587  2.1714
14407SOL     OW44661   0.207   4.493   4.005 -0.3742 -0.2296  0.3551
14407SOL    HW144662   0.270   4.466   3.939  0.2591  0.2575  0.7494
14407SOL    HW244663   0.258   4.500   4.086 -0.9207  0.2259  0.6712
14408SOL     OW44664   6.129   4.065  12.412  0.0975  0.4425 -0.6413
14408SOL    HW144665   6.090   4.048  12.326 -0.5118  2.6513 -0.8671
14408SOL    HW244666   6.112   4.158  12.428  0.1828  0.0986  1.8942
14409SOL     OW44667   3.678   3.039   4.535  0.3615 -0.5677  0.1265
14409SOL    HW144668   3.668   3.121   4.485  1.7571 -0.0717  0.5910
14409SOL    HW244669   3.679   2.971   4.468 -3.7485 -0.6115 -0.1129
14410SOL     OW44670   7.275   7.238  10.025 -0.0679 -0.4362 -0.2855
14410SOL    HW144671   7.325   7.180  10.083 -0.5123  0.8945  1.5354
14410SOL    HW244672   7.184   7.217  10.044 -0.3167  2.1441  1.9838
14411SOL     OW44673   1.673   3.159   1.441  0.1001  0.7540 -0.3544
14411SOL    HW144674   1.737   3.198   1.500 -0.1195 -0.0797  0.4670
14411SOL    HW244675   1.705   3.070   1.425 -0.6679  0.4359 -0.1979
14412SOL     OW44676   1.896   6.189  11.459 -0.3062 -0.1950  0.2385
14412SOL    HW144677   1.928   6.134  11.387  0.4488  0.8289 -0.2229
14412SOL    HW244678   1.976   6.219  11.503 -0.7520 -0.5690  1.3345
14413SOL     OW44679   2.141   2.078  10.710  0.0813  0.3721  0.1826
14413SOL    HW144680   2.163   2.157  10.759  1.9248  0.0677 -0.0671
14413SOL    HW244681   2.055   2.052  10.742 -1.6914  3.7221 -1.3362
14414SOL     OW44682   3.183   4.572   2.868 -0.1223  0.4198 -0.0793
14414SOL    HW144683   3.269   4.535   2.846 -0.6478  0.8552 -3.4623
14414SOL    HW244684   3.167   4.637   2.799 -2.6419  1.2456  1.1767
14415SOL     OW44685   4.129   1.548   5.487  0.1664  0.2173  0.1407
14415SOL    HW144686   4.036   1.565   5.506  0.0450 -1.2615  1.0419
14415SOL    HW244687   4.173   1.629   5.511 -0.8249  0.7269  0.2974
14416SOL     OW44688   6.989   0.703   6.450  0.5715  0.4411 -0.0741
14416SOL    HW144689   6.916   0.757   6.420 -0.4038 -0.7675  0.0293
14416SOL    HW244690   6.962   0.613   6.429  1.6354 -0.1030  0.7884
14417SOL     OW44691   1.618   6.217   5.599  0.8266  0.4687 -0.1143
14417SOL    HW144692   1.607   6.215   5.504 -0.1649  0.0148 -0.0051
14417SOL    HW244693   1.661   6.134   5.621  4.1641  1.9414 -0.4646
14418SOL     OW44694   4.231   4.354   7.952 -0.1023  0.1844 -0.0781
14418SOL    HW144695   4.147   4.390   7.981  1.5647  2.2082  2.8011
14418SOL    HW244696   4.241   4.272   8.001 -0.5732 -0.3362 -0.8276
14419SOL     OW44697   2.441   6.346   3.515 -0.5438 -0.6030  0.2454
14419SOL    HW144698   2.450   6.289   3.591 -2.6941  1.7168  2.3872
14419SOL    HW244699   2.367   6.309   3.466 -0.6966 -0.7384  0.5763
14420SOL     OW44700   1.884   2.042  10.840 -0.3565 -0.1068 -0.5300
14420SOL    HW144701   1.869   2.089  10.923 -0.8438  0.6036 -1.0082
14420SOL    HW244702   1.796   2.025  10.806 -0.1560 -0.1976 -1.0033
14421SOL     OW44703   1.591   0.119  11.626 -0.1884  0.4191 -0.1360
14421SOL    HW144704   1.638   0.158  11.552  0.0215  0.2355 -0.1019
14421SOL    HW244705   1.608   0.025  11.618 -0.5474  0.3529 -0.1166
14422SOL     OW44706   5.641   5.706   0.069  0.1598  0.2825  0.0114
14422SOL    HW144707   5.644   5.629   0.127  1.9796  0.3766  0.0980
14422SOL    HW244708   5.722   5.752   0.086 -1.6759  3.3246  1.3511
14423SOL     OW44709   4.819   1.222   7.218 -0.2943  0.0670  0.0403
14423SOL    HW144710   4.747   1.186   7.167  0.9686 -0.7317 -1.2564
14423SOL    HW244711   4.859   1.287   7.161  1.1256 -0.8241 -0.0497
14424SOL     OW44712   3.941   2.809   8.984 -0.0953  0.2102  0.2073
14424SOL    HW144713   3.868   2.753   8.958 -0.5321  1.0170 -0.3622
14424SOL    HW244714   4.019   2.758   8.962 -0.4808 -0.4751  0.3997
14425SOL     OW44715   1.306   6.874   0.083  0.4123  0.4639 -0.5532
14425SOL    HW144716   1.244   6.930   0.130 -1.7846 -0.6157 -2.0054
14425SOL    HW244717   1.325   6.922   0.003  0.4093  0.1895 -0.7175
14426SOL     OW44718   3.959   4.603  11.850  0.0521 -0.4730  0.5248
14426SOL    HW144719   4.040   4.588  11.801  0.5753  1.2703  0.7668
14426SOL    HW244720   3.989   4.638  11.934 -0.9534 -0.1313  0.7492
14427SOL     OW44721   2.717   2.988   4.598  0.0311 -0.1819 -0.1257
14427SOL    HW144722   2.769   2.917   4.559  0.0134 -1.3038  1.7538
14427SOL    HW244723   2.698   2.957   4.687  1.6665  3.0145  1.4979
14428SOL     OW44724   1.780   6.881  12.228  0.3811  0.6644  0.3700
14428SOL    HW144725   1.826   6.959  12.256 -0.6565  1.1635  0.7511
14428SOL    HW244726   1.841   6.836  12.169  1.8430  0.6070  1.8705
14429SOL     OW44727   3.437   1.283  11.795  0.5553  0.1932 -0.0213
14429SOL    HW144728   3.438   1.187  11.797 -1.4786  0.1132 -0.2994
14429SOL    HW244729   3.348   1.306  11.823  0.1638  1.8815 -2.3147
14430SOL     OW44730   7.577   2.116   9.554 -0.5692 -0.0321 -0.4351
14430SOL    HW144731   7.483   2.103   9.552 -0.5259 -0.2339 -1.5272
14430SOL    HW244732   7.595   2.178   9.483  0.1817 -0.4276 -0.6047
14431SOL     OW44733   6.244   6.972  10.424 -0.3392  0.1145  0.0925
14431SOL    HW144734   6.166   6.997  10.375  1.0174  0.4467 -2.0560
14431SOL    HW244735   6.230   6.881  10.448 -0.1771 -0.8364 -3.0011
14432SOL     OW44736   3.788   5.197   7.917 -0.5750  0.4211 -0.5142
14432SOL    HW144737   3.867   5.145   7.926 -1.4633 -0.8723  0.0026
14432SOL    HW244738   3.765   5.191   7.824 -0.4413  0.2565 -0.5352
14433SOL     OW44739   3.602   7.653   9.453 -0.9065  0.3140 -0.4380
14433SOL    HW144740   3.630   7.577   9.403 -0.9439  0.1748 -0.2511
14433SOL    HW244741   3.674   7.669   9.514 -1.5425 -0.5203  0.5795
14434SOL     OW44742   4.113   2.271   4.446  0.5266  0.2861 -0.1576
14434SOL    HW144743   4.050   2.224   4.393  0.0472  0.5681  0.1547
14434SOL    HW244744   4.092   2.246   4.536  2.3826 -1.5051 -0.1555
14435SOL     OW44745   6.464   4.798   1.545  0.3514 -0.0477  0.6332
14435SOL    HW144746   6.447   4.880   1.498  1.6410 -0.3377 -0.4045
14435SOL    HW244747   6.492   4.826   1.632 -1.1749  0.5274  0.9781
14436SOL     OW44748   5.480   5.924   0.028 -0.7715  0.2559 -0.2644
14436SOL    HW144749   5.545   5.854   0.037  0.1475  1.2662  1.4627
14436SOL    HW244750   5.406   5.894   0.081 -0.9699 -0.0492 -0.7086
14437SOL     OW44751   4.758   0.232   7.687  0.1899 -0.4406  0.2824
14437SOL    HW144752   4.829   0.271   7.737  0.7759 -0.4958 -0.4785
14437SOL    HW244753   4.785   0.141   7.674 -0.0735 -0.4953  0.0994
14438SOL     OW44754   7.427   7.653  11.429 -0.3021 -0.0099  0.2434
14438SOL    HW144755   7.385   7.734  11.459  1.6694  0.6744  1.4025
14438SOL    HW244756   7.519   7.678  11.416  0.1866 -1.8768 -0.1938
14439SOL     OW44757   3.843   6.621  12.335  0.2515  0.1768  0.3972
14439SOL    HW144758   3.909   6.662  12.278 -0.1838  0.7947  0.3283
14439SOL    HW244759   3.859   6.527  12.326  1.5297  0.3310  0.8750
14440SOL     OW44760   5.674   6.245   6.957 -0.4232 -0.0380 -0.3232
14440SOL    HW144761   5.759   6.205   6.973 -0.1110  0.0277 -1.6964
14440SOL    HW244762   5.631   6.187   6.894 -1.4326 -0.1077  0.3977
14441SOL     OW44763   2.178   2.066   4.538  0.2333  0.0812  0.4866
14441SOL    HW144764   2.210   2.031   4.621 -0.7697  0.3701  1.0195
14441SOL    HW244765   2.222   2.150   4.528  2.0963 -0.9531 -0.4368
14442SOL     OW44766   4.755   6.429   8.376  0.5706  0.2750  0.8494
14442SOL    HW144767   4.796   6.437   8.290 -1.2998 -0.1487 -0.1334
14442SOL    HW244768   4.828   6.435   8.438  2.1860 -1.1833 -0.8022
14443SOL     OW44769   2.979   3.037   1.329 -0.0549 -0.8547  0.4276
14443SOL    HW144770   2.896   3.023   1.374 -0.3690  0.9936  0.5014
14443SOL    HW244771   3.025   2.954   1.336 -2.6368 -2.5886 -1.2221
14444SOL     OW44772   5.574   0.306   3.067  0.2198  0.1042  0.1287
14444SOL    HW144773   5.659   0.316   3.111  1.4336 -0.2310 -1.9848
14444SOL    HW244774   5.539   0.395   3.061  0.8661  0.3712  0.2269
14445SOL     OW44775   4.194   2.403   5.305 -0.7472  0.4998 -0.1049
14445SOL    HW144776   4.184   2.402   5.210 -1.0065 -0.4116 -0.0783
14445SOL    HW244777   4.175   2.313   5.332 -0.5464  0.7178  0.7963
14446SOL     OW44778   7.315   4.746   4.594  0.0913  0.1270 -0.2714
14446SOL    HW144779   7.281   4.708   4.513 -0.1187  0.7753 -0.4917
14446SOL    HW244780   7.258   4.712   4.663 -0.0405 -0.0227 -0.4551
14447SOL     OW44781   7.666   6.386   3.541  0.0171 -0.0614 -0.1431
14447SOL    HW144782   7.719   6.463   3.563 -0.7154  0.8606 -1.4714
14447SOL    HW244783   7.609   6.416   3.470 -1.2204 -1.4667  0.2256
14448SOL     OW44784   2.948   0.387   3.841 -0.1394  0.3813  0.0820
14448SOL    HW144785   2.975   0.360   3.929  1.5193  0.3661 -0.4051
14448SOL    HW244786   3.011   0.454   3.816 -0.7906  0.6200 -0.9728
14449SOL     OW44787   0.246   2.312   3.866  0.0027 -0.5138 -0.6505
14449SOL    HW144788   0.299   2.306   3.945 -1.6970  1.3367  0.7543
14449SOL    HW244789   0.178   2.245   3.878 -0.1952 -0.3010 -0.5650
14450SOL     OW44790   1.027   4.952   8.873 -0.2997  0.5877 -0.1519
14450SOL    HW144791   0.979   4.925   8.951 -0.8432 -0.6282 -0.8699
14450SOL    HW244792   1.033   4.873   8.820 -1.0111  1.6210 -1.8760
14451SOL     OW44793   5.772   2.657   2.835  0.5054 -0.0893 -0.0921
14451SOL    HW144794   5.799   2.597   2.766  1.7506 -0.6195  0.8285
14451SOL    HW244795   5.838   2.647   2.903 -0.0935  1.2275  0.7203
14452SOL     OW44796   3.822   0.328   7.162 -0.1482  0.4167 -0.9504
14452SOL    HW144797   3.823   0.375   7.246  0.2804  0.3501 -0.9135
14452SOL    HW244798   3.912   0.295   7.153 -0.8224 -1.8144 -0.1617
14453SOL     OW44799   5.626   2.723   4.637  0.1896  0.2978  0.0003
14453SOL    HW144800   5.674   2.662   4.693 -0.8613 -0.5169  0.0367
14453SOL    HW244801   5.600   2.671   4.562  0.5523  1.0873 -0.6880
14454SOL     OW44802   4.612   0.784   1.711 -0.9278 -0.5110 -0.6036
14454SOL    HW144803   4.571   0.730   1.778 -0.2621  0.9639  1.0668
14454SOL    HW244804   4.616   0.871   1.749  1.1847  0.0007 -1.7991
14455SOL     OW44805   6.312   3.734   4.966 -0.4446  0.3230 -0.0275
14455SOL    HW144806   6.291   3.679   4.890  1.1366  0.0104 -0.2771
14455SOL    HW244807   6.296   3.823   4.936 -1.4160  0.1067 -0.1793
14456SOL     OW44808   6.882   1.152   1.687 -0.3037 -0.0502 -0.0642
14456SOL    HW144809   6.894   1.119   1.599 -2.3125  0.6394 -0.6416
14456SOL    HW244810   6.834   1.234   1.676 -0.2046  0.2827  1.6453
14457SOL     OW44811   6.440   2.933   5.090  0.0148  0.0395  0.4215
14457SOL    HW144812   6.471   2.939   5.000  1.0982 -0.5617  0.7328
14457SOL    HW244813   6.402   2.845   5.097  0.5539 -0.1739  0.7275
14458SOL     OW44814   5.575   5.063   4.233 -0.2628 -0.2301  0.1050
14458SOL    HW144815   5.629   5.071   4.154 -0.0899  2.1965  0.3818
14458SOL    HW244816   5.491   5.101   4.208 -0.0693  0.9509  1.1639
14459SOL     OW44817   4.232   3.465   2.304 -0.4248 -0.2186  0.0411
14459SOL    HW144818   4.273   3.546   2.337 -2.4294  0.6849  0.5045
14459SOL    HW244819   4.282   3.395   2.345  2.7321  0.6431 -1.9849
14460SOL     OW44820   1.390   5.135   8.042 -0.2673  0.2359  0.7439
14460SOL    HW144821   1.444   5.214   8.045 -1.2304  0.9890 -0.5526
14460SOL    HW244822   1.438   5.076   7.984  0.0178  0.2020  1.0085
14461SOL     OW44823   4.125   2.044   1.526 -0.8834 -0.2780 -0.5607
14461SOL    HW144824   4.113   1.985   1.601  1.5453  0.4640  0.5098
14461SOL    HW244825   4.102   2.131   1.560  2.0991  0.3690  0.0104
14462SOL     OW44826   0.295   1.923   7.838  0.4377  0.0734 -0.3546
14462SOL    HW144827   0.240   1.928   7.759 -0.2076  0.5810  0.1156
14462SOL    HW244828   0.245   1.868   7.898 -1.0137  2.8434  1.1728
14463SOL     OW44829   0.268   5.195   4.589 -0.8053 -0.2398 -0.4832
14463SOL    HW144830   0.314   5.273   4.558  0.0860 -1.1490 -1.5203
14463SOL    HW244831   0.180   5.226   4.612 -0.9487  0.8139 -2.2859
14464SOL     OW44832   0.213   7.559   5.398 -0.5239 -0.4702 -0.1057
14464SOL    HW144833   0.237   7.495   5.332 -0.9444 -0.7065 -0.0377
14464SOL    HW244834   0.190   7.638   5.348  0.8588 -0.0764 -0.1398
14465SOL     OW44835   6.208   6.459   0.872  0.4360  0.7264 -0.0913
14465SOL    HW144836   6.192   6.452   0.966  0.2167  0.2232 -0.1610
14465SOL    HW244837   6.303   6.446   0.863  0.2496 -0.8876 -0.0737
14466SOL     OW44838   0.304   4.606   5.711  0.3715 -0.3597  0.3726
14466SOL    HW144839   0.334   4.697   5.711 -0.7317  0.0340  1.4370
14466SOL    HW244840   0.299   4.583   5.804 -1.2035 -0.8574  0.1867
14467SOL     OW44841   0.458   7.793   5.347 -0.3390 -0.4452  0.1899
14467SOL    HW144842   0.493   7.878   5.372  2.3126 -1.3324 -0.1685
14467SOL    HW244843   0.467   7.739   5.425 -1.4080 -0.5838  0.2255
14468SOL     OW44844   5.810   1.728   1.280 -0.0326 -0.1251  0.4329
14468SOL    HW144845   5.872   1.663   1.312 -2.0273 -1.1660  2.4536
14468SOL    HW244846   5.827   1.733   1.186  3.3127 -0.0320  0.9393
14469SOL     OW44847   7.322   6.771   2.657  0.4248 -0.0588  0.6351
14469SOL    HW144848   7.272   6.838   2.702  1.1611  1.0764 -0.1915
14469SOL    HW244849   7.341   6.706   2.724  1.5165  1.5945  2.0068
14470SOL     OW44850   7.584   1.927   2.804 -0.7692 -0.2166  0.0956
14470SOL    HW144851   7.546   2.011   2.829 -0.8183 -0.1814 -0.0942
14470SOL    HW244852   7.678   1.937   2.820 -0.9806 -0.8053  1.9924
14471SOL     OW44853   3.084   5.242   1.979  0.2438  0.2879  0.1431
14471SOL    HW144854   3.073   5.291   2.060 -0.0368 -0.5518  0.6216
14471SOL    HW244855   3.168   5.197   1.988 -0.3915 -0.8751  0.5672
14472SOL     OW44856   4.053   2.707   7.288 -0.4881  0.1020  0.3122
14472SOL    HW144857   4.021   2.766   7.220 -1.7454  0.3364  1.0792
14472SOL    HW244858   3.992   2.718   7.361 -1.0235 -2.4266  0.3611
14473SOL     OW44859   5.406   1.704   7.339  0.2737  0.0867 -0.1120
14473SOL    HW144860   5.319   1.685   7.304  0.6805 -1.9021 -0.1902
14473SOL    HW244861   5.389   1.743   7.425 -0.6922  0.1922 -0.3366
14474SOL     OW44862   1.048   2.215  12.329 -0.0374 -0.4347 -0.0115
14474SOL    HW144863   1.032   2.277  12.258  0.3820 -0.4362 -0.1105
14474SOL    HW244864   0.968   2.218  12.382  0.3999  1.0541  0.6305
14475SOL     OW44865   6.454   2.398   6.610  0.1240  0.2473  0.5089
14475SOL    HW144866   6.479   2.450   6.687  0.6322 -0.0774  0.5680
14475SOL    HW244867   6.419   2.462   6.549  1.6730  0.8323  0.1812
14476SOL     OW44868   3.398   1.135   1.240 -0.2694 -0.0499  0.2164
14476SOL    HW144869   3.431   1.204   1.297 -0.4865  0.0834  0.1859
14476SOL    HW244870   3.323   1.098   1.287 -0.3358 -0.0644  0.1017
14477SOL     OW44871   3.955   5.418   8.435 -0.6480  0.0696  0.8503
14477SOL    HW144872   4.043   5.451   8.456 -0.5525  0.1135  0.3812
14477SOL    HW244873   3.926   5.472   8.362 -0.4381 -0.9651 -0.0292
14478SOL     OW44874   3.692   0.043   4.159  0.4391  0.4153 -0.5514
14478SOL    HW144875   3.675   0.070   4.249 -1.1698 -0.0499 -0.6932
14478SOL    HW244876   3.732  -0.044   4.167  0.0154  0.2436 -0.2977
14479SOL     OW44877   4.312   5.334  12.468 -0.0177 -0.3554  0.3878
14479SOL    HW144878   4.285   5.386  12.544 -0.4514 -0.7952  0.5454
14479SOL    HW244879   4.401   5.306  12.489  0.9092  1.7353 -0.4720
14480SOL     OW44880   3.576   1.493   5.700 -0.5637  0.4199 -0.5743
14480SOL    HW144881   3.555   1.504   5.793 -0.1831  1.2741 -0.5822
14480SOL    HW244882   3.508   1.433   5.668 -0.2876 -0.4526  0.3951
14481SOL     OW44883   4.567   0.666   6.725 -0.1018 -0.2007 -0.5182
14481SOL    HW144884   4.603   0.578   6.715 -0.1417 -0.1405 -1.2290
14481SOL    HW244885   4.633   0.723   6.685 -1.0535 -0.1046 -2.0452
14482SOL     OW44886   2.604   4.934   3.683 -0.2137 -0.2002 -0.1151
14482SOL    HW144887   2.638   4.930   3.593  0.7988 -1.1705  0.2994
14482SOL    HW244888   2.681   4.945   3.738 -0.7075 -0.9292  0.7427
14483SOL     OW44889   5.885   1.456  11.470  0.1520 -0.1431 -0.8305
14483SOL    HW144890   5.803   1.492  11.503  0.0925 -0.4521 -0.6327
14483SOL    HW244891   5.877   1.361  11.485  1.2422 -0.0142  0.7513
14484SOL     OW44892   5.648   5.710   8.077 -0.1191 -0.2055 -0.4338
14484SOL    HW144893   5.737   5.712   8.112 -0.3922  1.3290  0.2445
14484SOL    HW244894   5.607   5.636   8.120 -0.4248  1.5606  2.5917
14485SOL     OW44895   0.422   1.764   7.099 -0.0414 -0.1684 -0.0639
14485SOL    HW144896   0.492   1.825   7.076  0.3147 -0.8842 -0.9338
14485SOL    HW244897   0.452   1.679   7.067 -1.6995 -0.3463 -1.2906
14486SOL     OW44898   4.454   7.127   7.114  0.5118 -0.6430  0.3404
14486SOL    HW144899   4.382   7.169   7.160 -1.4702 -1.6770 -1.6203
14486SOL    HW244900   4.533   7.165   7.152 -0.9939 -0.2607  3.3473
14487SOL     OW44901   3.990   2.826   0.853  0.0513 -0.2237  0.0753
14487SOL    HW144902   3.933   2.835   0.929 -1.3139  0.5074 -1.0019
14487SOL    HW244903   3.936   2.784   0.786  0.5773  0.9695 -1.1555
14488SOL     OW44904   2.995   5.923   1.711 -0.0344 -0.3526  0.2960
14488SOL    HW144905   3.089   5.914   1.729  0.0296 -0.7431 -0.2042
14488SOL    HW244906   2.954   5.850   1.757 -0.0530 -0.3900  0.2206
14489SOL     OW44907   7.529   3.125   9.756  0.3605 -0.2502  0.1250
14489SOL    HW144908   7.532   3.032   9.775 -0.2037 -0.1797  0.5548
14489SOL    HW244909   7.448   3.156   9.795  0.7309  0.5005  0.3254
14490SOL     OW44910   5.525   1.331  10.411 -0.6875  0.3305 -0.0043
14490SOL    HW144911   5.593   1.270  10.383 -1.2754 -0.7423  0.8030
14490SOL    HW244912   5.444   1.279  10.408 -1.3472  1.3322 -0.1449
14491SOL     OW44913   1.597   7.907   4.124 -0.0152 -0.4569  0.4193
14491SOL    HW144914   1.660   7.844   4.158 -0.1399 -0.4722  0.6235
14491SOL    HW244915   1.512   7.872   4.151 -0.1146 -0.4760  0.0825
14492SOL     OW44916   1.618   4.953   5.843  0.3171 -0.5648  0.1024
14492SOL    HW144917   1.688   5.015   5.861  0.5357 -0.7171 -0.2194
14492SOL    HW244918   1.628   4.885   5.910  0.8618 -0.9058 -0.3142
14493SOL     OW44919   4.273   4.868  10.848 -0.3321 -0.7020  0.2206
14493SOL    HW144920   4.302   4.818  10.772 -0.8666 -1.7059  0.6577
14493SOL    HW244921   4.216   4.936  10.812  0.5413 -0.2899 -0.3985
14494SOL     OW44922   2.038   5.058   3.054  0.3002 -0.3741 -0.1397
14494SOL    HW144923   2.050   5.008   3.135 -0.6711 -1.0175 -0.3759
14494SOL    HW244924   2.108   5.027   2.996  0.2760 -0.7671  0.0394
14495SOL     OW44925   1.454   0.178   3.287  0.6517 -0.7125  0.3946
14495SOL    HW144926   1.471   0.258   3.337  0.9076 -0.4577 -0.0858
14495SOL    HW244927   1.374   0.142   3.324  1.8031 -1.5334  2.2328
14496SOL     OW44928   1.861   1.387   9.082  0.3240  0.1031  0.0006
14496SOL    HW144929   1.779   1.339   9.080  0.3155  0.1303 -0.4796
14496SOL    HW244930   1.894   1.382   8.992 -0.5722  2.5366 -0.5331
14497SOL     OW44931   0.153   6.003   2.765  0.4313 -0.6139 -0.7807
14497SOL    HW144932   0.116   6.089   2.747  1.3226 -0.2148 -0.7644
14497SOL    HW244933   0.146   5.994   2.860 -0.1540 -0.7951 -0.8372
14498SOL     OW44934   1.397   4.332  11.056  0.1975 -0.1050  0.0633
14498SOL    HW144935   1.396   4.428  11.067 -1.6565 -0.3021  2.1075
14498SOL    HW244936   1.490   4.311  11.045  0.5225  2.0679 -2.4491
14499SOL     OW44937   1.189   7.453   7.101  0.0653  0.5053 -0.6896
14499SOL    HW144938   1.178   7.482   7.192 -2.3055  2.5869 -1.5430
14499SOL    HW244939   1.284   7.444   7.090  0.4557  1.0524  1.7233
14500SOL     OW44940   6.500   6.072   3.595 -0.2880  0.3537 -0.0045
14500SOL    HW144941   6.505   6.157   3.640 -0.5292  0.0332  0.6514
14500SOL    HW244942   6.423   6.030   3.634  1.2104 -1.1645  1.4602
14501SOL     OW44943   7.843   6.994  10.306 -0.5290  0.3855 -0.4662
14501SOL    HW144944   7.787   7.054  10.257 -0.1398  1.2065  0.0667
14501SOL    HW244945   7.891   7.050  10.366 -1.1104 -0.5989  0.9854
14502SOL     OW44946   5.290   3.593  11.580  0.7460 -0.4172 -0.4496
14502SOL    HW144947   5.327   3.600  11.668  0.8030  0.9552 -0.5613
14502SOL    HW244948   5.196   3.603  11.593  0.7135 -0.6540 -0.5017
14503SOL     OW44949   2.687   4.443   4.015  0.6111  0.1838 -0.2842
14503SOL    HW144950   2.696   4.392   3.935  0.6952  0.9994 -0.8105
14503SOL    HW244951   2.777   4.458   4.045  0.5432 -2.5850  1.6117
14504SOL     OW44952   4.059   7.133   9.079 -0.2033 -0.0105  0.0206
14504SOL    HW144953   4.114   7.054   9.080 -0.6197 -0.3286 -0.9555
14504SOL    HW244954   4.058   7.161   8.988  0.6026  1.6259  0.4868
14505SOL     OW44955   2.197   1.205   7.320 -0.1219 -0.0899  0.3135
14505SOL    HW144956   2.235   1.275   7.266 -0.9703 -0.1126 -0.3223
14505SOL    HW244957   2.130   1.250   7.372  0.7726 -0.0440  1.4619
14506SOL     OW44958   6.381   0.030   3.315  0.5295 -0.6146 -0.4223
14506SOL    HW144959   6.421   0.106   3.355 -0.2055 -0.4565  0.0360
14506SOL    HW244960   6.446  -0.040   3.323  1.5026  0.1343 -1.4960
14507SOL     OW44961   2.487   4.169   3.430 -0.2689 -0.2761 -0.3896
14507SOL    HW144962   2.444   4.250   3.402  2.1282  1.1722 -0.2352
14507SOL    HW244963   2.419   4.102   3.424 -2.1924  1.6141 -1.1417
14508SOL     OW44964   0.371   1.895   9.352 -0.3228 -0.2782  0.2874
14508SOL    HW144965   0.412   1.815   9.384  0.4780  0.8111  2.2174
14508SOL    HW244966   0.289   1.867   9.312  0.7610 -2.1942 -0.7149
14509SOL     OW44967   2.573   2.061   8.419 -0.1912 -0.3319 -0.1443
14509SOL    HW144968   2.508   2.002   8.379 -1.5132  1.6939 -1.1575
14509SOL    HW244969   2.550   2.064   8.511  0.5394 -2.1438  0.1350
14510SOL     OW44970   1.383   1.857   7.178 -0.3187  0.1693  0.1353
14510SOL    HW144971   1.396   1.768   7.145  2.2847  0.5296 -0.0510
14510SOL    HW244972   1.390   1.913   7.101  1.7623  0.7278  0.6597
14511SOL     OW44973   2.685   4.216   6.745 -0.0981  0.5242  0.0070
14511SOL    HW144974   2.718   4.158   6.813 -0.4384 -0.7408 -0.8709
14511SOL    HW244975   2.589   4.213   6.755 -0.1535  0.2896 -0.5465
14512SOL     OW44976   5.716   0.225   3.329 -0.2875 -0.1363 -0.7354
14512SOL    HW144977   5.698   0.142   3.285 -1.3930  0.4779 -1.4818
14512SOL    HW244978   5.661   0.223   3.407  1.6898 -1.2359  0.7302
14513SOL     OW44979   6.812   2.006   1.342  0.0140  0.9514  0.5126
14513SOL    HW144980   6.774   1.960   1.417  2.0767  0.6315  1.4280
14513SOL    HW244981   6.748   2.073   1.320 -0.4666  1.3582  2.8732
14514SOL     OW44982   6.805   0.796   0.568 -0.5027 -0.3418 -0.3709
14514SOL    HW144983   6.888   0.841   0.555 -1.4143  1.5428  0.0848
14514SOL    HW244984   6.738   0.863   0.556 -1.9703 -1.7286 -0.3625
14515SOL     OW44985   4.344   0.869  12.175 -0.1613 -0.4215  0.0932
14515SOL    HW144986   4.300   0.849  12.258  0.2959 -0.6733  0.2831
14515SOL    HW244987   4.436   0.879  12.199 -0.0405 -0.3974 -0.3708
14516SOL     OW44988   4.524   7.600   3.894  0.4055  0.7363  0.1982
14516SOL    HW144989   4.436   7.563   3.886  0.1429  1.1348  1.1652
14516SOL    HW244990   4.515   7.688   3.858 -0.1923  1.6469  2.4284
14517SOL     OW44991   3.013   7.282   4.617  0.1542 -0.3293 -0.2355
14517SOL    HW144992   2.929   7.303   4.658 -0.9928 -0.3883 -2.3731
14517SOL    HW244993   3.001   7.195   4.581  0.2005  0.5988 -2.6929
14518SOL     OW44994   1.064   7.738   1.724  0.4694  0.0133  0.4279
14518SOL    HW144995   1.126   7.776   1.786  1.6039  0.2984 -0.8138
14518SOL    HW244996   1.007   7.810   1.698  0.1933 -0.0347  0.8995
14519SOL     OW44997   5.495   1.158   2.997 -0.2424  0.4723  0.1883
14519SOL    HW144998   5.437   1.184   2.926  0.8809  0.9973 -0.5649
14519SOL    HW244999   5.576   1.207   2.981  0.3605 -0.1308  1.2869
14520SOL     OW45000   7.637   4.837   8.587 -0.1935 -0.3076  0.3834
14520SOL    HW145001   7.731   4.820   8.580 -0.3664 -0.4966 -2.9325
14520SOL    HW245002   7.631   4.933   8.595  0.2742 -0.4514  4.0860
14521SOL     OW45003   0.457   0.285   4.776  0.0815  0.3360  0.0771
14521SOL    HW145004   0.470   0.193   4.797 -2.2459  0.2106  1.3208
14521SOL    HW245005   0.400   0.284   4.699 -1.4269  0.6514  1.1345
14522SOL     OW45006   0.711   3.748   8.684 -0.1356  0.0210  0.3318
14522SOL    HW145007   0.712   3.654   8.663 -2.0192  0.5932 -2.9382
14522SOL    HW245008   0.618   3.769   8.695  0.1753  1.6921 -0.0319
14523SOL     OW45009   5.505   7.682   2.523  0.0579 -0.0742 -0.3158
14523SOL    HW145010   5.473   7.758   2.573  1.1621 -0.8548  1.6804
14523SOL    HW245011   5.583   7.715   2.478  1.4293 -0.3279  1.7478
14524SOL     OW45012   6.994   6.615  11.090 -0.7697 -0.1223  0.7169
14524SOL    HW145013   7.008   6.709  11.078  0.7605 -0.5666 -1.4371
14524SOL    HW245014   6.898   6.605  11.087 -0.8986  1.2144 -0.4625
14525SOL     OW45015   6.404   3.288   0.579  0.1884  0.0308 -0.3743
14525SOL    HW145016   6.409   3.231   0.655 -0.0055  0.4592 -0.0324
14525SOL    HW245017   6.468   3.357   0.597  0.5825 -0.1921 -0.8850
14526SOL     OW45018   7.268   4.985   7.201  0.1409 -0.4077  0.1842
14526SOL    HW145019   7.217   4.931   7.141 -0.3110 -0.0402  0.2306
14526SOL    HW245020   7.328   4.924   7.243  0.0470 -0.7707 -0.1966
14527SOL     OW45021   4.580   5.989   2.468  0.2039 -0.2726  0.1287
14527SOL    HW145022   4.549   5.914   2.418 -1.9053  0.2691  0.5462
14527SOL    HW245023   4.612   6.051   2.402  0.7318 -0.9790 -0.2899
14528SOL     OW45024   6.360   6.874   2.117  0.0166  0.3498  0.0989
14528SOL    HW145025   6.410   6.951   2.090 -0.3020  0.1991 -0.9677
14528SOL    HW245026   6.325   6.898   2.203 -0.6391  1.6878 -0.4929
14529SOL     OW45027   6.379   2.893   7.340  0.1144  0.4284  0.1660
14529SOL    HW145028   6.364   2.968   7.397  2.4587  1.2092 -0.1115
14529SOL    HW245029   6.361   2.925   7.252  0.2122  0.3901  0.1311
14530SOL     OW45030   1.040   0.043   9.244  0.0779 -0.0074 -0.5740
14530SOL    HW145031   1.006   0.124   9.281  0.4033  0.8981 -2.1578
14530SOL    HW245032   1.109   0.016   9.304  1.3207  1.9863 -1.0399
14531SOL     OW45033   3.135   3.497   7.172 -0.0433 -0.1417  0.1825
14531SOL    HW145034   3.227   3.472   7.171  0.1765  0.6588 -0.7591
14531SOL    HW245035   3.093   3.438   7.110 -0.0095  0.0658 -0.0371
14532SOL     OW45036   4.426   0.389   8.019 -0.5022 -0.1005 -0.1299
14532SOL    HW145037   4.380   0.334   7.955  0.7853 -1.7760  0.3091
14532SOL    HW245038   4.422   0.339   8.101  3.3483 -1.1692 -0.4033
14533SOL     OW45039   2.844   4.542   2.656  0.0474 -0.5416 -0.7136
14533SOL    HW145040   2.770   4.593   2.623  0.0138 -0.1675 -0.0712
14533SOL    HW245041   2.912   4.554   2.590  0.0036  0.2469 -0.6203
14534SOL     OW45042   4.756   3.804  10.593 -0.1216  0.0405 -0.0804
14534SOL    HW145043   4.705   3.886  10.589  0.5055  0.5119  1.1107
14534SOL    HW245044   4.704   3.742  10.542 -1.8938  0.5156  1.0459
14535SOL     OW45045   5.547   5.149   7.663  0.0839  0.3463 -0.1545
14535SOL    HW145046   5.528   5.231   7.709  0.1049 -0.0285  0.5400
14535SOL    HW245047   5.465   5.099   7.667 -0.4579  1.0066 -2.0592
14536SOL     OW45048   2.635   3.787   0.899 -0.5204 -0.0442  0.5157
14536SOL    HW145049   2.640   3.881   0.913 -0.2879  0.0749 -0.2897
14536SOL    HW245050   2.685   3.749   0.972  3.1354  0.6776 -1.3505
14537SOL     OW45051   4.406   6.047  11.696 -0.1503  0.1150  0.5347
14537SOL    HW145052   4.494   6.076  11.720 -0.5788  0.4266  1.8291
14537SOL    HW245053   4.406   6.048  11.600  0.9202  1.1408  0.5097
14538SOL     OW45054   7.494   7.642   1.331  0.4018 -0.6656  0.3377
14538SOL    HW145055   7.474   7.735   1.316  0.1468 -0.8209 -0.3290
14538SOL    HW245056   7.580   7.630   1.292 -0.4333 -1.1635 -1.4482
14539SOL     OW45057   3.552   7.298   9.696  0.0368 -0.3111 -0.0881
14539SOL    HW145058   3.581   7.235   9.763 -1.6648 -0.6582  0.3951
14539SOL    HW245059   3.583   7.383   9.727  1.0612 -0.7257  0.0474
14540SOL     OW45060   6.245   1.106   4.867 -0.1181  0.7949 -0.0626
14540SOL    HW145061   6.298   1.141   4.795  0.4495 -0.8697 -0.5095
14540SOL    HW245062   6.185   1.044   4.825 -0.0294  0.0714  0.8486
14541SOL     OW45063   5.355   3.680   5.526  0.0094  0.2122  0.6815
14541SOL    HW145064   5.295   3.681   5.601  0.2431 -0.9059  0.8874
14541SOL    HW245065   5.297   3.694   5.450 -0.3979  0.0039  0.9497
14542SOL     OW45066   1.454   7.067   3.351 -0.0743  0.2106 -0.0432
14542SOL    HW145067   1.504   7.116   3.285 -1.9332  0.2906 -1.4856
14542SOL    HW245068   1.382   7.126   3.374 -0.0412 -0.2520  1.2820
14543SOL     OW45069   6.932   3.149  11.071 -0.1418 -0.4382 -0.3098
14543SOL    HW145070   6.885   3.155  11.154 -0.0540 -0.2384 -0.2739
14543SOL    HW245071   7.019   3.186  11.090 -0.3510  0.2466 -0.6623
14544SOL     OW45072   7.575   7.052   6.415  0.4294 -0.5086  0.1760
14544SOL    HW145073   7.547   7.090   6.332  1.2497 -0.5833 -0.1463
14544SOL    HW245074   7.499   7.059   6.472 -0.1251 -0.3979 -0.5635
14545SOL     OW45075   7.462   5.466   1.314 -0.8345 -0.5887  0.3526
14545SOL    HW145076   7.482   5.545   1.264 -0.6587 -0.4735  0.6012
14545SOL    HW245077   7.381   5.432   1.276 -1.8115  0.6069  1.3080
14546SOL     OW45078   6.556   3.352   7.257  0.1197  0.0517 -0.2099
14546SOL    HW145079   6.462   3.356   7.273  0.1005  0.8432 -0.4685
14546SOL    HW245080   6.564   3.362   7.162  0.4923  0.6006 -0.1253
14547SOL     OW45081   5.383   0.282  10.167  0.3805 -1.0744 -0.3646
14547SOL    HW145082   5.383   0.186  10.162  0.6572 -1.1761  1.1078
14547SOL    HW245083   5.447   0.303  10.235 -0.1036  0.1337 -0.2523
14548SOL     OW45084   1.208   5.963   0.855 -0.1237  0.2219  0.0963
14548SOL    HW145085   1.140   5.955   0.922 -0.8494 -2.0419 -0.8193
14548SOL    HW245086   1.212   5.876   0.815  3.1382  0.3461 -0.0766
14549SOL     OW45087   0.681   3.623   7.372 -0.3466 -0.0291  0.2518
14549SOL    HW145088   0.652   3.653   7.459 -0.5322  0.0950  0.1485
14549SOL    HW245089   0.695   3.529   7.383  0.2651  0.0944  0.5878
14550SOL     OW45090   6.768   3.813   9.242  0.0715 -0.8059  0.2839
14550SOL    HW145091   6.855   3.772   9.245  0.2618 -0.5300 -1.0562
14550SOL    HW245092   6.785   3.906   9.258 -0.0318 -0.8035  0.3862
14551SOL     OW45093   5.611   4.286   0.326  0.1996 -0.2209 -0.1956
14551SOL    HW145094   5.523   4.275   0.291  0.5446 -0.8186 -0.9043
14551SOL    HW245095   5.642   4.197   0.344  1.6964 -0.2953 -2.6438
14552SOL     OW45096   5.854   5.858   0.099  0.0187 -0.2794  0.3080
14552SOL    HW145097   5.852   5.859   0.194  1.1853 -0.2805  0.3478
14552SOL    HW245098   5.887   5.945   0.075  0.4086 -0.5252 -0.0613
14553SOL     OW45099   1.834   7.105  10.112 -0.2355 -0.0858 -0.3132
14553SOL    HW145100   1.747   7.071  10.091 -0.1564 -1.1805  1.0081
14553SOL    HW245101   1.849   7.079  10.202  0.9630  1.1926 -0.1036
14554SOL     OW45102   1.828   4.508   5.832 -0.3588  0.2213 -0.0566
14554SOL    HW145103   1.775   4.440   5.874  1.1918 -0.4230  0.9498
14554SOL    HW245104   1.849   4.471   5.746 -1.5329  0.5004 -0.4849
14555SOL     OW45105   1.113   7.901   3.853 -0.2512  0.1808 -0.5428
14555SOL    HW145106   1.191   7.908   3.908 -0.2310  2.6754 -0.7853
14555SOL    HW245107   1.051   7.851   3.906  1.2327 -1.2736 -0.0805
14556SOL     OW45108   3.128   0.038   1.064 -0.3853 -0.2855  0.3735
14556SOL    HW145109   3.145   0.098   1.136  1.8688 -1.3214  0.8026
14556SOL    HW245110   3.050   0.073   1.021  0.8907  3.0515  0.4641
14557SOL     OW45111   4.480   4.807  12.023  0.6712 -0.0591  0.2943
14557SOL    HW145112   4.506   4.898  12.005  0.5091  0.3576  2.0087
14557SOL    HW245113   4.396   4.796  11.978  0.7311  0.6168  0.0135
14558SOL     OW45114   0.374   1.316   5.347 -0.2898 -0.4951 -1.0049
14558SOL    HW145115   0.325   1.362   5.279 -2.3821 -1.5397 -0.2953
14558SOL    HW245116   0.355   1.364   5.427  1.7445  0.4207 -1.0113
14559SOL     OW45117   4.670   2.664   5.903 -0.5143  0.5246 -0.1282
14559SOL    HW145118   4.589   2.675   5.852 -0.7007  1.4631  0.3438
14559SOL    HW245119   4.641   2.672   5.994 -0.1349 -0.8066  0.1296
14560SOL     OW45120   1.629   6.576   7.794  0.1118  0.0240 -0.4760
14560SOL    HW145121   1.543   6.581   7.753 -1.2842  0.5666  2.2600
14560SOL    HW245122   1.664   6.491   7.767 -1.4808 -0.4090 -1.2825
14561SOL     OW45123   2.695   2.120   4.849 -0.6324 -0.2336  0.4373
14561SOL    HW145124   2.634   2.110   4.775 -0.3318  2.9586 -0.3568
14561SOL    HW245125   2.638   2.125   4.926 -1.1173 -0.8557  0.1336
14562SOL     OW45126   2.805   1.559   8.471  0.1490  0.3922 -0.3515
14562SOL    HW145127   2.864   1.493   8.509 -0.6072 -0.8949 -1.3367
14562SOL    HW245128   2.845   1.580   8.387 -0.0217  0.6342 -0.3711
14563SOL     OW45129   2.297   6.216   2.593 -0.0898  0.1745  0.1138
14563SOL    HW145130   2.303   6.139   2.650 -2.0996 -0.7425 -0.8197
14563SOL    HW245131   2.386   6.250   2.589  0.8845 -2.1472  0.5249
14564SOL     OW45132   1.850   0.088   2.238 -0.5297  0.4310  0.2737
14564SOL    HW145133   1.859   0.103   2.332 -1.0293 -2.2075  0.8273
14564SOL    HW245134   1.775   0.141   2.212  0.6933  2.6138  0.9151
14565SOL     OW45135   3.210   7.023   6.856  0.2155 -0.2007  0.6514
14565SOL    HW145136   3.284   7.083   6.857 -0.8967  1.1936  1.1303
14565SOL    HW245137   3.240   6.950   6.800  1.1688  1.3172 -0.9155
14566SOL     OW45138   4.720   4.757  11.436 -0.2707  0.2369  0.0589
14566SOL    HW145139   4.669   4.790  11.362  0.2221  1.4271  0.2214
14566SOL    HW245140   4.725   4.831  11.496 -0.2755 -0.5709  1.0864
14567SOL     OW45141   1.976   0.795   6.296  0.1160 -0.1887 -0.2344
14567SOL    HW145142   2.002   0.813   6.205 -1.4123  0.4912 -0.5689
14567SOL    HW245143   1.979   0.881   6.339 -0.1778 -0.3367  0.0812
14568SOL     OW45144   1.484   6.700   4.744  0.3335 -0.7005 -0.2012
14568SOL    HW145145   1.442   6.624   4.785 -0.4793 -0.1840 -0.0451
14568SOL    HW245146   1.505   6.671   4.655  1.6943 -1.6823  0.4029
14569SOL     OW45147   2.214   2.185  12.137  0.5303 -0.1298 -0.3659
14569SOL    HW145148   2.144   2.237  12.177  0.1621 -0.9256  0.0582
14569SOL    HW245149   2.278   2.174  12.206  0.2142 -0.9292 -0.1841
14570SOL     OW45150   4.059   7.865   9.181 -0.4760  0.2003 -0.9520
14570SOL    HW145151   3.994   7.931   9.159 -1.8656 -0.8965 -0.2378
14570SOL    HW245152   4.143   7.911   9.174 -1.4417  2.3783  0.6730
14571SOL     OW45153   7.680   0.141   6.374  0.4930  0.4171 -0.1141
14571SOL    HW145154   7.641   0.186   6.448  0.2646  0.4393 -0.2489
14571SOL    HW245155   7.774   0.156   6.384  0.4056  1.0668 -0.2514
14572SOL     OW45156   2.071   1.126   2.500  0.0769 -0.1551  0.1736
14572SOL    HW145157   2.063   1.171   2.584  0.9473 -2.7603  1.7532
14572SOL    HW245158   2.033   1.040   2.515 -1.8114  0.0072 -2.8025
14573SOL     OW45159   4.855   1.449  11.047  0.1182 -0.3867  0.0082
14573SOL    HW145160   4.849   1.534  11.090 -0.1071 -0.4053  0.0161
14573SOL    HW245161   4.904   1.394  11.108 -0.6860 -0.5760  0.5054
14574SOL     OW45162   0.467   6.131   4.736 -0.1011 -0.0727 -0.4326
14574SOL    HW145163   0.395   6.158   4.793  1.5213  1.5639  0.9427
14574SOL    HW245164   0.463   6.192   4.663  0.1007  0.2268 -0.1922
14575SOL     OW45165   4.750   1.147   2.221 -0.7871  0.0657  0.0362
14575SOL    HW145166   4.845   1.153   2.208 -0.7130  0.9931  0.9375
14575SOL    HW245167   4.723   1.236   2.242 -2.1422  0.1720 -1.8798
14576SOL     OW45168   4.017   1.492   3.877 -0.0950 -0.1627  0.3656
14576SOL    HW145169   4.099   1.450   3.854 -0.6834 -0.1797 -2.0551
14576SOL    HW245170   3.983   1.525   3.793 -1.1200  2.4613  1.6943
14577SOL     OW45171   7.395   6.726   0.797  0.1604  0.0738 -0.9171
14577SOL    HW145172   7.381   6.670   0.720 -0.4004 -0.2421 -0.5887
14577SOL    HW245173   7.307   6.738   0.834  0.6564 -1.6663  1.0021
14578SOL     OW45174   3.918   3.959  11.290  0.1287 -0.2528 -0.4157
14578SOL    HW145175   3.862   4.018  11.341 -1.9908 -1.8031 -0.7725
14578SOL    HW245176   3.995   3.945  11.345 -0.6662  0.5415  0.9680
14579SOL     OW45177   4.874   5.613   2.790  0.2237  0.5407 -0.3064
14579SOL    HW145178   4.961   5.636   2.756  0.2605 -1.5196 -1.7777
14579SOL    HW245179   4.853   5.530   2.747 -3.2759  1.8394 -1.4203
14580SOL     OW45180   7.750   6.944   0.117 -0.4898  0.1119  0.4228
14580SOL    HW145181   7.721   6.939   0.208 -0.5023  1.1172  0.4860
14580SOL    HW245182   7.703   6.874   0.073 -1.2286  0.2364  0.9937
14581SOL     OW45183   2.194   6.156   4.746  0.3832  0.5519  0.1944
14581SOL    HW145184   2.106   6.187   4.767  0.0394 -0.1051 -0.2603
14581SOL    HW245185   2.195   6.065   4.774  0.9670  0.5987  0.3289
14582SOL     OW45186   6.925   7.203   9.205 -0.4904  0.7924 -0.2846
14582SOL    HW145187   6.849   7.171   9.156  0.1322 -0.0323 -0.7579
14582SOL    HW245188   6.918   7.162   9.291 -0.9272  1.2465 -0.1022
14583SOL     OW45189   4.956   2.889   7.542  0.6937  0.4159 -0.0572
14583SOL    HW145190   5.015   2.964   7.552  0.4193  0.7326 -0.7099
14583SOL    HW245191   4.907   2.908   7.462  1.0676 -0.7759 -0.5873
14584SOL     OW45192   6.903   1.252   2.180  0.3428 -0.2506 -0.4787
14584SOL    HW145193   6.902   1.347   2.174 -1.5404  0.1472  2.9802
14584SOL    HW245194   6.956   1.223   2.106  2.2414  3.5161 -0.8262
14585SOL     OW45195   7.572   6.887   8.253  0.3116  0.3430 -0.0277
14585SOL    HW145196   7.571   6.958   8.188 -0.1835 -1.1915 -1.8167
14585SOL    HW245197   7.662   6.885   8.286  0.4575  1.4730 -0.3302
14586SOL     OW45198   4.967   1.487   4.175 -0.0457 -0.3095 -0.2591
14586SOL    HW145199   4.979   1.550   4.103 -1.7941  1.3394  0.7979
14586SOL    HW245200   5.035   1.512   4.239 -0.3241  0.1023 -0.1194
14587SOL     OW45201   0.842   0.663   3.103 -0.2965  0.0954  0.0592
14587SOL    HW145202   0.787   0.717   3.047 -1.7831  0.6669  1.9661
14587SOL    HW245203   0.831   0.574   3.070 -1.7261  0.3203 -0.0953
14588SOL     OW45204   1.897   6.341   1.718 -0.2885 -1.2516  0.7366
14588SOL    HW145205   1.928   6.287   1.791 -1.1747 -1.6109  0.8523
14588SOL    HW245206   1.829   6.289   1.676 -0.8877 -0.3919  0.6108
14589SOL     OW45207   4.904   5.252   5.423 -0.4511  0.7132  0.0848
14589SOL    HW145208   4.939   5.279   5.508 -1.3865 -0.6602  0.9443
14589SOL    HW245209   4.829   5.310   5.409 -0.2767  0.9630  0.1703
14590SOL     OW45210   1.963   5.250  11.171 -0.6242  0.6344 -0.4000
14590SOL    HW145211   1.998   5.260  11.259 -0.3141  1.5009 -0.6106
14590SOL    HW245212   1.963   5.156  11.155 -1.3610  0.4165  0.7864
14591SOL     OW45213   2.637   1.446   3.684  0.1127  0.1053 -0.3904
14591SOL    HW145214   2.579   1.513   3.649  0.2049 -0.2256 -1.1910
14591SOL    HW245215   2.621   1.447   3.778 -0.8919  0.2997 -0.5572
14592SOL     OW45216   2.965   4.407   8.012 -0.2274 -0.4216  0.0590
14592SOL    HW145217   3.052   4.428   8.046  0.4492 -0.8463 -1.3557
14592SOL    HW245218   2.961   4.312   8.012 -0.6845 -0.4054  0.0757
14593SOL     OW45219   3.078   0.158   7.241 -0.2667  0.4001  0.2457
14593SOL    HW145220   3.160   0.129   7.201  1.1390  0.6052  2.7270
14593SOL    HW245221   3.047   0.229   7.184 -0.6814 -1.9613 -2.6884
14594SOL     OW45222   0.690   6.387   6.437 -0.4738  0.4433 -0.5068
14594SOL    HW145223   0.773   6.400   6.391  0.4646 -1.8315  0.3699
14594SOL    HW245224   0.625   6.381   6.367  0.6536 -1.1944 -1.5165
14595SOL     OW45225   4.698   2.309  11.100 -0.1749  0.1338 -0.1476
14595SOL    HW145226   4.710   2.380  11.036  2.0330 -0.7722 -0.8283
14595SOL    HW245227   4.631   2.343  11.160  1.1638  3.0381 -0.1078
14596SOL     OW45228   2.770   2.088   3.847  0.2819  0.1696  0.1933
14596SOL    HW145229   2.745   2.009   3.799 -2.0492  0.5955  0.6075
14596SOL    HW245230   2.837   2.058   3.908 -1.3720 -1.7981  1.1649
14597SOL     OW45231   7.823   5.181   9.184 -0.3796  0.2197  0.0905
14597SOL    HW145232   7.762   5.181   9.110  1.0857 -0.3975 -1.2076
14597SOL    HW245233   7.824   5.272   9.214  1.3509  1.3235 -2.8082
14598SOL     OW45234   2.834   4.945   8.622  0.2703  0.5275 -0.2617
14598SOL    HW145235   2.858   4.922   8.711 -1.6768 -0.7178  0.0100
14598SOL    HW245236   2.860   4.870   8.568  1.3679  1.2392 -0.7534
14599SOL     OW45237   2.039   7.387   3.736 -0.2256 -0.0999  0.3891
14599SOL    HW145238   1.978   7.324   3.773  0.5377 -2.4071 -1.9380
14599SOL    HW245239   1.993   7.423   3.660  0.2709  0.2432  0.2433
14600SOL     OW45240   0.448   3.882   7.345  0.0296 -0.3415 -0.4874
14600SOL    HW145241   0.510   3.834   7.290 -1.0490  0.3399 -2.3828
14600SOL    HW245242   0.369   3.828   7.345 -0.1238 -0.1188  0.0225
14601SOL     OW45243   4.273   0.971   1.419  0.6360  0.0745  0.1606
14601SOL    HW145244   4.181   0.950   1.437  0.3678  0.0151 -1.1280
14601SOL    HW245245   4.279   1.065   1.436 -0.9587  1.2081 -4.0823
14602SOL     OW45246   7.479   5.419   5.964  0.3073 -0.0352 -0.2098
14602SOL    HW145247   7.486   5.514   5.969  0.3004 -0.1086  2.9640
14602SOL    HW245248   7.567   5.387   5.985 -0.3593 -0.6950  1.7674
14603SOL     OW45249   2.569   4.084  11.855 -0.0061 -0.1785 -0.6383
14603SOL    HW145250   2.543   4.000  11.819 -3.2576  0.3551  0.1194
14603SOL    HW245251   2.588   4.138  11.779 -2.3990 -0.3515 -1.4400
14604SOL     OW45252   6.422   2.012   4.758 -0.8221  0.2081  0.1594
14604SOL    HW145253   6.417   2.102   4.725  1.4341  0.1188 -0.5897
14604SOL    HW245254   6.491   1.971   4.707 -2.4114 -2.2913 -0.1690
14605SOL     OW45255   1.548   0.361   6.058  0.9325 -0.0872 -0.1269
14605SOL    HW145256   1.512   0.317   5.981  1.5465  0.4600 -0.7385
14605SOL    HW245257   1.496   0.440   6.066  1.4819  0.3254 -0.5553
14606SOL     OW45258   2.471   6.082  10.282  0.3674  0.1395 -0.0267
14606SOL    HW145259   2.518   6.165  10.295 -0.0825  0.7914 -2.2265
14606SOL    HW245260   2.380   6.102  10.304  0.6439 -0.4658  1.8159
14607SOL     OW45261   3.274   2.254   3.757  0.2922  0.1890 -0.0753
14607SOL    HW145262   3.315   2.183   3.806 -0.3529 -0.0615  0.1161
14607SOL    HW245263   3.331   2.329   3.772  0.7408 -0.1765  0.0836
14608SOL     OW45264   2.054   5.555   3.586 -0.3050 -0.3489 -0.2261
14608SOL    HW145265   2.026   5.471   3.623  0.4226  0.1518  1.5287
14608SOL    HW245266   2.094   5.531   3.502 -2.9505 -1.4055 -1.3237
14609SOL     OW45267   7.476   4.426   0.727  0.0252  0.1444  0.2451
14609SOL    HW145268   7.386   4.436   0.696 -0.5138 -1.3508  1.2401
14609SOL    HW245269   7.468   4.396   0.818  1.5488  1.6181  0.9340
14610SOL     OW45270   0.462   1.803   2.005  0.2104 -0.3890  0.6283
14610SOL    HW145271   0.553   1.792   2.031  0.1057 -1.3174  0.6378
14610SOL    HW245272   0.425   1.863   2.070  1.4590  2.1906 -0.8632
14611SOL     OW45273   1.958   0.287   8.786  0.2931 -0.2271  0.0553
14611SOL    HW145274   2.018   0.305   8.714 -1.2671 -2.0502 -1.8164
14611SOL    HW245275   1.901   0.217   8.754 -0.4640 -1.1775  3.0897
14612SOL     OW45276   2.891   2.745   0.935 -0.4976 -0.0635 -0.1112
14612SOL    HW145277   2.978   2.784   0.928 -0.4189 -0.3633 -1.0520
14612SOL    HW245278   2.836   2.802   0.880 -1.1057  0.6654  1.2099
14613SOL     OW45279   5.086   3.374   1.008 -0.0760  0.9414  0.0650
14613SOL    HW145280   5.127   3.396   0.925 -0.1764  0.5719 -0.0847
14613SOL    HW245281   5.152   3.395   1.074  0.4325  0.1581 -0.1864
14614SOL     OW45282   0.109   6.529  10.538 -0.3422  0.1678 -0.3534
14614SOL    HW145283   0.050   6.583  10.485 -0.8030 -0.3570 -0.3886
14614SOL    HW245284   0.100   6.441  10.500 -0.2297 -0.0932  0.2211
14615SOL     OW45285   7.521   2.844   5.751  0.0364  0.4283  0.7922
14615SOL    HW145286   7.564   2.775   5.802 -0.9503  0.7087  2.0390
14615SOL    HW245287   7.433   2.811   5.734  0.6893 -0.1453 -1.7589
14616SOL     OW45288   3.483   1.596  10.533 -0.0161 -0.6046 -0.1302
14616SOL    HW145289   3.410   1.613  10.473 -0.1959  0.4552  0.3562
14616SOL    HW245290   3.545   1.545  10.482 -0.0218  0.5335 -1.3343
14617SOL     OW45291   4.244   2.131   6.751  0.5250 -0.2787 -0.0642
14617SOL    HW145292   4.153   2.129   6.781  0.1384  1.1418 -1.0303
14617SOL    HW245293   4.238   2.111   6.657  1.0964  0.6566 -0.3106
14618SOL     OW45294   3.210   5.150  10.211  0.4281  0.0433 -0.4094
14618SOL    HW145295   3.286   5.187  10.254  0.7986  0.1090 -1.1141
14618SOL    HW245296   3.236   5.139  10.119 -1.1114  2.1231 -1.1833
14619SOL     OW45297   7.859   2.618  10.149 -0.1964 -0.5947  0.1589
14619SOL    HW145298   7.777   2.592  10.108  0.9964 -1.6769 -1.6548
14619SOL    HW245299   7.899   2.536  10.176  0.4613 -0.1039  0.7121
14620SOL     OW45300   6.723   2.878  11.135 -0.3292 -0.0810  0.1586
14620SOL    HW145301   6.782   2.873  11.211  1.5726 -0.3847 -1.2450
14620SOL    HW245302   6.702   2.970  11.127 -1.9564 -0.2305  2.0176
14621SOL     OW45303   7.470   5.131   4.959  0.0120  0.6024  1.0062
14621SOL    HW145304   7.557   5.118   4.996  0.8164  2.8598  0.0784
14621SOL    HW245305   7.469   5.078   4.879  1.0091  1.4880  0.3817
14622SOL     OW45306   5.915   4.055   0.841  0.1100 -0.4141  0.3414
14622SOL    HW145307   5.824   4.036   0.863 -0.3012  1.4542  0.4317
14622SOL    HW245308   5.943   4.117   0.909  1.3886 -0.7934  0.1872
14623SOL     OW45309   7.972   0.647   1.220  0.0343 -0.3451 -0.1324
14623SOL    HW145310   8.015   0.581   1.166 -1.5160 -1.4079 -0.1092
14623SOL    HW245311   7.880   0.645   1.195 -0.0450  2.0324 -0.3253
14624SOL     OW45312   5.267   5.710   8.480  0.7803 -0.2955  0.3845
14624SOL    HW145313   5.335   5.778   8.478 -0.5204  1.0664 -1.2410
14624SOL    HW245314   5.272   5.674   8.568  0.3691  3.2368  2.0531
14625SOL     OW45315   5.489   0.914   3.136 -0.0573  0.0118  0.1627
14625SOL    HW145316   5.495   1.009   3.132  1.2156 -0.0965 -1.2693
14625SOL    HW245317   5.551   0.883   3.070 -1.8912 -1.7815 -0.8291
14626SOL     OW45318   6.755   6.595   0.778 -0.0331 -0.3801 -0.0188
14626SOL    HW145319   6.775   6.661   0.846 -1.2338  0.9346 -0.8681
14626SOL    HW245320   6.829   6.535   0.780  1.3078  1.1968  0.5789
14627SOL     OW45321   5.228   2.903   8.780  0.2908  0.1139 -0.2168
14627SOL    HW145322   5.137   2.875   8.778  0.3479 -0.3855  1.8517
14627SOL    HW245323   5.232   2.979   8.722 -1.2655 -0.2875 -0.8868
14628SOL     OW45324   7.534   5.090  10.394 -0.1403 -0.7675  0.7947
14628SOL    HW145325   7.620   5.048  10.389 -0.4694 -1.3720 -0.2718
14628SOL    HW245326   7.515   5.115  10.303 -1.8267 -2.2236  0.6821
14629SOL     OW45327   4.353   1.165  12.341  0.0643 -0.6415 -0.3334
14629SOL    HW145328   4.330   1.203  12.426  0.0650 -0.6778 -0.3170
14629SOL    HW245329   4.375   1.074  12.360  0.2316 -0.6038 -0.3469
14630SOL     OW45330   2.442   5.959  10.951 -0.2797 -0.6957 -0.2192
14630SOL    HW145331   2.447   5.877  11.000 -0.7264  0.3695  1.7177
14630SOL    HW245332   2.412   6.023  11.015  0.1073  1.0042 -1.6639
14631SOL     OW45333   5.123   3.278   6.862  0.4877  0.5653 -0.3730
14631SOL    HW145334   5.147   3.186   6.874 -0.0005  0.5926  0.9838
14631SOL    HW245335   5.192   3.326   6.907  0.5322  0.8502 -0.7455
14632SOL     OW45336   7.121   3.915   8.563  0.3264  0.8825  0.3101
14632SOL    HW145337   7.116   3.952   8.651  0.8273  2.0521 -0.1271
14632SOL    HW245338   7.214   3.897   8.550  0.4651  1.9914 -0.4512
14633SOL     OW45339   3.193   2.100  10.587 -0.0005 -0.0262 -0.1306
14633SOL    HW145340   3.193   2.030  10.522 -0.4684  0.9257 -1.2012
14633SOL    HW245341   3.104   2.136  10.583  0.3365  0.8621  0.1110
14634SOL     OW45342   4.303   3.066   4.384 -0.0446 -0.2733  0.2966
14634SOL    HW145343   4.320   3.036   4.294  0.4165 -0.8136  0.5604
14634SOL    HW245344   4.389   3.085   4.420 -0.3029  0.9414  0.2902
14635SOL     OW45345   7.677   7.584   0.026 -1.6630 -0.3558 -0.6651
14635SOL    HW145346   7.631   7.660   0.062  0.1733  0.5031 -0.0244
14635SOL    HW245347   7.713   7.616  -0.057  0.4634  0.0311  0.3475
14636SOL     OW45348   5.066   3.088   1.507 -0.2302 -0.1683  0.1799
14636SOL    HW145349   5.009   3.054   1.438 -0.2138  1.2486 -0.5652
14636SOL    HW245350   5.007   3.113   1.578 -0.5103  0.6942 -0.3364
14637SOL     OW45351   4.283   2.690   7.144  0.2841  0.4617  0.0573
14637SOL    HW145352   4.238   2.691   7.228  0.5788 -0.8030  0.2530
14637SOL    HW245353   4.214   2.699   7.079 -0.0996  0.1047  0.4068
14638SOL     OW45354   4.438   5.265   7.695 -0.2327  0.1291  0.0409
14638SOL    HW145355   4.512   5.216   7.657  0.3871  1.2948 -0.3053
14638SOL    HW245356   4.453   5.260   7.790  0.1028  0.0652 -0.0115
14639SOL     OW45357   3.405   2.246   3.498 -0.4563  0.2814  0.2050
14639SOL    HW145358   3.377   2.325   3.542 -0.6892  0.1543  0.2852
14639SOL    HW245359   3.499   2.240   3.516 -0.5643  0.1868  0.7486
14640SOL     OW45360   4.393   5.788  10.561  0.2650  0.0931 -0.2162
14640SOL    HW145361   4.459   5.725  10.533  0.6296  0.5321 -0.3428
14640SOL    HW245362   4.354   5.820  10.480 -0.5919 -0.6672 -0.1290
14641SOL     OW45363   3.298   6.900  10.900  0.7795 -0.5060 -0.1146
14641SOL    HW145364   3.287   6.960  10.826 -0.8981 -1.4330 -0.6631
14641SOL    HW245365   3.251   6.821  10.875  2.5197 -1.9162  0.7987
14642SOL     OW45366   7.207   0.114   7.263  0.1288 -0.3454 -0.0191
14642SOL    HW145367   7.200   0.198   7.219 -0.4363 -0.2704  0.2135
14642SOL    HW245368   7.116   0.085   7.275  0.1721  0.3526  2.4905
14643SOL     OW45369   0.245   6.175   4.921  0.0651  0.5314 -0.1933
14643SOL    HW145370   0.172   6.172   4.858  1.2218  0.0855 -1.5796
14643SOL    HW245371   0.204   6.160   5.006 -1.4427  0.1365 -0.9503
14644SOL     OW45372   2.882   2.487   9.469  0.3799  0.5320 -0.2102
14644SOL    HW145373   2.962   2.440   9.492  0.6430  1.0583 -0.0433
14644SOL    HW245374   2.812   2.435   9.507  0.8510  2.0278  2.9808
14645SOL     OW45375   4.762   2.246  11.856  0.1163  0.3192  0.3709
14645SOL    HW145376   4.742   2.210  11.770  0.3980  0.8729  0.0666
14645SOL    HW245377   4.708   2.196  11.916 -2.1714  1.7241 -0.4087
14646SOL     OW45378   7.107   5.975   7.569 -0.2589 -0.0669  0.0256
14646SOL    HW145379   7.050   5.905   7.536 -1.7233  1.0635  0.0620
14646SOL    HW245380   7.154   6.006   7.491 -0.5726 -0.2097 -0.2204
14647SOL     OW45381   5.512   7.701   9.665 -0.4773  0.4483  0.2234
14647SOL    HW145382   5.508   7.609   9.688 -1.8201  0.5475  0.5083
14647SOL    HW245383   5.483   7.747   9.745  0.0794  1.1173  0.0578
14648SOL     OW45384   5.908   1.762  11.916  0.3486 -0.1128 -0.1165
14648SOL    HW145385   5.867   1.720  11.840  0.6435 -0.4685 -0.0828
14648SOL    HW245386   6.001   1.738  11.909  1.3351  3.4964 -2.1714
14649SOL     OW45387   4.199   3.850   9.149 -0.0848 -0.0617  0.0152
14649SOL    HW145388   4.197   3.888   9.061  0.4310  3.2955  1.2917
14649SOL    HW245389   4.290   3.824   9.162 -0.5667 -2.5251 -1.1008
14650SOL     OW45390   6.837   7.969  10.432  0.0884  0.0159 -0.4414
14650SOL    HW145391   6.882   7.936  10.354  0.8019 -2.4461  0.9182
14650SOL    HW245392   6.761   7.912  10.443 -0.9408  1.3633 -0.1900
14651SOL     OW45393   5.437   1.685   0.716 -0.3944  0.1333 -0.2967
14651SOL    HW145394   5.481   1.715   0.795  0.4872  1.5863 -1.2959
14651SOL    HW245395   5.361   1.636   0.748 -0.4286  1.2423  1.4329
14652SOL     OW45396   5.920   7.848   6.789 -0.3051  0.5975  0.0649
14652SOL    HW145397   5.975   7.780   6.750  1.8040  2.8813 -1.2671
14652SOL    HW245398   5.831   7.814   6.783  0.6843 -2.3641  0.3102
14653SOL     OW45399   3.755   4.384   3.802 -0.2196  0.2496  0.0639
14653SOL    HW145400   3.764   4.431   3.719  0.1851 -1.7411 -1.0944
14653SOL    HW245401   3.805   4.436   3.864  0.3040  1.2842 -1.1677
14654SOL     OW45402   3.650   2.781   8.171 -0.1011  0.5747  0.0030
14654SOL    HW145403   3.710   2.707   8.165 -0.0729  0.6046 -0.0848
14654SOL    HW245404   3.657   2.810   8.262 -1.2745 -0.5044  0.4723
14655SOL     OW45405   7.046   0.438   8.540 -0.0067  0.3046  0.1365
14655SOL    HW145406   7.052   0.353   8.496 -1.4350  0.0237  0.4336
14655SOL    HW245407   7.100   0.428   8.618  0.1547 -0.2026 -0.0375
14656SOL     OW45408   3.450   0.093  10.180 -0.0191 -0.0683  0.3114
14656SOL    HW145409   3.379   0.053  10.130  0.3195 -0.6886  0.3146
14656SOL    HW245410   3.407   0.161  10.233 -0.4460  0.2723 -0.4549
14657SOL     OW45411   1.516   5.661   7.336  0.5457  0.0958 -0.2716
14657SOL    HW145412   1.543   5.704   7.417  0.0227  2.5728 -1.3255
14657SOL    HW245413   1.544   5.570   7.347  3.1033  0.9883  1.4576
14658SOL     OW45414   5.929   5.247   8.974  0.0982  0.3065 -0.2278
14658SOL    HW145415   5.914   5.161   8.936  0.8796 -0.2195  0.6294
14658SOL    HW245416   5.875   5.249   9.053 -0.8136  1.0542 -0.8427
14659SOL     OW45417   1.002   7.568   4.718 -0.6061  0.5156  0.1231
14659SOL    HW145418   1.026   7.619   4.641  0.5966 -1.9436 -1.2597
14659SOL    HW245419   1.062   7.494   4.718 -0.7729  0.2265  3.2992
14660SOL     OW45420   4.961   0.151   2.095 -0.6184 -0.1112 -0.2657
14660SOL    HW145421   5.033   0.089   2.102 -1.1696 -0.5908  1.9934
14660SOL    HW245422   4.882   0.098   2.106 -1.1275  0.8331  0.9282
14661SOL     OW45423   7.098   0.535   6.772  0.7656  0.4883 -0.0459
14661SOL    HW145424   7.093   0.589   6.694  0.8327 -0.9781 -1.0962
14661SOL    HW245425   7.173   0.477   6.757  0.6188  0.0065  0.9741
14662SOL     OW45426   0.857   0.992   3.193 -0.1942  0.4907  0.0265
14662SOL    HW145427   0.861   0.977   3.098 -0.7238 -0.0114  0.0732
14662SOL    HW245428   0.764   0.987   3.213 -0.0227 -0.2387  0.6909
14663SOL     OW45429   1.142   2.014   9.985 -0.2795  0.0612 -0.1535
14663SOL    HW145430   1.090   1.933   9.975  0.6282 -0.7908  1.6759
14663SOL    HW245431   1.226   1.985  10.019  0.5588  1.6758 -0.7420
14664SOL     OW45432   7.489   5.784   6.058  0.3488  0.1629  0.4040
14664SOL    HW145433   7.478   5.742   5.973  0.6326 -1.0715  0.9626
14664SOL    HW245434   7.400   5.804   6.087  0.2133 -0.0560  0.1373
14665SOL     OW45435   1.674   4.397   8.840 -0.1304  0.1075 -0.5809
14665SOL    HW145436   1.670   4.302   8.834  0.2737  0.1275 -1.3100
14665SOL    HW245437   1.584   4.426   8.828 -0.3786 -0.2164  0.4546
14666SOL     OW45438   7.400   1.333   0.697  0.3840 -0.0152 -0.2946
14666SOL    HW145439   7.360   1.414   0.665  0.8860  0.8944  1.2908
14666SOL    HW245440   7.493   1.355   0.708  0.8414 -1.2904 -1.3374
14667SOL     OW45441   0.490   7.465  11.331 -0.1734 -0.0246 -0.3514
14667SOL    HW145442   0.474   7.399  11.399 -0.5760 -0.3999 -0.8015
14667SOL    HW245443   0.548   7.529  11.373  1.4093 -1.3992 -0.3315
14668SOL     OW45444   5.131   0.186  11.040 -0.1045  0.4900  0.0900
14668SOL    HW145445   5.044   0.200  11.004  0.3088  1.2776 -0.6263
14668SOL    HW245446   5.118   0.124  11.112 -1.1280 -0.0541 -0.5516
14669SOL     OW45447   1.666   5.466   0.615  0.1009 -0.2140 -0.0235
14669SOL    HW145448   1.752   5.486   0.652 -0.5652  0.2982  1.3067
14669SOL    HW245449   1.632   5.395   0.670 -0.9827  0.6737  0.4926
14670SOL     OW45450   6.109   5.864  10.849 -0.2023 -0.2987  0.5478
14670SOL    HW145451   6.107   5.960  10.856 -0.9659 -0.2270 -0.4445
14670SOL    HW245452   6.170   5.837  10.918  0.5307  0.9400  0.4243
14671SOL     OW45453   5.776   1.392   2.346 -0.7341 -0.3530  0.1693
14671SOL    HW145454   5.750   1.318   2.292  0.7495  0.5689 -1.9793
14671SOL    HW245455   5.871   1.388   2.348 -0.4789  2.2047 -1.2897
14672SOL     OW45456   5.883   6.279   0.758  0.2714 -0.3655 -0.0164
14672SOL    HW145457   5.853   6.250   0.844 -1.2564 -0.0637 -0.4191
14672SOL    HW245458   5.803   6.294   0.709  0.9218  3.3893 -0.2236
14673SOL     OW45459   6.686   0.002   5.353 -0.4791 -0.5286 -0.2977
14673SOL    HW145460   6.737   0.043   5.423  0.5465  1.5866 -2.1546
14673SOL    HW245461   6.744  -0.063   5.315  1.1682  2.1029 -2.6256
14674SOL     OW45462   0.909   3.075   7.895  0.1927  0.6346  0.0385
14674SOL    HW145463   0.966   2.998   7.894 -0.3721  0.2059  0.3814
14674SOL    HW245464   0.861   3.069   7.978 -1.2196  0.3457 -0.7617
14675SOL     OW45465   1.862   6.513  11.657  0.1288 -0.1351  0.0873
14675SOL    HW145466   1.774   6.533  11.627  0.7005  0.9240 -0.9558
14675SOL    HW245467   1.891   6.440  11.601 -0.4159 -1.1582  1.0892
14676SOL     OW45468   6.109   4.107   9.983 -0.2595 -0.7894 -0.2970
14676SOL    HW145469   6.065   4.158   9.914  1.1141  1.2192  0.2076
14676SOL    HW245470   6.200   4.102   9.954  0.3783  0.1998  1.3485
14677SOL     OW45471   5.104   2.512   4.207  0.6478  0.0344  0.4930
14677SOL    HW145472   5.099   2.480   4.117 -0.3925 -1.5400  1.0605
14677SOL    HW245473   5.082   2.436   4.260 -0.5498  1.3679  2.0012
14678SOL     OW45474   7.434   2.311  11.022 -0.0637 -0.3828  0.0330
14678SOL    HW145475   7.412   2.282  11.111 -0.0775 -2.1207 -0.5083
14678SOL    HW245476   7.349   2.325  10.981 -0.0763  1.6544  0.6161
14679SOL     OW45477   4.461   0.638   9.783 -0.1216  0.4483 -0.4541
14679SOL    HW145478   4.548   0.669   9.758  0.2410  1.6625  1.9724
14679SOL    HW245479   4.427   0.707   9.839 -0.5674 -2.1288  2.7592
14680SOL     OW45480   2.532   1.699   5.340  0.3260 -0.6320  0.1451
14680SOL    HW145481   2.465   1.766   5.330 -1.6693 -2.4590  0.4956
14680SOL    HW245482   2.560   1.679   5.251  1.6059  1.2151  0.0799
14681SOL     OW45483   1.630   5.887   6.925  0.3279 -0.0684 -0.3229
14681SOL    HW145484   1.673   5.805   6.899  0.3907  0.1335 -0.8659
14681SOL    HW245485   1.545   5.859   6.959 -0.1873 -0.2849 -1.7002
14682SOL     OW45486   5.257   7.675   2.369  0.0452  0.3229 -0.5591
14682SOL    HW145487   5.318   7.647   2.437  0.0176  0.7255 -0.3674
14682SOL    HW245488   5.262   7.606   2.302 -0.4918 -0.4783  0.1959
14683SOL     OW45489   6.184   0.205   5.023 -0.6538 -0.0047 -0.4178
14683SOL    HW145490   6.160   0.283   4.972  1.7961  0.1275 -1.5440
14683SOL    HW245491   6.256   0.235   5.078 -1.0037 -1.0141  0.6138
14684SOL     OW45492   7.401   7.193   2.360 -0.0933 -0.0853 -0.3908
14684SOL    HW145493   7.327   7.140   2.387  0.8061 -1.3343 -0.2902
14684SOL    HW245494   7.444   7.217   2.442 -1.2214  1.9686 -0.3330
14685SOL     OW45495   7.959   1.363   6.241 -0.3152 -0.1178 -0.2769
14685SOL    HW145496   7.993   1.450   6.217 -1.8345  0.3941 -0.6416
14685SOL    HW245497   8.038   1.313   6.264  0.6750  1.0732 -0.9273
14686SOL     OW45498   7.704   5.939   7.158  0.1771  0.3623 -0.1496
14686SOL    HW145499   7.773   5.907   7.216  0.0542  1.3492  0.5692
14686SOL    HW245500   7.654   6.001   7.212 -1.6183 -0.7251 -0.4648
14687SOL     OW45501   1.653   0.754   3.531  0.2775 -0.6047 -0.4096
14687SOL    HW145502   1.746   0.777   3.524 -0.1962  1.8586  0.6296
14687SOL    HW245503   1.641   0.687   3.463  2.1490  1.1624 -2.6689
14688SOL     OW45504   6.658   2.990  11.926 -0.0690  0.2468 -0.0352
14688SOL    HW145505   6.589   2.961  11.865 -1.1765  3.2289 -0.3873
14688SOL    HW245506   6.620   2.977  12.013 -0.9346  1.3667 -0.2145
14689SOL     OW45507   5.800   7.197   1.691  0.6472  0.5905 -0.2372
14689SOL    HW145508   5.706   7.215   1.685  0.6829  0.4673 -1.4954
14689SOL    HW245509   5.829   7.245   1.768 -0.8128 -1.0042  1.3926
14690SOL     OW45510   3.035   3.529   0.926  0.2407  0.2260 -0.0216
14690SOL    HW145511   2.941   3.515   0.915  0.5581 -1.4251 -0.9748
14690SOL    HW245512   3.073   3.441   0.930  1.5678  0.8163  2.4966
14691SOL     OW45513   6.551   2.600   1.144 -0.9779 -0.1172 -0.4357
14691SOL    HW145514   6.584   2.647   1.067  1.7005  0.5679  1.0344
14691SOL    HW245515   6.461   2.632   1.154 -0.1071  2.8287 -0.9837
14692SOL     OW45516   1.083   7.415   9.416  0.0134 -0.1094 -0.0729
14692SOL    HW145517   1.173   7.424   9.383 -0.4371  1.8869 -0.9186
14692SOL    HW245518   1.038   7.363   9.350  0.4084 -0.6256  0.0627
14693SOL     OW45519   2.381   7.016   8.321 -0.6628 -0.2031  0.8545
14693SOL    HW145520   2.434   6.937   8.324 -1.3422 -0.6659  0.8703
14693SOL    HW245521   2.293   6.987   8.343 -1.3020  0.2327 -0.9402
14694SOL     OW45522   6.411   1.652   4.627 -0.1143  0.1947  0.3613
14694SOL    HW145523   6.379   1.578   4.576  0.2585 -0.2513  0.7584
14694SOL    HW245524   6.405   1.621   4.718  1.9183 -0.1185  0.4345
14695SOL     OW45525   2.368   4.454   1.451  0.4518 -0.4824  0.0305
14695SOL    HW145526   2.295   4.516   1.455  1.3120  0.5544 -0.0754
14695SOL    HW245527   2.377   4.423   1.541 -0.5502 -1.1538 -0.0768
14696SOL     OW45528   4.992   7.376   2.424  0.2164 -0.4395  0.2827
14696SOL    HW145529   5.025   7.338   2.342  0.4260  0.8922 -0.2707
14696SOL    HW245530   4.897   7.374   2.414  0.1569 -1.9385  0.8042
14697SOL     OW45531   7.464   7.382   1.474  0.2792  0.4670  0.5750
14697SOL    HW145532   7.392   7.366   1.412 -0.0090 -1.2884  1.2996
14697SOL    HW245533   7.483   7.475   1.464 -0.9677  0.6244 -0.8458
14698SOL     OW45534   1.827   0.023   8.984  0.2739  0.0351  0.4640
14698SOL    HW145535   1.791  -0.064   8.968  1.2224 -0.6382  1.8515
14698SOL    HW245536   1.871   0.046   8.902 -2.0982  0.3470 -0.8412
14699SOL     OW45537   4.229   0.503   8.264  0.5589 -0.2286  0.1604
14699SOL    HW145538   4.153   0.474   8.214  0.7929  0.0916 -0.3856
14699SOL    HW245539   4.218   0.462   8.350  0.6993 -1.6692 -0.4665
14700SOL     OW45540   5.494   5.514   5.727  0.1390  0.0903 -0.0130
14700SOL    HW145541   5.489   5.540   5.819  0.3861  1.7329 -0.4352
14700SOL    HW245542   5.566   5.452   5.723  0.2444  0.1498  0.8664
14701SOL     OW45543   4.334   1.567   3.483  0.4957  0.5160 -0.2580
14701SOL    HW145544   4.358   1.646   3.532 -0.6302  0.5976  0.2013
14701SOL    HW245545   4.251   1.540   3.523  0.2463 -0.1886 -1.2443
14702SOL     OW45546   1.165   7.493   6.626  0.3602  0.5948  0.5142
14702SOL    HW145547   1.143   7.506   6.719  0.1385 -3.3638  1.2051
14702SOL    HW245548   1.257   7.466   6.627  0.3826  0.6243 -0.4268
14703SOL     OW45549   6.769   2.340   9.898 -0.8314 -0.3473 -0.0386
14703SOL    HW145550   6.840   2.396   9.931 -1.1857 -0.6819  1.3499
14703SOL    HW245551   6.698   2.352   9.961 -2.0827  0.0787 -1.4615
14704SOL     OW45552   0.703   5.277   8.317  0.1853  0.3340 -0.3587
14704SOL    HW145553   0.669   5.198   8.359 -1.7121  0.9720 -0.6266
14704SOL    HW245554   0.645   5.292   8.242  1.1945  1.3627 -0.9770
14705SOL     OW45555   4.294   1.136   0.129 -0.5534  0.4962  0.1448
14705SOL    HW145556   4.277   1.052   0.170  0.6018  0.9918  1.7370
14705SOL    HW245557   4.272   1.200   0.197 -0.5489  1.4492 -0.7304
14706SOL     OW45558   2.482   7.614   5.658 -0.4224  0.7156  0.5493
14706SOL    HW145559   2.553   7.553   5.677 -1.3348 -0.0089  1.7700
14706SOL    HW245560   2.498   7.641   5.567  0.4963 -0.6535  0.2646
14707SOL     OW45561   4.786   4.443   4.571  0.0183 -0.3308  0.4237
14707SOL    HW145562   4.735   4.486   4.640 -0.6951  1.3980 -1.0989
14707SOL    HW245563   4.856   4.505   4.551  0.9381 -1.3450  0.3813
14708SOL     OW45564   5.437   2.267  10.355  0.3423 -0.7278 -0.1387
14708SOL    HW145565   5.517   2.311  10.328  1.4416 -1.4728  1.6699
14708SOL    HW245566   5.370   2.336  10.356  1.2912  0.2141 -0.3471
14709SOL     OW45567   2.410   6.111   4.030  1.1488  0.6633 -0.1174
14709SOL    HW145568   2.413   6.127   3.935 -1.7540 -0.7132 -0.5536
14709SOL    HW245569   2.320   6.131   4.054  1.0157 -1.8197  1.7795
14710SOL     OW45570   5.022   5.491   9.916  0.0682 -0.3469  0.1283
14710SOL    HW145571   5.106   5.526   9.888  0.9007 -1.3482  1.2406
14710SOL    HW245572   5.033   5.396   9.912 -0.9470 -0.4939  0.4608
14711SOL     OW45573   4.866   0.543   0.537  0.0788  0.2265 -0.0279
14711SOL    HW145574   4.911   0.628   0.539  0.8486 -0.1463  2.1494
14711SOL    HW245575   4.775   0.564   0.517  0.5659  1.3699 -1.1740
14712SOL     OW45576   1.578   1.818   4.365 -0.2093 -0.4847 -0.1303
14712SOL    HW145577   1.576   1.761   4.289 -1.0455 -0.1161 -0.4049
14712SOL    HW245578   1.498   1.796   4.413 -0.4192  0.2677 -0.1167
14713SOL     OW45579   7.466   0.066  10.594  0.3283 -0.2608 -0.5553
14713SOL    HW145580   7.490  -0.021  10.626  2.2921  0.5341  0.3325
14713SOL    HW245581   7.372   0.061  10.577  0.2088 -2.2547  0.4081
14714SOL     OW45582   3.895   0.363  11.937 -0.9568 -0.2251 -0.1290
14714SOL    HW145583   3.870   0.279  11.974  1.2194 -0.5792  0.7113
14714SOL    HW245584   3.821   0.389  11.882 -2.2156 -2.0414  0.6379
14715SOL     OW45585   0.049   5.213   6.138 -0.0859  0.5156 -0.0272
14715SOL    HW145586   0.137   5.245   6.156 -0.8101  1.5993  1.7881
14715SOL    HW245587  -0.003   5.292   6.122 -0.3185 -0.1635 -3.6357
14716SOL     OW45588   4.371   3.529   4.092 -0.3953  0.7352  0.1964
14716SOL    HW145589   4.383   3.623   4.079 -1.0800  0.6540 -1.2353
14716SOL    HW245590   4.315   3.502   4.019 -0.0931 -0.8102  0.5083
14717SOL     OW45591   7.982   1.424   5.560 -0.1248 -0.1409 -0.2604
14717SOL    HW145592   7.894   1.434   5.596 -0.5363  1.2254 -1.5748
14717SOL    HW245593   7.992   1.329   5.549 -0.6404 -0.4748  1.7175
14718SOL     OW45594   7.785   2.907  12.341 -0.0065  0.5818  0.0746
14718SOL    HW145595   7.807   2.891  12.433 -1.8273  0.0057  0.4544
14718SOL    HW245596   7.727   2.835  12.317 -2.3627  2.5174 -0.4717
14719SOL     OW45597   0.383   6.347   5.977  0.2007 -0.1645  0.0942
14719SOL    HW145598   0.300   6.356   5.930  1.1620  0.2145 -1.5958
14719SOL    HW245599   0.441   6.304   5.915  1.6077  0.5878  0.8390
14720SOL     OW45600   7.436   1.841  11.158  0.1019  0.1830  0.2618
14720SOL    HW145601   7.503   1.803  11.216  0.8054  1.4087  0.2903
14720SOL    HW245602   7.395   1.765  11.116  1.9570 -0.5946 -0.2465
14721SOL     OW45603   0.287   5.432   6.119  0.0360 -0.3509  0.1233
14721SOL    HW145604   0.347   5.375   6.071  0.8416  0.3911  0.2209
14721SOL    HW245605   0.343   5.477   6.182 -0.2528  1.7850 -1.0717
14722SOL     OW45606   1.585   5.194   2.684  0.3878 -0.0287 -0.8673
14722SOL    HW145607   1.643   5.180   2.759  1.0051  0.2739 -1.2721
14722SOL    HW245608   1.524   5.261   2.713 -0.2352 -0.8708 -0.1831
14723SOL     OW45609   5.250   5.173   6.571 -0.2865 -0.0723 -0.1801
14723SOL    HW145610   5.173   5.214   6.610 -1.1598 -0.6902 -1.1829
14723SOL    HW245611   5.226   5.081   6.562  1.6328 -0.8918  2.0301
14724SOL     OW45612   2.899   7.352   1.219  0.0258 -0.1524  0.3573
14724SOL    HW145613   2.832   7.395   1.273  0.1484  1.6340 -0.8276
14724SOL    HW245614   2.857   7.340   1.134  1.5239  2.2669 -0.8507
14725SOL     OW45615   2.835   5.067  12.430  0.5759  0.7595  0.4372
14725SOL    HW145616   2.796   5.055  12.343  0.9519 -1.9893  0.5791
14725SOL    HW245617   2.920   5.108  12.413  0.3598  0.8736 -0.4217
14726SOL     OW45618   1.801   0.956   8.802 -0.0347 -0.7446  0.3857
14726SOL    HW145619   1.857   0.901   8.747  1.5810  0.9118  0.3163
14726SOL    HW245620   1.752   1.010   8.741 -0.0650 -0.6193  0.5192
14727SOL     OW45621   6.414   2.714   3.282  0.2083 -0.2383  0.3239
14727SOL    HW145622   6.321   2.731   3.301  0.3389 -1.2001  2.0449
14727SOL    HW245623   6.459   2.794   3.311 -0.1698  0.8783 -1.9504
14728SOL     OW45624   1.775   1.961   9.181 -0.6116  0.7832 -0.9045
14728SOL    HW145625   1.723   1.968   9.101 -0.4033 -1.6710 -1.3354
14728SOL    HW245626   1.760   1.871   9.211  0.1026  1.3240  1.2907
14729SOL     OW45627   3.738   3.843   0.591  0.1827 -0.1864  0.9698
14729SOL    HW145628   3.766   3.764   0.545 -2.0969 -0.1816 -0.5853
14729SOL    HW245629   3.791   3.845   0.670  2.1415 -1.8341 -0.2162
14730SOL     OW45630   1.311   4.637   0.569  0.1223 -0.0131 -0.2558
14730SOL    HW145631   1.258   4.697   0.621  1.0198 -0.2547  0.9747
14730SOL    HW245632   1.283   4.550   0.596 -0.4177 -0.1640 -1.2528
14731SOL     OW45633   4.704   1.115  12.226 -0.6222 -0.2036 -0.2022
14731SOL    HW145634   4.687   1.042  12.284  0.1248  1.1359  1.8172
14731SOL    HW245635   4.758   1.078  12.156  1.5238 -1.2250  1.8580
14732SOL     OW45636   0.169   3.677   8.675  0.0736  0.2790  0.4734
14732SOL    HW145637   0.169   3.632   8.759 -1.7246 -0.9574 -0.1167
14732SOL    HW245638   0.244   3.640   8.628 -0.7720 -1.4361  0.3823
14733SOL     OW45639   7.678   7.531  10.689 -0.2874  0.0695  0.0282
14733SOL    HW145640   7.712   7.523  10.600  0.0525 -1.8074  0.2988
14733SOL    HW245641   7.748   7.499  10.746 -1.0718 -0.2316  0.8618
14734SOL     OW45642   6.561   6.191   7.651 -0.0863  0.4544  0.2600
14734SOL    HW145643   6.615   6.112   7.644  0.6013  0.8900  0.6109
14734SOL    HW245644   6.590   6.233   7.732  1.2601  2.3446 -1.1283
14735SOL     OW45645   4.460   0.549   3.262 -0.1767 -0.3055 -0.0697
14735SOL    HW145646   4.430   0.526   3.350 -1.2425 -1.1277 -0.6234
14735SOL    HW245647   4.479   0.464   3.221 -1.8170 -0.1021 -1.3401
14736SOL     OW45648   0.239   1.434   3.236 -0.0447  0.2923  0.2068
14736SOL    HW145649   0.317   1.378   3.238 -0.6995 -0.7379 -1.1170
14736SOL    HW245650   0.272   1.523   3.236  1.1771 -0.1314 -0.9055
14737SOL     OW45651   1.572   0.859   1.575 -0.4488  0.0302 -0.2411
14737SOL    HW145652   1.612   0.904   1.649 -0.8362 -0.4930  0.3022
14737SOL    HW245653   1.640   0.800   1.543 -0.6917 -0.6701  0.5158
14738SOL     OW45654   3.996   2.646   2.832  0.4562  0.1860  0.2986
14738SOL    HW145655   4.028   2.621   2.919  1.3720 -0.7508 -0.2821
14738SOL    HW245656   4.013   2.740   2.826 -3.6717  1.3630  2.8067
14739SOL     OW45657   6.203   3.302  10.567 -1.0933  0.2537 -0.4172
14739SOL    HW145658   6.288   3.267  10.541 -0.2197  2.2657 -0.4634
14739SOL    HW245659   6.146   3.226  10.573  0.9294 -1.2676  0.5064
14740SOL     OW45660   0.176   3.730  11.197 -0.4773  0.1738  0.2964
14740SOL    HW145661   0.198   3.810  11.149  0.2560 -0.5355 -0.5950
14740SOL    HW245662   0.143   3.761  11.281 -2.5030  1.4751 -0.9093
14741SOL     OW45663   4.014   3.687   4.607 -0.2898 -0.9603 -0.1458
14741SOL    HW145664   4.108   3.707   4.605 -0.5482  1.1844  2.6526
14741SOL    HW245665   3.997   3.664   4.698 -2.7791  0.7052 -0.1006
14742SOL     OW45666   4.679   1.982  10.667  0.2486 -0.2825 -0.4566
14742SOL    HW145667   4.745   1.934  10.617  0.3332 -0.3550 -0.2766
14742SOL    HW245668   4.605   1.923  10.673  0.2815 -0.3184 -0.3983
14743SOL     OW45669   6.269   7.000   5.968 -0.3754 -0.4189  0.4990
14743SOL    HW145670   6.363   7.005   5.986 -0.7369 -0.7007  2.6650
14743SOL    HW245671   6.236   7.088   5.985 -0.6947 -0.6184  0.9180
14744SOL     OW45672   1.593   4.781   7.572  0.6262  0.6993  0.2210
14744SOL    HW145673   1.666   4.783   7.634  0.0865 -0.2854  0.9234
14744SOL    HW245674   1.517   4.760   7.626  0.1274 -0.1212 -0.7707
14745SOL     OW45675   5.943   3.272   5.748 -0.6856  0.0451  0.0280
14745SOL    HW145676   5.930   3.231   5.663  0.7408 -0.3722 -0.0159
14745SOL    HW245677   5.981   3.203   5.803  1.5608  1.1710  0.0072
14746SOL     OW45678   5.581   7.798   1.005  0.1890 -0.4173  0.1143
14746SOL    HW145679   5.599   7.889   1.030 -3.1551  0.2330  0.6182
14746SOL    HW245680   5.600   7.747   1.083  0.3407  0.0987  0.4198
14747SOL     OW45681   4.726   1.684  11.411  0.3754 -0.1816  0.0677
14747SOL    HW145682   4.752   1.592  11.413 -0.7893 -0.5731 -0.8572
14747SOL    HW245683   4.639   1.685  11.451 -0.0530  0.3391 -0.8421
14748SOL     OW45684   4.951   3.813   1.228 -0.0406 -0.3172 -0.1227
14748SOL    HW145685   4.926   3.761   1.304  1.1552 -0.6571  0.0638
14748SOL    HW245686   4.967   3.749   1.159 -2.3101  0.0544 -1.0646
14749SOL     OW45687   7.944   1.944   7.288 -0.5403  0.2680  0.5444
14749SOL    HW145688   7.873   1.990   7.333 -0.9471  1.7527 -1.4728
14749SOL    HW245689   8.000   2.014   7.255  0.3935 -0.8026 -0.2158
14750SOL     OW45690   5.644   2.603   2.492 -0.2640  0.0780  0.3292
14750SOL    HW145691   5.635   2.510   2.512  0.7308  0.3290  2.2405
14750SOL    HW245692   5.568   2.644   2.534 -0.5875  0.1565 -0.3263
14751SOL     OW45693   2.984   4.389   9.221 -0.0429  0.5527  0.6468
14751SOL    HW145694   2.980   4.329   9.296 -0.3321 -0.5135 -0.1986
14751SOL    HW245695   3.078   4.400   9.204  0.0051 -0.2935  0.3252
14752SOL     OW45696   3.055   4.873   6.727 -0.1175  0.5648 -0.1582
14752SOL    HW145697   3.032   4.780   6.732  1.4277  0.2156  1.6296
14752SOL    HW245698   2.998   4.908   6.659 -1.0465 -1.5948 -0.5823
14753SOL     OW45699   2.265   0.022  10.673 -0.8878  0.0890  0.0528
14753SOL    HW145700   2.359   0.035  10.669 -1.0712  1.2859 -1.0735
14753SOL    HW245701   2.253  -0.072  10.663  0.2025 -0.1348  0.7301
14754SOL     OW45702   5.229   5.071   0.500 -0.7252  0.5031 -0.3313
14754SOL    HW145703   5.284   5.004   0.460 -0.7889  0.5720 -0.5405
14754SOL    HW245704   5.217   5.043   0.590  3.0578  2.5213  1.0047
14755SOL     OW45705   7.956   7.881   7.592 -0.9005 -0.5103 -0.4469
14755SOL    HW145706   7.885   7.844   7.644 -2.5405  1.9398 -0.7960
14755SOL    HW245707   7.963   7.823   7.516 -1.9342 -1.2537  0.0103
14756SOL     OW45708   6.922   0.522   1.253  0.5774  0.7739  0.8444
14756SOL    HW145709   6.974   0.492   1.327 -0.4381 -1.1654  0.8332
14756SOL    HW245710   6.847   0.462   1.250 -0.2095  1.7572 -0.8175
14757SOL     OW45711   4.120   3.412  10.811  0.2421  0.0442 -0.8115
14757SOL    HW145712   4.122   3.462  10.893  0.5737  1.1217 -1.4555
14757SOL    HW245713   4.192   3.349  10.819 -1.2021 -1.5414  0.7117
14758SOL     OW45714   1.229   6.637   3.405  0.2477  0.1507 -0.1270
14758SOL    HW145715   1.295   6.700   3.433 -1.8959  2.5063 -0.0418
14758SOL    HW245716   1.209   6.661   3.315  0.0227 -0.9909 -0.3903
14759SOL     OW45717   3.109   5.895   3.990 -0.6287  0.6432  0.2213
14759SOL    HW145718   3.176   5.888   4.057 -0.4790 -0.0501  0.0095
14759SOL    HW245719   3.152   5.937   3.916 -0.0690 -0.9158 -0.3629
14760SOL     OW45720   4.593   6.059   5.404 -0.4410 -0.1400 -0.2418
14760SOL    HW145721   4.549   5.980   5.434  1.1642 -0.3207  1.8246
14760SOL    HW245722   4.677   6.028   5.368 -0.0293  0.5580  0.0865
14761SOL     OW45723   4.001   3.952   1.309  0.6858 -0.2040 -0.3958
14761SOL    HW145724   3.915   3.962   1.269  0.3635  0.1737  0.3635
14761SOL    HW245725   3.983   3.944   1.403  1.5495  1.8551  0.0092
14762SOL     OW45726   3.345   1.948  11.996  0.6911 -0.4181 -0.0581
14762SOL    HW145727   3.258   1.976  11.969  1.2761  0.3481 -1.2558
14762SOL    HW245728   3.388   2.027  12.027  1.3268 -0.5513 -0.5608
14763SOL     OW45729   1.608   1.057   9.332 -0.1660 -0.1483 -0.5113
14763SOL    HW145730   1.538   1.085   9.273  2.1324  0.8727 -2.9519
14763SOL    HW245731   1.636   0.972   9.297 -0.0396 -0.4594  0.3297
14764SOL     OW45732   2.514   2.580   0.605 -0.8929  0.0962 -1.1352
14764SOL    HW145733   2.610   2.579   0.600 -0.8431  0.7388 -0.4116
14764SOL    HW245734   2.490   2.669   0.579 -1.1554  0.6352  0.8448
14765SOL     OW45735   3.345   6.372   5.309  0.1827  0.4109  0.6655
14765SOL    HW145736   3.404   6.445   5.325  0.2218  0.5171  0.0572
14765SOL    HW245737   3.402   6.300   5.282  0.0361  0.5515 -0.0490
14766SOL     OW45738   7.222   6.850   4.081 -0.6604  0.3531  0.1969
14766SOL    HW145739   7.151   6.892   4.128 -1.2450 -1.3022  0.8788
14766SOL    HW245740   7.222   6.759   4.112 -0.0057 -0.4025 -1.7742
14767SOL     OW45741   2.220   2.177   4.930 -0.1427  0.2982  0.4248
14767SOL    HW145742   2.287   2.219   4.985 -1.1095  0.2977  1.6517
14767SOL    HW245743   2.171   2.250   4.892  0.2618  0.2965 -0.1012
14768SOL     OW45744   7.459   0.751   8.749  0.5492 -0.0651 -0.1279
14768SOL    HW145745   7.543   0.795   8.754  0.0384  1.0133 -0.8543
14768SOL    HW245746   7.419   0.782   8.668 -1.3612  0.9239  1.1048
14769SOL     OW45747   7.841   2.060   4.798 -0.0748  0.0187  0.4126
14769SOL    HW145748   7.842   2.025   4.709 -0.1372  0.0055  0.4173
14769SOL    HW245749   7.788   2.139   4.792 -0.6848 -0.3678  0.5817
14770SOL     OW45750   7.611   0.084   9.878 -0.0654  0.9290 -0.1017
14770SOL    HW145751   7.557   0.011   9.850  1.2444  0.0892 -0.5480
14770SOL    HW245752   7.590   0.155   9.818  0.5421  0.0754 -1.3723
14771SOL     OW45753   3.933   4.609   1.478 -0.1350  0.2761 -0.0236
14771SOL    HW145754   3.949   4.692   1.523  1.2396 -0.9749  1.9566
14771SOL    HW245755   3.873   4.562   1.535  0.2569 -0.6601 -0.3581
14772SOL     OW45756   0.357   7.567  11.971  0.1098 -0.1630 -0.1963
14772SOL    HW145757   0.300   7.560  12.048 -0.0344 -2.8470 -0.4410
14772SOL    HW245758   0.297   7.586  11.898 -0.0259  0.2794  0.0275
14773SOL     OW45759   2.924   0.482  12.411  0.8716  0.5602 -0.5753
14773SOL    HW145760   2.860   0.548  12.437  0.0039 -0.0856 -1.0301
14773SOL    HW245761   2.969   0.521  12.335  0.1096  0.4811 -1.0740
14774SOL     OW45762   3.464   4.698   4.778  0.2195 -0.5910  0.0496
14774SOL    HW145763   3.386   4.666   4.734  1.0533 -1.3985 -0.9115
14774SOL    HW245764   3.513   4.743   4.708  0.4321  0.2473  0.7243
14775SOL     OW45765   5.464   4.528   6.565  0.1704  0.5485 -0.0186
14775SOL    HW145766   5.397   4.510   6.499 -1.5175 -1.6682  2.1091
14775SOL    HW245767   5.499   4.442   6.587  1.1449  1.2949  1.4839
14776SOL     OW45768   3.722   0.096   0.149  0.0002  0.1799  0.1793
14776SOL    HW145769   3.660   0.026   0.127 -0.7641  0.1684  2.2040
14776SOL    HW245770   3.718   0.104   0.244  1.7550  1.4631  0.2120
14777SOL     OW45771   6.524   4.521   8.026 -0.1882 -0.5388  0.3918
14777SOL    HW145772   6.595   4.511   8.090  0.2693 -2.9258 -0.3996
14777SOL    HW245773   6.551   4.466   7.952 -1.1169  1.4500 -1.5247
14778SOL     OW45774   5.137   0.519   8.926  0.3446  0.4002 -0.3708
14778SOL    HW145775   5.208   0.478   8.976  0.4045  0.0707 -0.7223
14778SOL    HW245776   5.173   0.603   8.899 -0.3526  1.4310  1.7523
14779SOL     OW45777   7.456   3.719   3.531 -0.5250 -0.1571 -0.1802
14779SOL    HW145778   7.462   3.625   3.543 -1.4128 -0.3532 -1.0766
14779SOL    HW245779   7.432   3.753   3.617  0.7786 -0.6295  0.3855
14780SOL     OW45780   7.385   3.153   3.080  0.3247  0.0642 -0.0940
14780SOL    HW145781   7.302   3.107   3.096 -0.3196  1.0823 -0.3556
14780SOL    HW245782   7.429   3.100   3.013 -0.0953 -0.5124  0.0775
14781SOL     OW45783   0.211   4.223   4.340  0.0584 -0.2546  0.1447
14781SOL    HW145784   0.265   4.146   4.361  1.5531  0.7230  0.0071
14781SOL    HW245785   0.191   4.214   4.247  0.4872 -0.3277  0.0574
14782SOL     OW45786   4.811   6.645   6.787 -0.2439 -0.0317 -0.6081
14782SOL    HW145787   4.904   6.637   6.762 -0.4667 -2.2129 -0.9583
14782SOL    HW245788   4.781   6.725   6.743  1.2062  0.1239 -1.3890
14783SOL     OW45789   2.508   3.537   9.620  0.6485  0.3332  0.4253
14783SOL    HW145790   2.573   3.507   9.683  0.8958  1.0114  0.4986
14783SOL    HW245791   2.551   3.526   9.535  0.4898 -0.1427  0.4057
14784SOL     OW45792   6.213   6.083   3.698  0.5588 -0.4479 -0.0276
14784SOL    HW145793   6.188   6.158   3.644  0.6176 -0.8454 -0.6146
14784SOL    HW245794   6.135   6.028   3.702  0.5869 -0.4735  0.2068
14785SOL     OW45795   5.643   2.136   3.169  0.1914 -0.1606  1.1028
14785SOL    HW145796   5.554   2.105   3.150  0.4510 -0.1286 -0.2800
14785SOL    HW245797   5.665   2.095   3.252  0.3914 -3.5433 -0.4403
14786SOL     OW45798   4.439   4.084  11.840  0.2011  0.9266 -0.0983
14786SOL    HW145799   4.473   4.075  11.929  1.1524 -0.1617 -0.5422
14786SOL    HW245800   4.459   4.000  11.798  0.2742  1.6202 -1.5004
14787SOL     OW45801   7.065   1.657   5.719  0.7916 -0.1669 -0.4339
14787SOL    HW145802   7.075   1.657   5.814  1.3113  0.5977 -0.4700
14787SOL    HW245803   6.988   1.604   5.702  1.2851 -1.1649  0.3424
14788SOL     OW45804   6.498   2.715   8.086 -0.3199  0.7369  1.0106
14788SOL    HW145805   6.524   2.802   8.055  2.3326  0.5586  2.4136
14788SOL    HW245806   6.490   2.662   8.006  2.2480  1.2780  0.3108
14789SOL     OW45807   5.203   5.500   9.488 -0.0824  0.1100 -0.1525
14789SOL    HW145808   5.157   5.562   9.431  1.0937  2.7746  1.6047
14789SOL    HW245809   5.133   5.448   9.528 -1.3864  1.9646  0.1233
14790SOL     OW45810   4.841   0.096   6.069 -0.2615 -0.0146 -0.0588
14790SOL    HW145811   4.868   0.026   6.009  0.2026  0.4588 -0.4091
14790SOL    HW245812   4.922   0.142   6.091 -0.8913  2.4035 -2.3383
14791SOL     OW45813   7.024   6.163   2.913  0.0230 -0.4768 -0.3060
14791SOL    HW145814   7.103   6.199   2.873  1.1088 -1.5165  0.8089
14791SOL    HW245815   6.965   6.237   2.922  1.6730  0.7880  0.7323
14792SOL     OW45816   7.818   0.456   5.709  0.5362  0.2138 -0.2777
14792SOL    HW145817   7.765   0.456   5.788  1.0190 -0.3126  0.0571
14792SOL    HW245818   7.901   0.496   5.735  1.5577 -1.9642  0.1297
14793SOL     OW45819   7.424   7.411  11.525 -0.0184 -0.3728 -0.0281
14793SOL    HW145820   7.345   7.370  11.489  0.9721 -2.1372 -0.3394
14793SOL    HW245821   7.428   7.497  11.484 -0.7130 -1.0453 -1.6027
14794SOL     OW45822   7.918   1.667   3.361  0.5794 -1.1161  0.4800
14794SOL    HW145823   7.931   1.642   3.270  1.3174  0.1282  0.2199
14794SOL    HW245824   7.916   1.584   3.408  4.6205 -1.7627 -0.1227
14795SOL     OW45825   4.080   1.673   2.746  0.0370  0.0087  0.1692
14795SOL    HW145826   4.143   1.726   2.795 -0.6520  2.3058 -1.2324
14795SOL    HW245827   4.134   1.613   2.695  0.9640  0.3289  0.7527
14796SOL     OW45828   6.490   7.574   8.694  0.1119 -0.3047 -0.1990
14796SOL    HW145829   6.520   7.655   8.736 -3.3683  0.9414  0.3026
14796SOL    HW245830   6.537   7.505   8.739  2.9278  1.3560 -0.3479
14797SOL     OW45831   7.166   4.589  10.607  0.0242  0.5448  0.3635
14797SOL    HW145832   7.182   4.555  10.695 -1.0407 -0.4143  0.2146
14797SOL    HW245833   7.071   4.604  10.603  0.1642  1.3467 -0.3598
14798SOL     OW45834   3.873   2.456   1.005  0.4988 -0.2207 -0.6031
14798SOL    HW145835   3.948   2.515   1.015  1.4117 -1.5327  0.5853
14798SOL    HW245836   3.815   2.480   1.078 -0.9432  1.6684 -2.2392
14799SOL     OW45837   3.813   5.624  11.098  0.1767  0.7107  0.5998
14799SOL    HW145838   3.754   5.549  11.109  1.4716 -0.4098  0.2083
14799SOL    HW245839   3.772   5.694  11.148 -0.0791 -0.8462  2.7327
14800SOL     OW45840   2.910   3.019   9.513 -0.0026  0.0156 -0.8255
14800SOL    HW145841   2.994   3.015   9.559 -0.8488 -0.1038  0.7488
14800SOL    HW245842   2.895   3.112   9.496 -0.5454  0.2547  0.8213
14801SOL     OW45843   7.065   3.606  11.253  0.3080  0.0614 -0.0949
14801SOL    HW145844   6.974   3.622  11.279  0.2928 -0.3669  0.1239
14801SOL    HW245845   7.065   3.517  11.219  0.4717  0.3761 -0.9312
14802SOL     OW45846   7.512   1.390  11.129 -0.1455 -0.3307 -0.3766
14802SOL    HW145847   7.607   1.389  11.138  0.1245 -0.1353 -2.5976
14802SOL    HW245848   7.489   1.299  11.110 -0.7695 -0.8939  2.6199
14803SOL     OW45849   6.066   4.851   6.590  1.0409  0.4364  0.4701
14803SOL    HW145850   6.132   4.816   6.650 -0.4530 -1.2982  1.1964
14803SOL    HW245851   5.995   4.787   6.592 -0.2242  1.6907 -1.1076
14804SOL     OW45852   7.372   3.410   1.247  0.0292  0.2305 -0.7352
14804SOL    HW145853   7.343   3.447   1.164 -0.3852  0.4450 -0.5006
14804SOL    HW245854   7.296   3.417   1.304  1.1061  2.7470  0.5647
14805SOL     OW45855   0.794   5.455   6.250  0.0009  0.0279 -0.1704
14805SOL    HW145856   0.859   5.522   6.273  0.4090 -0.3615 -0.1698
14805SOL    HW245857   0.846   5.384   6.213 -0.4682 -0.1309 -0.5236
14806SOL     OW45858   2.039   5.970   4.092 -0.3098  0.4797  0.3253
14806SOL    HW145859   2.066   6.056   4.057 -1.2203  0.7922  0.3735
14806SOL    HW245860   2.112   5.912   4.071 -1.1627  0.4125 -3.0211
14807SOL     OW45861   3.829   5.933   5.145 -0.0495 -0.1984 -0.0072
14807SOL    HW145862   3.859   5.992   5.214 -0.7684  0.5812 -0.3463
14807SOL    HW245863   3.734   5.930   5.156 -0.1368 -0.3180 -0.7710
14808SOL     OW45864   7.468   3.929   4.081 -0.2593 -0.3834 -0.1317
14808SOL    HW145865   7.430   3.999   4.028  0.1815  0.3302  0.4815
14808SOL    HW245866   7.541   3.971   4.128  0.5606 -1.4477 -0.4071
14809SOL     OW45867   2.796   3.045   3.615 -0.4809 -0.2391  0.1515
14809SOL    HW145868   2.808   3.131   3.656 -0.5731  0.3426 -0.9938
14809SOL    HW245869   2.704   3.025   3.629 -0.0459 -1.0506  2.0744
14810SOL     OW45870   4.541   5.695   3.995 -0.4805 -0.3022 -0.1907
14810SOL    HW145871   4.502   5.779   3.968 -1.1122 -0.4138  0.3564
14810SOL    HW245872   4.481   5.661   4.062 -0.9150 -1.8016 -1.2997
14811SOL     OW45873   3.847   4.978   5.216  0.6152  0.4254  0.0359
14811SOL    HW145874   3.752   4.983   5.206  0.2602 -1.0493  1.9455
14811SOL    HW245875   3.864   4.885   5.231  2.5460  0.4665 -1.5905
14812SOL     OW45876   1.233   7.670  10.058  0.2202  0.3079  0.1585
14812SOL    HW145877   1.303   7.613  10.024  2.5548  2.6272  0.6967
14812SOL    HW245878   1.211   7.727   9.984  0.4007  0.9057  0.5568
14813SOL     OW45879   2.965   4.196   0.181 -0.1927  0.1175  0.4255
14813SOL    HW145880   2.988   4.259   0.250  1.7470  0.4134 -0.4123
14813SOL    HW245881   3.046   4.147   0.167 -0.3971  0.3784 -1.9560
14814SOL     OW45882   2.090   2.652  10.769 -0.1285  0.1010 -0.1469
14814SOL    HW145883   2.123   2.648  10.858 -1.8511 -2.0180  0.4843
14814SOL    HW245884   2.047   2.568  10.755 -1.9346  1.2390 -2.1575
14815SOL     OW45885   1.897   1.332   6.145 -0.5062  0.3055 -0.6836
14815SOL    HW145886   1.815   1.344   6.097  0.2982  0.5072 -2.0748
14815SOL    HW245887   1.957   1.396   6.106  0.2325  0.4001  0.5401
14816SOL     OW45888   1.675   0.228   2.671 -0.4027  0.7351  0.4309
14816SOL    HW145889   1.628   0.167   2.728  0.0774  0.0617  0.1283
14816SOL    HW245890   1.662   0.193   2.582  0.9854  0.3019  0.3799
14817SOL     OW45891   2.365   3.374  12.369 -1.0417 -0.4138 -0.3898
14817SOL    HW145892   2.339   3.296  12.320 -2.0230 -0.8231  0.7228
14817SOL    HW245893   2.362   3.445  12.306 -0.3864 -1.2264 -1.3627
14818SOL     OW45894   2.219   6.109  12.323  0.2683 -0.2692 -0.0680
14818SOL    HW145895   2.201   6.015  12.327  0.0527 -0.2641 -0.9137
14818SOL    HW245896   2.257   6.123  12.236  0.0125  0.4775 -0.0677
14819SOL     OW45897   4.415   7.026   3.674  0.2388 -0.0693  0.7896
14819SOL    HW145898   4.389   7.046   3.764 -2.6279  1.5558 -0.2680
14819SOL    HW245899   4.339   6.983   3.636  1.0035  0.1854 -1.1484
14820SOL     OW45900   5.070   1.987   6.421  0.2110 -0.7049  0.3038
14820SOL    HW145901   5.012   2.035   6.362 -0.4892 -1.8742 -0.0068
14820SOL    HW245902   5.044   2.017   6.508 -1.8600 -2.1392  0.2722
14821SOL     OW45903   7.276   2.590   7.525 -0.1076  0.1951 -0.1529
14821SOL    HW145904   7.358   2.600   7.572 -1.1439  2.4531  1.3435
14821SOL    HW245905   7.299   2.604   7.433  1.3478 -0.4654  0.0950
14822SOL     OW45906   6.628   6.979   7.968  0.0348  0.2059 -0.6256
14822SOL    HW145907   6.710   7.012   8.005  0.1324 -1.7937  1.1541
14822SOL    HW245908   6.652   6.945   7.882  0.4681  2.1017 -1.2996
14823SOL     OW45909   7.734   5.889   1.202 -0.0873 -0.2575  0.1108
14823SOL    HW145910   7.823   5.924   1.199 -0.1616 -0.1385 -0.7019
14823SOL    HW245911   7.679   5.959   1.169 -0.4799 -0.3722  0.5075
14824SOL     OW45912   3.177   2.779   0.124 -0.3847  0.0699  0.1064
14824SOL    HW145913   3.130   2.848   0.077  0.2852 -1.2036 -2.6541
14824SOL    HW245914   3.269   2.804   0.116 -0.1958 -0.7046 -0.1933
14825SOL     OW45915   0.046   0.908   9.716 -0.0648 -0.3358 -0.1524
14825SOL    HW145916   0.032   0.891   9.809  0.7724  2.8965  0.6984
14825SOL    HW245917  -0.043   0.919   9.681 -0.4044  3.0045  1.3959
14826SOL     OW45918   4.737   5.723   3.107 -0.2087 -0.4992 -0.7744
14826SOL    HW145919   4.734   5.728   3.203 -0.1247  2.3766 -0.8390
14826SOL    HW245920   4.654   5.683   3.082 -1.3691  1.0564  0.4305
14827SOL     OW45921   1.619   6.603   4.510  0.2984  0.2097  0.3511
14827SOL    HW145922   1.553   6.537   4.488 -0.5020  0.7972  0.9192
14827SOL    HW245923   1.703   6.559   4.497 -0.1849 -0.3995 -0.8747
14828SOL     OW45924   6.726   0.632   4.741  0.5057  0.0014  0.4251
14828SOL    HW145925   6.732   0.699   4.808  0.4752 -0.0683  0.4971
14828SOL    HW245926   6.684   0.558   4.784  2.5993 -0.9157  1.0236
14829SOL     OW45927   1.918   7.566  12.392  0.3093 -0.0278  0.6054
14829SOL    HW145928   1.967   7.493  12.430  1.4972  0.8138  0.7432
14829SOL    HW245929   1.831   7.560  12.432  0.7378 -0.6867  1.4730
14830SOL     OW45930   0.340   7.063   5.348 -0.0061 -0.3790  0.2410
14830SOL    HW145931   0.306   7.144   5.384  0.4044  0.3809 -1.0222
14830SOL    HW245932   0.370   7.013   5.425 -1.6491 -0.0255  1.1606
14831SOL     OW45933   3.861   5.985   6.985  0.5949  0.0814 -0.3544
14831SOL    HW145934   3.812   5.929   7.044  0.9708  2.0434  2.0056
14831SOL    HW245935   3.951   5.980   7.016  0.9890  0.3976 -1.4008
14832SOL     OW45936   4.911   4.143  11.465  0.1988  0.7302  0.7261
14832SOL    HW145937   4.951   4.059  11.487 -1.9924 -0.0013  2.2831
14832SOL    HW245938   4.957   4.172  11.387  1.0010 -1.9667  0.1016
14833SOL     OW45939   5.807   7.070   4.001 -0.7367 -0.1726  0.3562
14833SOL    HW145940   5.826   7.000   3.939 -0.5638 -0.5646  0.8371
14833SOL    HW245941   5.891   7.115   4.013 -1.2123  1.2494 -1.2836
14834SOL     OW45942   1.171   4.613   6.195 -0.1045  0.2327 -0.5301
14834SOL    HW145943   1.259   4.574   6.187 -0.2002  0.1566 -1.2812
14834SOL    HW245944   1.134   4.573   6.273  0.7019  0.6003  0.0493
14835SOL     OW45945   0.674   5.590   3.033  0.1325  0.2713  0.0584
14835SOL    HW145946   0.581   5.568   3.034  0.0032  0.8088  1.2240
14835SOL    HW245947   0.707   5.552   2.952 -1.4502  1.5842 -1.2621
14836SOL     OW45948   0.915   2.987   9.086  0.3996  0.0310 -0.5812
14836SOL    HW145949   0.881   2.979   9.175  0.2609  0.7375 -0.5599
14836SOL    HW245950   0.856   3.050   9.044  0.4559 -0.3035 -1.1769
14837SOL     OW45951   7.974   3.806   1.175  0.0586  0.0887 -0.0285
14837SOL    HW145952   7.953   3.888   1.131  1.6305  0.6274  0.1693
14837SOL    HW245953   8.045   3.767   1.124  0.5202 -0.2797  0.8544
14838SOL     OW45954   1.908   2.434   3.276 -0.0665  0.0004 -0.0436
14838SOL    HW145955   1.905   2.403   3.186 -1.5047 -0.6759  0.2032
14838SOL    HW245956   2.001   2.448   3.294  0.3726 -1.2637 -1.1561
14839SOL     OW45957   7.133   1.579   8.155 -0.0330  0.1915 -0.2190
14839SOL    HW145958   7.073   1.627   8.213  0.8019  0.3923  0.5031
14839SOL    HW245959   7.147   1.495   8.199  0.9016  0.4903  0.0786
14840SOL     OW45960   1.253   0.065   4.687 -0.4229 -0.0333 -0.2790
14840SOL    HW145961   1.163   0.058   4.656  0.2363  1.2839 -2.7976
14840SOL    HW245962   1.248   0.116   4.767 -1.9663 -0.8510  0.1819
14841SOL     OW45963   3.503   1.903   0.445  0.2321 -0.1981 -0.9220
14841SOL    HW145964   3.470   1.963   0.377 -0.9563  0.2961  0.0483
14841SOL    HW245965   3.432   1.841   0.458  0.1447  0.1591  0.3848
14842SOL     OW45966   1.562   1.676  11.676 -0.0766 -0.1117 -0.4191
14842SOL    HW145967   1.498   1.735  11.715  0.0647 -0.4821  0.3942
14842SOL    HW245968   1.541   1.676  11.583 -0.3737  0.8502 -0.3659
14843SOL     OW45969   7.120   4.838   8.700  0.3882 -0.4268  0.5664
14843SOL    HW145970   7.074   4.820   8.618  1.2221  0.0975 -0.0414
14843SOL    HW245971   7.057   4.817   8.768 -0.0593 -1.6164 -0.1864
14844SOL     OW45972   4.693   1.258   3.201  0.1837  0.1295 -0.1517
14844SOL    HW145973   4.626   1.282   3.266 -0.3852 -1.8933  0.0790
14844SOL    HW245974   4.754   1.202   3.249 -0.4250 -1.6726 -1.3737
14845SOL     OW45975   5.466   3.141   8.142 -0.1544  0.0465 -0.0689
14845SOL    HW145976   5.451   3.122   8.049 -1.1416 -1.2412  0.3191
14845SOL    HW245977   5.476   3.054   8.182  3.7730  0.6114  0.5241
14846SOL     OW45978   3.990   0.791   7.688 -0.6990 -0.1270 -0.2662
14846SOL    HW145979   3.928   0.858   7.659 -0.2918 -0.0482 -0.9676
14846SOL    HW245980   3.942   0.742   7.755 -1.0212  0.8334  0.2306
14847SOL     OW45981   3.220   0.293   2.088  0.1128  0.0581  0.4296
14847SOL    HW145982   3.281   0.363   2.109 -0.2518 -0.0106  1.7911
14847SOL    HW245983   3.139   0.318   2.132 -0.7324 -0.0737 -0.9714
14848SOL     OW45984   4.731   2.627   8.949 -0.4805  0.1618 -0.1842
14848SOL    HW145985   4.707   2.704   9.001  2.0536  0.2659  0.9510
14848SOL    HW245986   4.730   2.555   9.011 -1.8482 -0.5975 -1.0299
14849SOL     OW45987   5.679   4.321   2.126  0.3951 -0.4152  0.0304
14849SOL    HW145988   5.647   4.353   2.042  1.3835 -1.7843 -0.9133
14849SOL    HW245989   5.600   4.285   2.168 -0.6745  2.7550  0.9960
14850SOL     OW45990   4.005   2.254   5.551 -0.4370  0.1492 -0.2259
14850SOL    HW145991   3.936   2.249   5.616 -0.3483  1.7590  0.0338
14850SOL    HW245992   4.049   2.338   5.568  0.3591  0.0453 -1.5808
14851SOL     OW45993   0.691   3.634   4.500 -0.0537 -0.0210 -0.3335
14851SOL    HW145994   0.630   3.661   4.430 -0.9322 -0.7741  0.1232
14851SOL    HW245995   0.703   3.713   4.552 -1.1580 -0.0190 -0.0626
14852SOL     OW45996   0.362   5.908   7.512 -0.0993 -0.0903 -0.3554
14852SOL    HW145997   0.383   5.816   7.530 -3.1787 -0.4958  2.1780
14852SOL    HW245998   0.337   5.910   7.420 -2.1494 -2.3486  0.0742
14853SOL     OW45999   2.137   3.575   2.249  0.2683  0.4324 -0.1771
14853SOL    HW146000   2.131   3.523   2.169 -3.5198 -0.1207  0.2673
14853SOL    HW246001   2.143   3.666   2.218 -1.7575  0.2724 -1.1749
14854SOL     OW46002   5.596   4.990   6.120 -0.2011  0.1773 -0.1998
14854SOL    HW146003   5.520   4.943   6.085 -1.1566  2.2786 -1.1186
14854SOL    HW246004   5.562   5.033   6.199  0.7606 -0.8968  0.8443
14855SOL     OW46005   4.760   2.546   9.384 -0.2136  0.5759 -0.0796
14855SOL    HW146006   4.703   2.478   9.348 -1.8927  1.8669  0.0003
14855SOL    HW246007   4.755   2.618   9.321  1.1911  0.8111  0.0450
14856SOL     OW46008   0.256   3.289   2.233 -1.1902  0.7255 -0.4300
14856SOL    HW146009   0.260   3.373   2.278 -3.1187  1.0280 -0.7424
14856SOL    HW246010   0.320   3.234   2.278  0.2632  2.4026 -0.3688
14857SOL     OW46011   5.542   6.310   1.656 -0.3530  0.2840  0.3057
14857SOL    HW146012   5.527   6.398   1.620 -1.3669  0.3662  0.8832
14857SOL    HW246013   5.628   6.315   1.697 -0.7418  1.2519  1.0388
14858SOL     OW46014   2.490   5.303  11.980  0.1417  0.3702  0.0576
14858SOL    HW146015   2.576   5.275  11.950 -0.5895 -0.4569 -1.3428
14858SOL    HW246016   2.501   5.318  12.074  1.7574  0.1055 -0.0664
14859SOL     OW46017   4.136   0.673   1.794  0.3145  0.6302  0.4034
14859SOL    HW146018   4.061   0.612   1.795 -0.4302  1.3534 -2.5931
14859SOL    HW246019   4.128   0.721   1.877 -2.0128  0.0490  0.5978
14860SOL     OW46020   6.581   7.236   2.387  0.5241  0.3378  0.1663
14860SOL    HW146021   6.640   7.242   2.312  1.2627  0.8448  0.7739
14860SOL    HW246022   6.547   7.147   2.384  1.1994  0.0901 -0.2856
14861SOL     OW46023   3.391   1.789   7.717 -0.1846  0.4677  0.0594
14861SOL    HW146024   3.378   1.789   7.811  1.4427  0.6613  0.3240
14861SOL    HW246025   3.311   1.752   7.681 -1.8142  2.5311  1.3342
14862SOL     OW46026   0.376   1.933   7.310  0.0628 -0.1075  0.3019
14862SOL    HW146027   0.451   1.941   7.369 -0.1352  2.0442  0.3157
14862SOL    HW246028   0.404   1.868   7.245  0.9988 -1.1169  1.6520
14863SOL     OW46029   1.553   6.279   4.830  0.1065  0.2862  0.0184
14863SOL    HW146030   1.524   6.364   4.861 -0.9889  0.9991 -2.6524
14863SOL    HW246031   1.480   6.246   4.778  0.7653 -2.0123  0.4131
14864SOL     OW46032   2.661   5.757   5.482  0.2012  0.1827  0.3569
14864SOL    HW146033   2.656   5.696   5.555  1.3626 -1.0204 -0.5279
14864SOL    HW246034   2.611   5.714   5.412 -1.7063  1.7398  0.6616
14865SOL     OW46035   2.457   7.461   2.028  0.1632 -0.5828  0.4624
14865SOL    HW146036   2.463   7.499   2.116 -0.8178  1.1647 -0.1614
14865SOL    HW246037   2.471   7.536   1.970 -0.0435 -1.5531 -0.8649
14866SOL     OW46038   2.417   6.625   9.491 -0.6325 -0.1203 -0.0499
14866SOL    HW146039   2.385   6.626   9.401  1.7294  0.4225 -0.9610
14866SOL    HW246040   2.468   6.706   9.500 -1.0911  0.0059  1.8999
14867SOL     OW46041   1.585   2.109   1.546  0.1285 -0.2558 -0.2571
14867SOL    HW146042   1.513   2.165   1.518 -0.0603 -0.5848 -0.4295
14867SOL    HW246043   1.618   2.150   1.626  1.3945  1.3290 -1.5208
14868SOL     OW46044   4.970   6.574   5.065 -0.2390 -0.2778 -0.2903
14868SOL    HW146045   4.931   6.612   5.144  1.5479  1.8080 -0.3459
14868SOL    HW246046   4.909   6.597   4.995  0.7531  2.6904 -0.3289
14869SOL     OW46047   7.583   7.114   9.574 -0.5860 -0.4619  0.4000
14869SOL    HW146048   7.497   7.086   9.542 -0.7630 -1.4879  1.6662
14869SOL    HW246049   7.585   7.085   9.666  0.0253  2.0368  1.2482
14870SOL     OW46050   3.411   3.314   5.974  0.0143 -0.1442 -0.4844
14870SOL    HW146051   3.399   3.399   6.015  0.0412 -0.1903 -0.3819
14870SOL    HW246052   3.458   3.333   5.893 -0.2495 -0.0263 -0.6137
14871SOL     OW46053   2.602   3.271  10.587  0.1783  0.7054  0.3450
14871SOL    HW146054   2.695   3.294  10.590 -0.1725  2.2098  0.2064
14871SOL    HW246055   2.574   3.270  10.678  0.4014 -0.0912  0.4098
14872SOL     OW46056   6.044   5.455   9.632 -0.5616 -0.0534  0.0833
14872SOL    HW146057   6.095   5.509   9.692 -0.5742  0.1424 -0.0854
14872SOL    HW246058   6.045   5.502   9.549  0.2372 -0.7666 -0.3386
14873SOL     OW46059   7.369   6.354  11.442  0.7571  0.0060 -0.3843
14873SOL    HW146060   7.298   6.358  11.377  1.0597 -0.9557 -0.7928
14873SOL    HW246061   7.415   6.272  11.422  1.5840  0.2935  0.2946
14874SOL     OW46062   7.495   0.583   6.023  0.1704 -0.0291  0.2798
14874SOL    HW146063   7.539   0.665   6.045  0.8896 -0.3962  0.2630
14874SOL    HW246064   7.402   0.604   6.024  0.3391  0.7393  0.4583
14875SOL     OW46065   4.828   0.934   7.669 -0.3506  0.7654  0.2582
14875SOL    HW146066   4.872   0.898   7.746 -0.9365 -0.2576  0.1339
14875SOL    HW246067   4.815   1.026   7.689 -0.1387  0.5971  1.2092
14876SOL     OW46068   0.433   3.507   8.494 -0.2511 -0.1785 -0.1549
14876SOL    HW146069   0.527   3.490   8.489 -0.5891 -2.7932  0.6929
14876SOL    HW246070   0.412   3.551   8.412  1.6143 -0.0920 -0.6236
14877SOL     OW46071   0.561   2.025   8.477  0.2284  0.8420  0.2599
14877SOL    HW146072   0.615   2.097   8.509  0.1965  0.4854  1.1495
14877SOL    HW246073   0.621   1.951   8.471 -0.1910  0.3672  1.5318
14878SOL     OW46074   3.031   5.898   1.023  0.2353 -0.0900 -0.0009
14878SOL    HW146075   3.047   5.985   0.985  0.2501 -0.2329 -0.3185
14878SOL    HW246076   3.027   5.839   0.948  0.3543 -0.3850  0.2243
14879SOL     OW46077   6.022   5.236   5.201 -0.2094  0.2626 -0.0124
14879SOL    HW146078   5.990   5.321   5.172 -0.2940  0.3858  0.4368
14879SOL    HW246079   5.943   5.185   5.218 -0.1609  0.2193  0.0838
14880SOL     OW46080   7.486   3.572   4.842 -0.0857  0.2501  0.2498
14880SOL    HW146081   7.463   3.580   4.749  1.7698  1.0063 -0.1856
14880SOL    HW246082   7.575   3.607   4.848  0.7700 -1.9662  1.9118
14881SOL     OW46083   1.501   6.363   9.516  0.0076  0.2306 -0.3298
14881SOL    HW146084   1.539   6.441   9.475  1.0292 -0.9735 -1.7759
14881SOL    HW246085   1.563   6.293   9.496 -0.6176 -0.8674  1.4007
14882SOL     OW46086   2.445   5.253  12.272  0.1099 -0.0588  0.6741
14882SOL    HW146087   2.398   5.184  12.320  2.0251 -0.8204  1.5618
14882SOL    HW246088   2.432   5.332  12.324 -0.5044 -0.1703  0.6952
14883SOL     OW46089   1.908   3.101   3.657 -0.2267  0.2299  0.9884
14883SOL    HW146090   1.953   3.168   3.708  1.1737  0.6209 -0.6847
14883SOL    HW246091   1.876   3.038   3.722 -0.3219  1.7654  2.4699
14884SOL     OW46092   1.820   3.217   8.849 -0.1757 -0.0317 -0.0110
14884SOL    HW146093   1.824   3.215   8.945 -1.3093 -3.0531  0.0942
14884SOL    HW246094   1.728   3.201   8.828  0.3263 -1.1977 -1.5394
14885SOL     OW46095   4.541   0.285  10.278  0.6359  1.0141 -0.0893
14885SOL    HW146096   4.446   0.276  10.273  0.7101  0.1663 -0.1168
14885SOL    HW246097   4.568   0.306  10.189  0.4202  1.8436  0.0377
14886SOL     OW46098   2.470   4.037   4.153 -0.3052  0.1128 -0.1963
14886SOL    HW146099   2.426   4.021   4.237  0.1165  0.5530  0.1203
14886SOL    HW246100   2.445   3.963   4.098 -0.4348 -0.2875  0.3841
14887SOL     OW46101   2.419   4.288   0.075  0.2277  0.1969 -0.3042
14887SOL    HW146102   2.513   4.278   0.060  0.3009 -0.5483  0.6211
14887SOL    HW246103   2.381   4.206   0.046 -0.2596  0.8038 -1.4663
14888SOL     OW46104   3.261   0.524  10.049 -0.7404 -0.2490 -0.6019
14888SOL    HW146105   3.206   0.481   9.984  1.0636 -1.0906 -1.6646
14888SOL    HW246106   3.279   0.610  10.012 -1.6584  0.1863 -0.0541
14889SOL     OW46107   0.592   5.511   1.993 -0.2475 -0.1522 -0.5561
14889SOL    HW146108   0.649   5.563   2.049 -2.1813  0.6932  0.7709
14889SOL    HW246109   0.634   5.513   1.907  2.7877 -1.4428  0.7676
14890SOL     OW46110   7.630   0.841  10.871  0.0613 -0.2678  0.2837
14890SOL    HW146111   7.557   0.847  10.933 -0.1640  1.3030 -0.0925
14890SOL    HW246112   7.611   0.907  10.805  1.9220  0.3183  0.2884
14891SOL     OW46113   6.605   0.488   1.056  0.2403 -0.0038  0.1675
14891SOL    HW146114   6.682   0.474   1.111  0.1966  1.8776  0.7774
14891SOL    HW246115   6.536   0.438   1.099  0.1082  1.7405  2.1284
14892SOL     OW46116   5.291   2.053   2.104  0.5411 -0.1427 -0.4855
14892SOL    HW146117   5.382   2.064   2.077  0.3165 -2.8628 -2.9230
14892SOL    HW246118   5.296   2.020   2.193  1.9822 -0.6544 -0.7292
14893SOL     OW46119   6.921   5.827  10.998  0.9430 -0.1537  0.2680
14893SOL    HW146120   6.924   5.741  11.040  2.5996 -0.4159 -0.2927
14893SOL    HW246121   6.856   5.817  10.928 -0.7908 -0.1311  1.8126
14894SOL     OW46122   2.827   6.353   8.972 -0.5858 -0.0631  0.4897
14894SOL    HW146123   2.851   6.285   9.035 -0.4824  0.6917  1.2822
14894SOL    HW246124   2.797   6.426   9.026  0.0204  0.8002 -0.3209
14895SOL     OW46125   3.443   1.374   1.058  0.0441 -0.1237 -0.1624
14895SOL    HW146126   3.508   1.438   1.030 -1.1853  0.5330 -1.6576
14895SOL    HW246127   3.460   1.362   1.151 -0.3785  3.2385  0.4648
14896SOL     OW46128   1.854   6.685   4.882  0.1730 -0.4254 -0.4773
14896SOL    HW146129   1.854   6.735   4.800  0.7533 -0.4223 -0.4810
14896SOL    HW246130   1.882   6.748   4.948 -0.3742 -0.4082 -0.2572
14897SOL     OW46131   1.803   3.252  11.968  0.0296 -0.5392  0.4841
14897SOL    HW146132   1.806   3.292  12.056  1.7059 -0.1151  0.2656
14897SOL    HW246133   1.810   3.327  11.908  1.7567 -1.0099  0.0495
14898SOL     OW46134   0.183   0.599   0.194 -0.5380  0.1906 -0.5434
14898SOL    HW146135   0.152   0.689   0.203 -1.8668 -0.1180 -1.7113
14898SOL    HW246136   0.109   0.552   0.156  0.2074 -1.3592 -0.1447
14899SOL     OW46137   0.041   7.169  11.849  0.0741 -0.5527 -0.3467
14899SOL    HW146138   0.109   7.142  11.911  1.1819  1.9176 -0.3848
14899SOL    HW246139   0.031   7.094  11.791  3.1892 -0.8579 -0.6730
14900SOL     OW46140   2.099   0.074   1.064  0.2338  0.1879 -0.6993
14900SOL    HW146141   2.155   0.147   1.037 -0.6870  0.5895 -1.6267
14900SOL    HW246142   2.066   0.038   0.982 -1.4287  0.4369 -0.1869
14901SOL     OW46143   2.145   4.157   6.930 -0.6968 -0.1649  0.4394
14901SOL    HW146144   2.161   4.199   7.015 -1.6290 -0.0294  0.5598
14901SOL    HW246145   2.052   4.134   6.932 -1.4970  2.4095 -1.6623
14902SOL     OW46146   1.617   4.455   3.370 -0.1597 -0.1107  0.1279
14902SOL    HW146147   1.530   4.418   3.388  0.7713 -2.5616  0.0116
14902SOL    HW246148   1.665   4.443   3.452  1.2367 -2.6126 -0.9363
14903SOL     OW46149   7.569   6.426   6.287  0.4467 -0.3061  0.1983
14903SOL    HW146150   7.634   6.381   6.341  0.0323 -0.8581  0.2520
14903SOL    HW246151   7.506   6.461   6.350  0.7466  0.3193  0.1531
14904SOL     OW46152   3.796   6.796   1.481  0.2236  0.1345  0.4010
14904SOL    HW146153   3.854   6.868   1.505 -1.4582  2.0482 -0.9629
14904SOL    HW246154   3.820   6.774   1.391 -0.2405  0.0131  0.3037
14905SOL     OW46155   5.710   0.864  11.418  0.0167  0.0808  0.1643
14905SOL    HW146156   5.662   0.844  11.338 -0.8661  0.4351  0.5908
14905SOL    HW246157   5.795   0.821  11.407 -0.5128 -0.8231 -0.4828
14906SOL     OW46158   5.831   2.479  10.452 -0.0025  0.3987  0.1856
14906SOL    HW146159   5.922   2.472  10.422 -0.1785  0.9254 -0.5022
14906SOL    HW246160   5.839   2.496  10.546  0.6004  0.0800  0.2016
14907SOL     OW46161   7.535   2.199   4.685  0.3867  0.6885 -0.1140
14907SOL    HW146162   7.461   2.242   4.729 -0.1698  0.6434 -0.9853
14907SOL    HW246163   7.500   2.172   4.601  1.3241  0.3892 -0.4171
14908SOL     OW46164   3.038   3.087   2.149 -0.4374 -1.0751 -0.1701
14908SOL    HW146165   3.127   3.050   2.151  0.5793  0.7660 -3.1555
14908SOL    HW246166   2.987   3.023   2.098 -0.1119 -0.9548 -0.6595
14909SOL     OW46167   7.677   4.070   7.011  0.1362  0.4174 -0.1777
14909SOL    HW146168   7.624   4.057   7.090  0.1744  0.6451 -0.1115
14909SOL    HW246169   7.621   4.122   6.954  0.6870  1.6236  0.3360
14910SOL     OW46170   2.784   1.416   7.945 -0.1162 -0.0047  0.2933
14910SOL    HW146171   2.785   1.409   8.040 -1.6481 -0.2413  0.3130
14910SOL    HW246172   2.701   1.460   7.924  1.3433  2.4004 -0.8074
14911SOL     OW46173   5.170   1.048   0.898 -0.3517 -0.2561  0.2234
14911SOL    HW146174   5.154   1.122   0.839  0.4235  0.4818  0.9100
14911SOL    HW246175   5.115   1.066   0.974 -2.4493 -1.9234 -0.7781
14912SOL     OW46176   4.911   4.891   7.122 -0.1322  0.1034 -0.2412
14912SOL    HW146177   4.948   4.804   7.110  0.5551  0.2618  0.6401
14912SOL    HW246178   4.817   4.879   7.108 -0.1741 -0.9805  0.8065
14913SOL     OW46179   0.580   6.725  11.944 -0.6917  0.0896  0.7496
14913SOL    HW146180   0.617   6.753  12.027  1.0515  1.4724 -0.4066
14913SOL    HW246181   0.604   6.633  11.936  0.6257  0.3887  1.0324
14914SOL     OW46182   3.841   6.035  11.603  0.3401  0.4946 -0.1718
14914SOL    HW146183   3.815   6.072  11.518 -0.3275  2.5848  0.8810
14914SOL    HW246184   3.927   5.996  11.586 -1.0539 -1.8829 -2.4876
14915SOL     OW46185   0.737   1.133   8.705 -0.0449 -0.1426  0.4744
14915SOL    HW146186   0.774   1.217   8.681  0.3374 -0.1694  0.9525
14915SOL    HW246187   0.677   1.111   8.633  1.4545 -0.4764 -0.7228
14916SOL     OW46188   3.407   6.547   6.456  0.4688  0.1988 -0.1578
14916SOL    HW146189   3.373   6.532   6.544 -0.2536  1.1658 -0.2569
14916SOL    HW246190   3.379   6.469   6.407 -0.6345  0.4349  0.0567
14917SOL     OW46191   1.100   4.066   8.054 -0.4564  0.0831 -0.5767
14917SOL    HW146192   1.052   3.997   8.008 -0.6679 -3.1594  3.9171
14917SOL    HW246193   1.173   4.021   8.097 -0.4176  2.6538  2.3872
14918SOL     OW46194   7.935   4.478   3.849 -0.0498 -0.2389 -0.3499
14918SOL    HW146195   7.881   4.460   3.926 -0.7332  0.6107 -0.6200
14918SOL    HW246196   8.025   4.483   3.883 -0.2055 -1.0683  0.1946
14919SOL     OW46197   3.196   0.243  12.211  0.1334  0.5919 -0.7046
14919SOL    HW146198   3.271   0.183  12.217  0.5989  1.2889  1.0213
14919SOL    HW246199   3.135   0.199  12.151  1.1675 -0.8173 -0.7806
14920SOL     OW46200   7.175   2.990   2.021 -0.0569  0.0165 -0.4904
14920SOL    HW146201   7.134   3.059   1.969  0.6216 -0.1905 -1.3307
14920SOL    HW246202   7.267   3.016   2.027  0.1477 -0.6661 -0.5717
14921SOL     OW46203   3.425   3.560   2.315  1.1005 -0.2161  0.0074
14921SOL    HW146204   3.396   3.598   2.233 -0.3359 -0.1043  0.5492
14921SOL    HW246205   3.401   3.467   2.309  0.9173 -0.1915  0.3327
14922SOL     OW46206   7.325   0.371   7.571 -0.1577 -0.4535  0.6148
14922SOL    HW146207   7.365   0.435   7.629 -1.3583  1.8132 -0.8942
14922SOL    HW246208   7.231   0.381   7.585 -0.4222 -0.8465 -0.7149
14923SOL     OW46209   1.985   2.053   6.948 -0.4603  0.4600 -0.1416
14923SOL    HW146210   2.053   2.101   6.995  0.9734 -1.3316 -0.2734
14923SOL    HW246211   2.030   1.976   6.913 -2.3239 -0.2071 -1.2151
14924SOL     OW46212   7.763   5.753   4.069 -0.0145  0.4854  0.0746
14924SOL    HW146213   7.797   5.664   4.082 -0.5226 -0.1105 -2.2277
14924SOL    HW246214   7.834   5.800   4.026  0.5521  1.4958  2.0033
14925SOL     OW46215   0.192   4.989   5.400 -0.5752  0.1258  0.6580
14925SOL    HW146216   0.227   5.011   5.486  0.9606 -0.4507  0.2171
14925SOL    HW246217   0.103   4.959   5.417 -1.2138  2.4061  1.7336
14926SOL     OW46218   6.308   4.395   2.515 -0.0521  0.1930  0.0604
14926SOL    HW146219   6.246   4.353   2.455  0.4599  1.2882 -1.2975
14926SOL    HW246220   6.277   4.486   2.521  0.8774  0.5105  0.1243
14927SOL     OW46221   5.579   6.735   7.469  0.4611  0.0706  0.0683
14927SOL    HW146222   5.616   6.653   7.436 -0.1926 -0.8574  1.5332
14927SOL    HW246223   5.526   6.769   7.397  0.7047 -0.8146 -0.5415
14928SOL     OW46224   0.067   2.395   1.269  0.0503 -0.2678  0.2364
14928SOL    HW146225   0.031   2.359   1.351 -1.0414  1.4590  0.5769
14928SOL    HW246226   0.039   2.333   1.202 -2.0952  0.0668  0.7462
14929SOL     OW46227   1.644   7.344   1.957 -0.0437  0.3053 -0.3041
14929SOL    HW146228   1.677   7.349   2.047 -4.0146 -1.8123  1.5334
14929SOL    HW246229   1.596   7.427   1.946 -1.1817 -0.2416  0.3523
14930SOL     OW46230   1.097   7.633   1.274  0.0834  0.3018  0.0134
14930SOL    HW146231   1.160   7.676   1.216 -1.6169  2.5838 -0.2819
14930SOL    HW246232   1.132   7.648   1.362 -0.1311  1.7918 -0.1277
14931SOL     OW46233   0.999   3.116   5.013 -0.2214 -0.1274  0.2148
14931SOL    HW146234   1.068   3.097   5.077 -0.0209 -0.5856 -0.1372
14931SOL    HW246235   0.919   3.120   5.065 -0.2057 -1.4652  0.3722
14932SOL     OW46236   4.816   7.658   9.009  0.3907 -0.6437 -0.1353
14932SOL    HW146237   4.834   7.745   9.044  1.9133 -0.4870 -1.1761
14932SOL    HW246238   4.902   7.623   8.986 -0.2221 -2.2838 -0.0797
14933SOL     OW46239   6.630   1.877  11.008  0.8119  0.1913 -0.0365
14933SOL    HW146240   6.712   1.852  11.051  0.8399 -0.0983 -0.2548
14933SOL    HW246241   6.593   1.944  11.065 -0.1976 -1.6467  1.5699
14934SOL     OW46242   2.529   0.431  11.193 -0.7705  0.5957  0.1346
14934SOL    HW146243   2.537   0.522  11.164 -1.6772  0.5612 -0.2713
14934SOL    HW246244   2.600   0.420  11.256  0.0087  1.2710 -0.5859
14935SOL     OW46245   5.426   6.273  10.595  0.2614 -0.4615 -0.1710
14935SOL    HW146246   5.453   6.319  10.674 -1.3471  0.7064 -0.2661
14935SOL    HW246247   5.354   6.217  10.622 -0.0569 -0.3346 -0.7285
14936SOL     OW46248   3.319   5.436   4.670  0.4041 -0.3665  0.2098
14936SOL    HW146249   3.297   5.451   4.578  0.2774  0.4524  0.3705
14936SOL    HW246250   3.392   5.374   4.666  0.2979 -0.4640 -0.4345
14937SOL     OW46251   3.230   3.998   4.788 -0.2981  0.3182  0.0581
14937SOL    HW146252   3.182   3.945   4.724 -0.0009 -0.1828  0.2425
14937SOL    HW246253   3.271   3.934   4.846 -0.2619  0.7600  0.5315
14938SOL     OW46254   5.576   0.230   8.562  0.1031  0.0008  0.1767
14938SOL    HW146255   5.554   0.164   8.496  0.6794  1.0903 -1.1528
14938SOL    HW246256   5.492   0.257   8.599 -0.3159  0.1025 -0.8346
14939SOL     OW46257   0.845   4.938   0.803  0.0224 -0.6040 -0.1173
14939SOL    HW146258   0.916   5.000   0.820  1.8078 -2.0944 -1.7256
14939SOL    HW246259   0.839   4.934   0.708 -2.6217 -0.1793 -0.0628
14940SOL     OW46260   2.649   4.050  11.577  0.4902  0.3436  0.5716
14940SOL    HW146261   2.627   4.054  11.483 -0.0939 -0.2886  0.6759
14940SOL    HW246262   2.597   3.977  11.610  1.5563 -0.1603  1.1663
14941SOL     OW46263   2.438   0.407   7.202  0.5984 -0.2682 -0.0787
14941SOL    HW146264   2.447   0.331   7.144  1.1738  0.2787 -0.7124
14941SOL    HW246265   2.521   0.453   7.195 -0.1056  0.9850 -0.4918
14942SOL     OW46266   5.424   1.272   5.922 -0.1863 -0.2288 -0.1001
14942SOL    HW146267   5.464   1.195   5.963 -0.9154 -0.1431  0.8125
14942SOL    HW246268   5.395   1.326   5.995  0.1233  0.8198 -0.7361
14943SOL     OW46269   4.105   3.754   8.466  0.4407  0.1153  0.0484
14943SOL    HW146270   4.198   3.775   8.474  0.6008  0.2101 -1.7042
14943SOL    HW246271   4.081   3.787   8.379 -1.2574  0.1867  0.5207
14944SOL     OW46272   3.462   1.743   5.627 -0.7193  0.3566 -0.1707
14944SOL    HW146273   3.532   1.678   5.619 -0.1802  0.9156 -0.0752
14944SOL    HW246274   3.386   1.702   5.585 -0.1998 -0.0575 -0.7229
14945SOL     OW46275   0.183   0.226   5.315 -0.1445 -0.2044  0.1681
14945SOL    HW146276   0.114   0.293   5.309  0.2015  0.1296 -0.1144
14945SOL    HW246277   0.262   0.270   5.283 -0.4513 -1.5880 -2.7896
14946SOL     OW46278   1.677   7.402   5.655  0.0188 -0.0448  0.3572
14946SOL    HW146279   1.665   7.494   5.633 -0.0703 -0.2311 -0.3860
14946SOL    HW246280   1.658   7.398   5.749  0.8886  0.8438  0.5942
14947SOL     OW46281   6.964   4.215   7.679  0.3825 -0.0677  0.1228
14947SOL    HW146282   7.029   4.147   7.663 -2.0440 -2.0417 -2.2433
14947SOL    HW246283   6.959   4.263   7.597  0.2337  1.3408  0.9343
14948SOL     OW46284   0.437   0.029   6.779 -0.0286 -0.2790  0.2484
14948SOL    HW146285   0.509  -0.023   6.742 -0.3267  0.6716 -1.8267
14948SOL    HW246286   0.481   0.102   6.824  0.3251 -0.8256  0.8028
14949SOL     OW46287   2.403   7.727   1.081  0.0931 -0.1956  0.3669
14949SOL    HW146288   2.311   7.723   1.107 -0.4324  0.5645 -1.2061
14949SOL    HW246289   2.404   7.691   0.992  1.2756  0.0772  0.2520
14950SOL     OW46290   6.792   4.630   7.627 -0.2332  0.5566  0.0031
14950SOL    HW146291   6.697   4.631   7.621 -0.3442 -1.6366  0.6970
14950SOL    HW246292   6.812   4.558   7.687  1.9075 -0.1807 -1.4889
14951SOL     OW46293   7.370   6.995  11.097  0.0520  0.7737 -0.0477
14951SOL    HW146294   7.461   6.977  11.073  0.1712  0.1828  0.7943
14951SOL    HW246295   7.346   6.922  11.155 -0.3529  1.8907  1.2468
14952SOL     OW46296   2.820   0.786   6.411 -0.0217  0.1306 -0.4090
14952SOL    HW146297   2.886   0.717   6.411 -0.5228 -0.3554  0.2813
14952SOL    HW246298   2.746   0.749   6.458 -0.1526  1.2776  0.3186
14953SOL     OW46299   2.656   1.194  10.138 -0.9406 -0.3775  0.3769
14953SOL    HW146300   2.664   1.213  10.044  0.1451 -0.7376  0.3868
14953SOL    HW246301   2.644   1.280  10.178  2.5031  0.2961  0.2703
14954SOL     OW46302   6.018   7.575   0.344 -0.4087  0.0956 -0.0628
14954SOL    HW146303   6.110   7.555   0.360 -0.5080  1.2298  2.4355
14954SOL    HW246304   5.979   7.492   0.318  1.0877 -0.6558 -0.0056
14955SOL     OW46305   5.186   5.285  10.919 -0.0326  0.2649 -0.4192
14955SOL    HW146306   5.151   5.372  10.902 -0.4277  0.3013  0.5166
14955SOL    HW246307   5.121   5.225  10.884  0.3111  0.3299 -1.2037
14956SOL     OW46308   3.948   6.886   0.285 -0.2733 -0.6204 -0.3641
14956SOL    HW146309   3.856   6.864   0.300 -0.3001 -0.3703 -0.1532
14956SOL    HW246310   3.968   6.952   0.351  0.4327 -1.6349  0.4686
14957SOL     OW46311   2.762   1.663   4.463 -0.4433  0.1811  0.0491
14957SOL    HW146312   2.674   1.695   4.445 -0.7449 -0.2803  0.6645
14957SOL    HW246313   2.788   1.619   4.382 -1.3425 -0.8937  0.3027
14958SOL     OW46314   0.354   4.406   7.763 -0.1853 -0.1140  0.4668
14958SOL    HW146315   0.351   4.350   7.685 -1.0286  0.4222  0.0980
14958SOL    HW246316   0.403   4.355   7.827  2.2284  0.2002 -1.0094
14959SOL     OW46317   4.818   0.410   4.826 -0.3145  0.2797 -0.7094
14959SOL    HW146318   4.729   0.382   4.846  0.1379 -1.9099 -1.4913
14959SOL    HW246319   4.873   0.339   4.858  1.1750  1.6161 -0.1968
14960SOL     OW46320   2.733   7.660   1.706  0.4143 -0.0090 -0.5507
14960SOL    HW146321   2.668   7.625   1.645  0.5831 -0.4911 -0.4547
14960SOL    HW246322   2.793   7.587   1.722  0.8620  0.3686 -0.4780
14961SOL     OW46323   6.262   5.135   6.648 -0.2932  0.1124  0.6273
14961SOL    HW146324   6.246   5.227   6.666  0.5732  0.3154  0.4126
14961SOL    HW246325   6.262   5.128   6.552  3.3868  0.6620  0.4419
14962SOL     OW46326   6.323   6.730  11.098 -0.6435  0.1890  0.2721
14962SOL    HW146327   6.312   6.650  11.150 -2.8141 -0.3036 -0.8338
14962SOL    HW246328   6.341   6.798  11.163  0.5955 -1.0498  1.2923
14963SOL     OW46329   1.749   0.246   0.424  0.2876  0.1914  0.6678
14963SOL    HW146330   1.715   0.209   0.342  1.1503  4.2026 -1.7984
14963SOL    HW246331   1.821   0.188   0.449 -0.1946 -1.3459 -1.2447
14964SOL     OW46332   0.568   2.596   7.620 -0.3550 -0.1835 -0.0328
14964SOL    HW146333   0.613   2.657   7.678  0.0942  0.8578 -1.4292
14964SOL    HW246334   0.475   2.612   7.636 -0.2366  0.3942  0.0903
14965SOL     OW46335   0.315   2.379   2.681  0.3746  0.4882  0.3713
14965SOL    HW146336   0.267   2.440   2.737  0.5252 -1.8537  3.3065
14965SOL    HW246337   0.249   2.316   2.652  0.5849  0.8446 -0.9469
14966SOL     OW46338   7.776   0.472  10.515 -0.4738 -0.1725  0.4137
14966SOL    HW146339   7.747   0.518  10.594  2.4240 -0.8964  2.0460
14966SOL    HW246340   7.721   0.393  10.512 -1.7668  0.6776  0.6926
14967SOL     OW46341   1.598   1.012   3.228  0.6793  0.4968 -0.0026
14967SOL    HW146342   1.569   0.945   3.167 -1.5787  0.9081  0.5220
14967SOL    HW246343   1.651   1.072   3.175 -1.3061  0.9111 -1.6499
14968SOL     OW46344   3.997   5.759   0.100 -0.2099 -0.6659  0.6698
14968SOL    HW146345   3.923   5.698   0.107  1.4818 -3.0087 -0.5027
14968SOL    HW246346   4.024   5.773   0.191 -2.3514  0.7324  1.1867
14969SOL     OW46347   4.890   1.358   4.469 -0.1711 -0.0698  0.1938
14969SOL    HW146348   4.880   1.335   4.376  2.0029  0.7013 -0.2969
14969SOL    HW246349   4.891   1.453   4.470 -0.5350 -0.0714  1.0686
14970SOL     OW46350   6.191   3.267   4.802  0.1316 -0.4500  0.0971
14970SOL    HW146351   6.203   3.219   4.720 -1.5774  0.5179 -0.7903
14970SOL    HW246352   6.157   3.202   4.864 -0.9966 -0.6778 -0.7322
14971SOL     OW46353   7.032   2.889   9.175 -0.1066  0.3807 -0.3289
14971SOL    HW146354   6.950   2.910   9.131 -0.3720  0.8010  0.3508
14971SOL    HW246355   7.094   2.955   9.144  0.1305 -0.2330 -1.2286
14972SOL     OW46356   7.165   5.685   1.740  0.3942  0.4450  0.0490
14972SOL    HW146357   7.217   5.702   1.661 -0.8813 -0.1610 -0.9551
14972SOL    HW246358   7.087   5.739   1.729  0.5843  0.9966  1.3192
14973SOL     OW46359   3.381   0.680  10.374 -0.4802  0.4329  0.2065
14973SOL    HW146360   3.292   0.666  10.344 -0.5014  1.1232 -0.0447
14973SOL    HW246361   3.396   0.608  10.436  0.0162 -1.8325 -2.3300
14974SOL     OW46362   0.722   4.815  11.457  0.1133 -0.1947  0.2643
14974SOL    HW146363   0.799   4.836  11.510 -0.6752  0.4525  1.1795
14974SOL    HW246364   0.753   4.820  11.366  1.1915 -0.1522  0.6203
14975SOL     OW46365   3.809   2.375   7.372 -0.2015  0.2260 -0.1994
14975SOL    HW146366   3.754   2.337   7.440  0.4699 -0.1273  0.1452
14975SOL    HW246367   3.779   2.466   7.365 -1.3435 -0.1643 -0.5477
14976SOL     OW46368   6.915   2.781   6.729  0.1326 -0.0550  0.4347
14976SOL    HW146369   6.999   2.815   6.700 -0.2959  1.7253  1.1647
14976SOL    HW246370   6.937   2.719   6.799  0.8746 -0.5614 -0.2295
14977SOL     OW46371   6.107   2.121   8.489 -0.4024 -0.1375 -0.4426
14977SOL    HW146372   6.103   2.027   8.475 -1.3486 -0.1404 -0.2344
14977SOL    HW246373   6.146   2.156   8.408  0.5370 -0.7536 -0.2627
14978SOL     OW46374   5.306   2.514  10.394  0.0872  0.5029  0.0613
14978SOL    HW146375   5.364   2.587  10.372  1.3857 -0.1322  1.3014
14978SOL    HW246376   5.221   2.556  10.408  0.2207  1.4542 -1.7066
14979SOL     OW46377   2.070   4.067   4.498 -0.2219 -0.4996 -0.7575
14979SOL    HW146378   2.013   4.051   4.573  0.5413 -0.7694 -0.2196
14979SOL    HW246379   2.023   4.030   4.424 -1.4091  0.5720 -0.5846
14980SOL     OW46380   5.996   4.592   0.435 -0.2156 -0.6793 -0.6004
14980SOL    HW146381   6.023   4.621   0.348 -0.4334  2.0801  0.1629
14980SOL    HW246382   5.902   4.610   0.438  0.1320  1.1363  0.8244
14981SOL     OW46383   0.685   0.389   7.483 -0.0221 -0.1374 -0.0567
14981SOL    HW146384   0.678   0.477   7.446  0.2975 -0.6483 -1.4132
14981SOL    HW246385   0.661   0.331   7.410 -0.0108 -1.1855  0.7467
14982SOL     OW46386   2.209   5.442   4.018 -0.1631  0.4317  0.1668
14982SOL    HW146387   2.213   5.392   3.937  0.4958  0.0760  0.4105
14982SOL    HW246388   2.300   5.462   4.039 -0.3029  0.2926  0.9539
14983SOL     OW46389   3.424   3.769   0.716 -0.1251  0.0216 -0.0015
14983SOL    HW146390   3.433   3.812   0.800  0.9456  1.1516 -0.6575
14983SOL    HW246391   3.343   3.719   0.722  0.6311 -1.0670  2.1785
14984SOL     OW46392   0.343   4.976   5.977  0.0329  0.4332  0.0019
14984SOL    HW146393   0.276   4.939   6.034  0.4094  1.6229  1.2839
14984SOL    HW246394   0.388   4.901   5.939 -0.5508 -0.3791  0.8984
14985SOL     OW46395   4.432   3.280   3.771 -0.1255  0.4739  0.1416
14985SOL    HW146396   4.489   3.236   3.834  0.0979 -0.3564 -0.6147
14985SOL    HW246397   4.389   3.209   3.724 -0.4531  1.0765 -0.4837
14986SOL     OW46398   2.308   1.905   5.673  0.0482 -0.5887  0.2150
14986SOL    HW146399   2.295   1.813   5.696  1.7698 -0.9874 -0.2131
14986SOL    HW246400   2.403   1.916   5.677 -0.0584  0.8932 -0.7971
14987SOL     OW46401   5.871   2.418   9.204 -0.1587  0.0374  0.4976
14987SOL    HW146402   5.913   2.462   9.130  0.7550 -0.0722  0.9357
14987SOL    HW246403   5.938   2.416   9.272 -1.3037  1.0271  1.6930
14988SOL     OW46404   3.905   4.396   4.067 -0.1593  0.7182  0.3972
14988SOL    HW146405   3.948   4.316   4.037 -1.0647 -0.1206  1.2600
14988SOL    HW246406   3.977   4.456   4.087  0.5156  0.4134 -1.0063
14989SOL     OW46407   0.920   1.201  11.328  0.4612  0.3859  0.7202
14989SOL    HW146408   1.007   1.227  11.297  1.4777 -0.5721  2.5815
14989SOL    HW246409   0.917   1.106  11.314  0.1418  0.2619  1.5711
14990SOL     OW46410   2.517   1.988   6.541  0.1950 -0.5533  0.6031
14990SOL    HW146411   2.605   2.004   6.576  0.1116 -0.6759  0.8702
14990SOL    HW246412   2.459   1.996   6.617 -0.0920  0.1046  0.3216
14991SOL     OW46413   4.200   0.018   2.466 -0.4670 -0.1043  0.5983
14991SOL    HW146414   4.114   0.059   2.464 -0.5158 -0.2234  0.2507
14991SOL    HW246415   4.256   0.081   2.512 -0.5089  0.4140 -0.0488
14992SOL     OW46416   0.802   1.815   1.932 -0.0288 -0.1045 -0.0212
14992SOL    HW146417   0.774   1.806   1.841 -1.3767  1.7696  0.1542
14992SOL    HW246418   0.840   1.903   1.937  1.5557 -0.7917  0.8916
14993SOL     OW46419   6.599   6.572   4.144 -0.0196  0.4120  0.0333
14993SOL    HW146420   6.508   6.549   4.164  0.2428 -0.3946  0.3612
14993SOL    HW246421   6.625   6.633   4.213  0.4666 -1.3342  1.4808
14994SOL     OW46422   1.308   4.144   4.497  0.2128 -0.1678 -0.0443
14994SOL    HW146423   1.292   4.181   4.410  1.8620  0.4982 -0.0917
14994SOL    HW246424   1.260   4.202   4.556  0.8056  0.6332 -0.3332
14995SOL     OW46425   0.909   3.971  11.000 -0.2906  0.2088 -0.4853
14995SOL    HW146426   0.938   3.927  10.921 -1.8818 -0.3726 -0.7958
14995SOL    HW246427   0.960   4.052  11.003  2.9233 -1.7058  0.2803
14996SOL     OW46428   5.890   5.473   4.833  0.2053 -0.1575  0.4462
14996SOL    HW146429   5.952   5.419   4.785 -0.8021 -0.1167 -0.9475
14996SOL    HW246430   5.806   5.459   4.789 -0.4017  1.2621  1.0904
14997SOL     OW46431   6.917   5.887   8.008 -0.3158 -0.4012  0.3486
14997SOL    HW146432   6.920   5.799   8.044 -1.5722 -0.7382 -0.2979
14997SOL    HW246433   6.824   5.903   7.991  0.0940  0.1317 -1.7591
14998SOL     OW46434   6.263   2.548   7.716 -0.3339 -0.1711  0.0672
14998SOL    HW146435   6.264   2.632   7.763 -0.5562  0.1905 -0.5612
14998SOL    HW246436   6.190   2.500   7.754  0.6093 -0.6340  1.3644
14999SOL     OW46437   0.651   4.402  10.485  0.0158  0.1264  0.0770
14999SOL    HW146438   0.740   4.439  10.493 -0.1447  0.3260  1.2119
14999SOL    HW246439   0.598   4.457  10.543 -1.0669  0.6296 -1.3428
15000SOL     OW46440   3.297   7.208   4.415 -0.1136 -0.1128 -0.2390
15000SOL    HW146441   3.262   7.132   4.368  0.2786 -0.8062  0.5693
15000SOL    HW246442   3.292   7.183   4.507  0.3504  0.7063  0.0129
15001SOL     OW46443   3.574   0.511  11.612  0.2867  0.2058 -0.6929
15001SOL    HW146444   3.589   0.600  11.578 -1.0674  0.3065 -1.0616
15001SOL    HW246445   3.494   0.482  11.569 -0.9619 -0.0599  1.6322
15002SOL     OW46446   7.179   0.928  10.185 -0.2538  0.3727  0.1921
15002SOL    HW146447   7.256   0.974  10.152 -0.6428  0.4251 -0.6663
15002SOL    HW246448   7.137   0.893  10.107 -0.5316 -0.5543  0.7478
15003SOL     OW46449   5.679   5.769   8.494 -0.1560  0.0948  0.1614
15003SOL    HW146450   5.713   5.850   8.532 -0.9487  1.2576 -1.4850
15003SOL    HW246451   5.616   5.798   8.428 -0.5560 -1.8820 -0.3984
15004SOL     OW46452   1.564   1.616   8.791  0.0851 -0.2275 -0.0152
15004SOL    HW146453   1.530   1.616   8.701  0.8009 -0.0018 -0.2921
15004SOL    HW246454   1.631   1.683   8.791  1.4544 -1.5436  0.1587
15005SOL     OW46455   1.392   3.613   8.177  0.6290 -0.1522 -0.1421
15005SOL    HW146456   1.368   3.684   8.118  1.0630 -0.5299 -0.7777
15005SOL    HW246457   1.319   3.551   8.171  0.0121  0.4536  0.7905
15006SOL     OW46458   0.084   4.038   8.349 -0.7768  0.0345 -0.4436
15006SOL    HW146459   0.052   4.014   8.262 -1.3106 -3.1639  0.5136
15006SOL    HW246460   0.151   3.973   8.369  0.9252  2.0037  0.7403
15007SOL     OW46461   0.657   4.558  12.043 -0.5859 -0.3389 -0.1839
15007SOL    HW146462   0.688   4.551  12.133 -1.3215 -0.8042  0.0473
15007SOL    HW246463   0.602   4.637  12.043  0.3015  0.3010 -0.5124
15008SOL     OW46464   3.725   0.533   3.860 -0.8679  0.2702  0.0879
15008SOL    HW146465   3.739   0.584   3.939 -0.2914  1.1520 -0.5585
15008SOL    HW246466   3.693   0.449   3.891  0.8695  0.0216  1.3494
15009SOL     OW46467   6.840   4.179   1.074 -0.5448  0.8186 -0.8286
15009SOL    HW146468   6.914   4.147   1.124 -0.7912  0.1455 -0.8899
15009SOL    HW246469   6.778   4.212   1.139 -0.1661  1.4483 -0.7820
15010SOL     OW46470   3.269   0.244   8.154  0.0669 -0.1759 -0.6908
15010SOL    HW146471   3.307   0.311   8.212  0.7000 -0.1671 -1.0971
15010SOL    HW246472   3.197   0.289   8.110 -0.3268 -0.1441 -0.0125
15011SOL     OW46473   7.971   3.596   6.178  0.3269  0.4506  0.3194
15011SOL    HW146474   7.944   3.539   6.250 -1.9963 -0.6918 -1.3453
15011SOL    HW246475   8.045   3.551   6.138  0.5782  0.2747  0.9653
15012SOL     OW46476   4.057   6.657   6.223  0.0068 -0.2295 -0.0364
15012SOL    HW146477   4.141   6.695   6.194  0.3033  0.0781  1.1434
15012SOL    HW246478   4.027   6.717   6.291 -0.7615 -0.8005  0.1352
15013SOL     OW46479   4.583   6.032   3.155  0.3621  0.0354  0.5400
15013SOL    HW146480   4.677   6.051   3.148  0.8991 -2.0096  1.5246
15013SOL    HW246481   4.574   5.984   3.237 -1.6271  0.4931  0.6362
15014SOL     OW46482   4.243   2.571   1.520  0.3558  0.0232 -0.4067
15014SOL    HW146483   4.337   2.564   1.537  0.4511 -3.0970 -1.4815
15014SOL    HW246484   4.226   2.665   1.517  3.2230  0.6918  0.8315
15015SOL     OW46485   3.313   5.912   8.560 -0.4017 -0.0389 -0.3387
15015SOL    HW146486   3.271   5.844   8.508  0.6581 -0.0814 -1.1656
15015SOL    HW246487   3.404   5.913   8.530  0.0590  0.4451  0.9895
15016SOL     OW46488   5.754   6.964   0.408 -0.1833 -0.0503  0.5308
15016SOL    HW146489   5.783   6.939   0.321  1.8478 -1.5230  1.5631
15016SOL    HW246490   5.693   6.895   0.434  0.9383 -0.8297  1.1266
15017SOL     OW46491   3.603   3.776   6.057  0.4806  0.4233 -0.2174
15017SOL    HW146492   3.659   3.787   6.133  1.5036 -1.2535 -0.6633
15017SOL    HW246493   3.605   3.860   6.012  2.5221  0.4746 -0.1093
15018SOL     OW46494   3.509   1.488   8.005  0.3665  0.1764  0.3241
15018SOL    HW146495   3.544   1.552   8.067  1.2738  0.3338 -0.3174
15018SOL    HW246496   3.541   1.518   7.920  0.9674 -1.2144  0.0293
15019SOL     OW46497   4.890   3.296   3.155 -0.3369 -0.0187 -0.1134
15019SOL    HW146498   4.817   3.300   3.092 -1.0617  1.0882  0.7493
15019SOL    HW246499   4.953   3.360   3.122 -0.0826 -0.4308 -0.4448
15020SOL     OW46500   0.019   6.281   2.717 -0.1287  0.2122 -0.4212
15020SOL    HW146501  -0.029   6.356   2.752 -0.6465 -0.5060  0.4550
15020SOL    HW246502   0.061   6.314   2.638 -0.6799  1.3151 -0.2718
15021SOL     OW46503   6.683   0.971  12.134  0.2703  0.1250  0.0917
15021SOL    HW146504   6.640   0.885  12.136  0.3697  0.0647  2.0752
15021SOL    HW246505   6.772   0.952  12.105  0.4289 -0.5352  0.9575
15022SOL     OW46506   3.555   6.440   1.686  0.2170  0.3070  0.3911
15022SOL    HW146507   3.574   6.524   1.645  0.3007 -0.8421 -2.1601
15022SOL    HW246508   3.634   6.387   1.670  0.1305 -0.3071  1.8588
15023SOL     OW46509   0.708   0.329   3.212 -0.2834  0.4482 -0.3232
15023SOL    HW146510   0.743   0.243   3.189  1.8707  1.4431 -1.0357
15023SOL    HW246511   0.696   0.325   3.307  1.6556 -0.0460 -0.0527
15024SOL     OW46512   2.685   1.206  12.268  0.0742  0.1361 -0.1623
15024SOL    HW146513   2.656   1.278  12.325  0.9693 -0.8777  1.6631
15024SOL    HW246514   2.605   1.156  12.251 -0.3912  1.0276 -0.6967
15025SOL     OW46515   1.361   0.278  11.575  0.4440  0.9044 -0.2035
15025SOL    HW146516   1.447   0.240  11.591  0.0511  0.7262  1.7815
15025SOL    HW246517   1.304   0.234  11.638 -0.7724  2.1602 -0.3867
15026SOL     OW46518   4.480   6.873   8.160  0.1329 -0.2258 -0.1125
15026SOL    HW146519   4.537   6.805   8.196  2.1302  1.4928  0.2017
15026SOL    HW246520   4.432   6.907   8.235  1.3673  0.6753  0.3139
15027SOL     OW46521   5.973   1.807   4.181 -0.3202 -0.0021 -0.1169
15027SOL    HW146522   6.026   1.851   4.248 -1.7272  1.4091  0.1269
15027SOL    HW246523   5.889   1.793   4.224 -0.7783 -0.4119 -1.1409
15028SOL     OW46524   6.078   4.655  10.538  0.1917  0.2689  0.4701
15028SOL    HW146525   6.077   4.740  10.582 -0.8928  0.0622  0.8980
15028SOL    HW246526   6.116   4.595  10.603  0.0698  0.2566  0.5310
15029SOL     OW46527   7.664   5.789   8.236 -0.3007  0.6121  0.5088
15029SOL    HW146528   7.676   5.789   8.141 -1.4271 -1.6504  0.2956
15029SOL    HW246529   7.612   5.868   8.254  1.1916  1.8792 -0.5116
15030SOL     OW46530   4.444   7.266   1.069 -0.6116  0.3890  0.8292
15030SOL    HW146531   4.369   7.316   1.038  0.1457 -0.5896 -3.1903
15030SOL    HW246532   4.413   7.175   1.071  0.2670  0.0305 -0.4478
15031SOL     OW46533   7.613   7.066   2.203  0.3988  0.5194  0.0583
15031SOL    HW146534   7.548   7.095   2.266  1.7084  0.2126  1.6186
15031SOL    HW246535   7.690   7.044   2.256  1.9883  1.4087 -1.7306
15032SOL     OW46536   6.384   2.093   8.729  0.1841  0.4992 -0.1557
15032SOL    HW146537   6.459   2.061   8.778  1.4108 -1.4521 -3.0214
15032SOL    HW246538   6.309   2.052   8.771  1.2661 -1.9523 -0.4249
15033SOL     OW46539   1.074   2.779   1.332 -0.1163  0.3092 -0.0375
15033SOL    HW146540   1.120   2.817   1.257 -1.7648  0.3298 -1.0930
15033SOL    HW246541   1.129   2.801   1.407  2.6808 -1.4748 -1.3805
15034SOL     OW46542   0.629   2.132   0.501 -0.4819 -0.0010  0.3210
15034SOL    HW146543   0.667   2.058   0.454 -1.4015 -0.8832  0.9251
15034SOL    HW246544   0.697   2.159   0.563 -0.4534 -0.9040  0.6919
15035SOL     OW46545   6.308   0.807  10.272  0.0079  0.0780  0.0032
15035SOL    HW146546   6.360   0.887  10.285 -1.4546  1.1919 -0.7621
15035SOL    HW246547   6.294   0.803  10.177  0.8343 -1.6365 -0.0973
15036SOL     OW46548   0.754   3.884   4.642  0.1591  0.1781  0.1131
15036SOL    HW146549   0.717   3.885   4.731  1.3933  0.1821  0.6430
15036SOL    HW246550   0.847   3.903   4.655  0.3356  0.2511 -1.1976
15037SOL     OW46551   3.322   5.328   6.260  0.1418  0.4521  0.0144
15037SOL    HW146552   3.413   5.300   6.255  0.6650  2.0924 -0.3364
15037SOL    HW246553   3.275   5.252   6.296  1.6605 -0.3448  0.4018
15038SOL     OW46554   6.162   0.269   5.533  0.2875  0.7330 -0.2015
15038SOL    HW146555   6.172   0.345   5.477 -1.0441  0.7662 -0.4194
15038SOL    HW246556   6.094   0.216   5.491  0.0268  0.2321  0.8001
15039SOL     OW46557   1.138   3.551   3.107 -0.1405 -0.6344 -0.7010
15039SOL    HW146558   1.138   3.570   3.201  0.8511  2.5257 -1.2151
15039SOL    HW246559   1.231   3.553   3.083 -0.3313 -2.0693 -1.6892
15040SOL     OW46560   3.861   5.250   4.779  0.8010  0.0281 -1.0745
15040SOL    HW146561   3.831   5.300   4.855  1.7993 -0.1327 -0.5525
15040SOL    HW246562   3.846   5.159   4.803 -0.2045  0.0214 -1.6682
15041SOL     OW46563   3.015   3.716   1.322 -0.3015  0.0454  0.1167
15041SOL    HW146564   2.981   3.668   1.398 -0.9301 -2.0785 -1.3999
15041SOL    HW246565   2.937   3.749   1.278  0.1293  2.7187  1.1979
15042SOL     OW46566   1.921   5.494   2.710  0.0509 -0.2408  0.1912
15042SOL    HW146567   1.885   5.489   2.622  0.2147 -0.4703  0.1355
15042SOL    HW246568   1.845   5.487   2.768  0.0185 -0.8826  0.0789
15043SOL     OW46569   1.869   1.573   3.377 -0.0443 -0.4150 -0.1833
15043SOL    HW146570   1.932   1.560   3.448  0.1579  0.2066 -0.2451
15043SOL    HW246571   1.890   1.659   3.342 -0.2378 -0.6573 -0.9044
15044SOL     OW46572   6.738   7.257   0.918 -0.1676  0.6034 -0.5293
15044SOL    HW146573   6.756   7.323   0.985  0.5436 -0.5928  0.4951
15044SOL    HW246574   6.716   7.308   0.840 -3.3013  2.0770  1.1167
15045SOL     OW46575   2.849   0.846   2.598  0.0601  0.2228 -0.0649
15045SOL    HW146576   2.831   0.907   2.669 -1.5155 -0.2143 -0.0390
15045SOL    HW246577   2.913   0.890   2.543 -0.1592  1.3918  0.5855
15046SOL     OW46578   5.278   4.509   8.090 -0.8990  0.2003  0.1891
15046SOL    HW146579   5.345   4.554   8.142 -0.5991 -0.7654  0.6632
15046SOL    HW246580   5.212   4.481   8.153 -0.5942 -0.8753  0.0513
15047SOL     OW46581   1.237   2.817  11.495  0.4981 -0.1784 -0.1231
15047SOL    HW146582   1.250   2.825  11.590  0.5157  1.5745 -0.2553
15047SOL    HW246583   1.145   2.836  11.482  0.5327 -0.2571 -0.4817
15048SOL     OW46584   5.378   6.925   5.842 -0.2151  0.2959 -0.2601
15048SOL    HW146585   5.442   6.892   5.906  1.0137  2.9877  0.0332
15048SOL    HW246586   5.348   6.847   5.796  1.1587 -1.3945  1.5253
15049SOL     OW46587   7.796   2.219   7.265  0.2281 -0.0590  0.3215
15049SOL    HW146588   7.730   2.150   7.275  1.0648 -0.5820  3.0891
15049SOL    HW246589   7.836   2.227   7.352  3.4598  0.6194 -1.0783
15050SOL     OW46590   0.656   1.819   4.840 -0.3424  0.5059 -0.1259
15050SOL    HW146591   0.621   1.751   4.897  1.5989  1.7187  2.7174
15050SOL    HW246592   0.582   1.879   4.826 -1.0680 -0.2315  0.4494
15051SOL     OW46593   0.682   5.498   3.998 -0.2597 -0.1460 -0.1141
15051SOL    HW146594   0.630   5.424   3.968 -0.5601 -0.2777  0.7088
15051SOL    HW246595   0.684   5.558   3.923  0.0526 -1.0089 -0.8091
15052SOL     OW46596   0.772   7.545   9.151  0.1241 -0.5705 -0.1636
15052SOL    HW146597   0.718   7.511   9.222  0.5676 -2.0438 -0.4852
15052SOL    HW246598   0.835   7.475   9.133  0.5353  0.0896 -1.4547
15053SOL     OW46599   7.591   0.482  10.006 -0.3867  0.1187  0.2860
15053SOL    HW146600   7.534   0.429   9.949 -1.0306  0.7695  0.3141
15053SOL    HW246601   7.663   0.508   9.950  0.4402 -1.5431  0.5025
15054SOL     OW46602   2.405   6.623  11.540  0.2177 -0.1988 -0.1261
15054SOL    HW146603   2.388   6.635  11.447 -0.5998  1.6590  0.2152
15054SOL    HW246604   2.417   6.529  11.551 -1.3466 -0.6326 -1.8276
15055SOL     OW46605   5.274   7.628   1.875 -0.3521  0.1673 -0.3308
15055SOL    HW146606   5.320   7.578   1.808 -2.2738  0.3223 -1.8769
15055SOL    HW246607   5.340   7.686   1.912  0.9675 -0.5462 -1.4622
15056SOL     OW46608   1.612   5.622   5.320  0.3276 -0.3110 -0.1695
15056SOL    HW146609   1.558   5.610   5.242  0.6384  1.4861 -0.7048
15056SOL    HW246610   1.555   5.669   5.382  0.9258  0.7408 -0.3820
15057SOL     OW46611   5.423   7.023   6.896  0.0709 -0.2766  0.4558
15057SOL    HW146612   5.480   7.055   6.826  2.1374 -2.4944  1.0077
15057SOL    HW246613   5.471   6.951   6.936 -3.5424 -3.0557  0.3180
15058SOL     OW46614   0.585   0.143   8.195 -0.1765 -0.0102 -0.5673
15058SOL    HW146615   0.580   0.205   8.267  0.8669 -0.4873 -0.0729
15058SOL    HW246616   0.662   0.170   8.145 -0.5568 -0.0376 -1.1880
15059SOL     OW46617   0.957   4.368   2.892  0.0556  0.1197  0.3773
15059SOL    HW146618   0.976   4.407   2.978  0.3454  1.2792 -0.1950
15059SOL    HW246619   0.996   4.428   2.829 -1.9872  0.4213 -0.6766
15060SOL     OW46620   1.154   5.974   7.850  0.5393 -0.1522  0.0956
15060SOL    HW146621   1.248   5.959   7.837  0.9445  0.1018  2.3840
15060SOL    HW246622   1.150   6.036   7.922 -1.4128 -0.3018  0.1516
15061SOL     OW46623   1.600   4.407   5.010  0.3695  0.0518 -0.2597
15061SOL    HW146624   1.650   4.450   4.941  1.2751 -1.4767 -0.6039
15061SOL    HW246625   1.525   4.370   4.965  0.3268  0.0774 -0.2091
15062SOL     OW46626   3.896   7.694   2.524  0.2229  0.0755  0.3211
15062SOL    HW146627   3.961   7.645   2.573 -0.5383 -1.1834  0.1155
15062SOL    HW246628   3.817   7.640   2.528 -1.0572  1.8787  1.1904
15063SOL     OW46629   7.225   2.290  12.123 -0.1580 -0.7265 -0.1519
15063SOL    HW146630   7.213   2.280  12.029  1.3328  0.4412 -0.5173
15063SOL    HW246631   7.147   2.338  12.153  1.0464  2.3414 -1.5275
15064SOL     OW46632   4.165   6.477   4.367 -0.3205 -0.2495 -0.5461
15064SOL    HW146633   4.206   6.393   4.344 -0.1030 -0.1791 -0.4216
15064SOL    HW246634   4.105   6.495   4.295  1.3560  0.6507 -1.7852
15065SOL     OW46635   3.225   3.429   9.236  0.0804 -0.5013  0.9360
15065SOL    HW146636   3.175   3.348   9.246 -1.1964 -0.0132 -0.8862
15065SOL    HW246637   3.159   3.495   9.215  1.2880  0.5953  0.4768
15066SOL     OW46638   7.170   1.170  11.003 -0.5026  0.1399 -0.5162
15066SOL    HW146639   7.145   1.083  10.972 -1.5027  0.3077 -0.2064
15066SOL    HW246640   7.090   1.221  10.999 -0.6418  0.2483  2.0550
15067SOL     OW46641   0.679   3.224   1.693 -0.0271  0.3586 -0.0379
15067SOL    HW146642   0.752   3.268   1.737  0.2991  0.2299 -0.4448
15067SOL    HW246643   0.719   3.150   1.648 -0.3127  0.6473 -0.7740
15068SOL     OW46644   0.589   4.814  12.297 -0.1552 -0.5091 -0.7299
15068SOL    HW146645   0.597   4.756  12.373 -2.8563 -1.1367 -0.7995
15068SOL    HW246646   0.534   4.886  12.328  1.0188  0.6901 -1.3660
15069SOL     OW46647   1.169   5.963   3.098 -0.5488  0.6370 -0.6526
15069SOL    HW146648   1.093   6.021   3.092  0.6636  2.1483 -2.1741
15069SOL    HW246649   1.151   5.894   3.033 -0.7796  0.7844 -0.7467
15070SOL     OW46650   6.632   6.092   2.617  0.5090  0.1847 -0.1549
15070SOL    HW146651   6.591   6.012   2.584 -0.0014  0.6484 -0.6724
15070SOL    HW246652   6.673   6.066   2.699 -0.2302 -0.4534  0.0214
15071SOL     OW46653   1.004   5.654   6.362  0.0563  0.1052 -0.2962
15071SOL    HW146654   1.026   5.638   6.454  0.4832 -0.1406 -0.4398
15071SOL    HW246655   1.088   5.675   6.320  0.0029 -0.7172 -0.8247
15072SOL     OW46656   3.319   0.823   7.841  0.2606 -0.3284  0.5766
15072SOL    HW146657   3.250   0.872   7.885  0.6624 -0.6546  1.6157
15072SOL    HW246658   3.286   0.808   7.753  0.2242  1.9943  0.1303
15073SOL     OW46659   3.855   4.699   4.443 -0.1565 -0.2394  0.3348
15073SOL    HW146660   3.824   4.642   4.513  0.9182 -0.9630  0.2447
15073SOL    HW246661   3.810   4.669   4.365  0.9467 -1.4828  0.1461
15074SOL     OW46662   0.704   0.769   1.261  0.0703  0.5173  0.1577
15074SOL    HW146663   0.768   0.831   1.225 -0.6964  0.9692 -0.4425
15074SOL    HW246664   0.623   0.788   1.215 -0.4414 -0.2393  0.7191
15075SOL     OW46665   1.525   3.205   1.009 -0.0650 -0.7716 -0.1000
15075SOL    HW146666   1.448   3.261   1.004 -1.1372 -1.9003  2.3868
15075SOL    HW246667   1.585   3.242   0.944 -2.0194  1.1448 -0.9467
15076SOL     OW46668   7.856   2.787   0.127  0.1531 -0.3837  0.0155
15076SOL    HW146669   7.817   2.720   0.183 -0.4115 -1.6110 -1.7416
15076SOL    HW246670   7.938   2.747   0.096  1.9293  1.3973  2.1306
15077SOL     OW46671   7.403   2.046  10.726  0.6958  0.1502  0.8919
15077SOL    HW146672   7.410   2.112  10.657 -0.3988 -2.2066 -1.6531
15077SOL    HW246673   7.309   2.026  10.731  1.1733 -3.2668 -0.6643
15078SOL     OW46674   4.305   0.354   4.689 -0.0396  0.3454 -0.8552
15078SOL    HW146675   4.237   0.422   4.689  1.2145  1.7013  0.9802
15078SOL    HW246676   4.314   0.330   4.782 -0.1918 -2.1252 -1.4202
15079SOL     OW46677   0.001   6.201   5.864  0.3046 -0.0912  0.0079
15079SOL    HW146678  -0.021   6.226   5.774 -2.1995 -0.1739  0.5208
15079SOL    HW246679   0.033   6.281   5.904  0.3518  0.2291 -0.6514
15080SOL     OW46680   4.663   5.796   6.594  0.2439 -0.1573  0.0032
15080SOL    HW146681   4.675   5.713   6.548 -0.2702 -0.0782 -0.2762
15080SOL    HW246682   4.683   5.863   6.528 -0.4694 -0.0435 -0.0958
15081SOL     OW46683   6.294   2.317   5.846  0.0275  0.2577 -0.1365
15081SOL    HW146684   6.259   2.245   5.794 -1.5416  1.5881 -1.0178
15081SOL    HW246685   6.258   2.304   5.934 -0.5547  0.1460 -0.3862
15082SOL     OW46686   7.010   7.291   1.871 -0.2405  0.1821  0.0186
15082SOL    HW146687   7.025   7.286   1.965  0.0466  1.5746  0.0626
15082SOL    HW246688   7.001   7.200   1.843  0.8431 -0.3083  1.1987
15083SOL     OW46689   3.630   6.346   6.190  0.1148  0.2015  0.6269
15083SOL    HW146690   3.673   6.262   6.209  2.0067  0.7563 -0.8793
15083SOL    HW246691   3.697   6.411   6.208 -0.9738  1.3237  0.7072
15084SOL     OW46692   5.896   5.311   8.650 -0.2224  0.6628 -0.5381
15084SOL    HW146693   5.849   5.350   8.724 -0.7311 -0.6818 -0.1106
15084SOL    HW246694   5.916   5.222   8.680 -1.2694 -0.2347 -2.3443
15085SOL     OW46695   6.477   4.892   3.543  0.0007  0.0610 -0.2643
15085SOL    HW146696   6.489   4.826   3.610 -0.0560 -0.8538 -1.1389
15085SOL    HW246697   6.563   4.900   3.501 -0.0769  0.3018 -0.3844
15086SOL     OW46698   4.234   6.458   3.107  0.4162  0.7359  0.2936
15086SOL    HW146699   4.155   6.407   3.125  0.6558  0.1199 -0.3554
15086SOL    HW246700   4.295   6.395   3.068  0.3496  1.7250 -1.5202
15087SOL     OW46701   6.236   1.273   5.638  0.7041  0.1524  0.0637
15087SOL    HW146702   6.181   1.254   5.562  1.0427  0.0071 -0.1468
15087SOL    HW246703   6.215   1.203   5.700  0.0712  0.5421  0.3018
15088SOL     OW46704   3.276   1.335  12.248  0.0952  0.1514  0.4693
15088SOL    HW146705   3.283   1.248  12.209 -2.6476  0.5959 -1.3594
15088SOL    HW246706   3.222   1.322  12.326 -1.6444  0.3245 -0.6457
15089SOL     OW46707   1.680   2.280   2.738  0.4612 -0.3015  0.2111
15089SOL    HW146708   1.652   2.222   2.666 -0.8650 -0.3629  0.7498
15089SOL    HW246709   1.697   2.221   2.811 -0.3321 -0.0708  0.5902
15090SOL     OW46710   2.940   3.025   6.552 -0.3661 -0.1823  0.6138
15090SOL    HW146711   2.859   2.975   6.549 -0.3845 -0.1168 -1.3657
15090SOL    HW246712   2.968   3.020   6.643 -2.1557 -0.8846  1.1747
15091SOL     OW46713   0.634   7.890  12.400  0.2389 -0.2823 -0.6075
15091SOL    HW146714   0.583   7.962  12.436  2.3047  0.3404  1.2589
15091SOL    HW246715   0.588   7.866  12.320 -0.7335  2.8529 -1.1087
15092SOL     OW46716   6.425   7.436   2.770 -0.1932  0.7134 -1.2188
15092SOL    HW146717   6.360   7.422   2.701 -1.0265  0.8893 -0.4799
15092SOL    HW246718   6.391   7.389   2.846  1.6591 -1.1115 -1.4259
15093SOL     OW46719   2.015   7.859   4.163  0.5511  0.2968 -0.0510
15093SOL    HW146720   2.001   7.944   4.203  2.9011 -0.3398  2.4296
15093SOL    HW246721   2.084   7.875   4.098 -1.3260  0.8142 -2.0101
15094SOL     OW46722   1.629   0.620   3.788 -0.2452 -0.4629  0.0022
15094SOL    HW146723   1.616   0.650   3.698  0.7554 -0.3063 -0.1077
15094SOL    HW246724   1.581   0.683   3.841  0.4786  0.3904 -0.3346
15095SOL     OW46725   0.232   5.508   1.161 -0.4207 -0.6105  0.2009
15095SOL    HW146726   0.251   5.451   1.087 -0.5746 -0.4401  0.0285
15095SOL    HW246727   0.153   5.556   1.135  0.6160  0.8874 -0.3613
15096SOL     OW46728   4.297   4.832   3.765  0.2937 -0.3040 -0.4914
15096SOL    HW146729   4.333   4.744   3.775  0.1285 -0.2904  0.2712
15096SOL    HW246730   4.288   4.844   3.671 -0.8305 -1.5714 -0.5683
15097SOL     OW46731   0.898   5.496   0.509  0.3920 -0.0350  0.2829
15097SOL    HW146732   0.863   5.585   0.511 -2.7070 -1.1354  2.5229
15097SOL    HW246733   0.931   5.481   0.597  1.7199 -0.8408 -0.3249
15098SOL     OW46734   3.614   1.701   8.841 -0.4438 -0.4103  0.3126
15098SOL    HW146735   3.616   1.787   8.801  0.3266 -0.1204  0.9463
15098SOL    HW246736   3.643   1.716   8.931 -0.3926 -1.3127  0.4541
15099SOL     OW46737   1.842   1.990   5.759  0.2833  0.1232 -0.0440
15099SOL    HW146738   1.830   2.027   5.672 -0.0848  0.1217  0.0070
15099SOL    HW246739   1.798   1.905   5.756 -2.1880  1.2829  0.9691
15100SOL     OW46740   2.829   1.154   4.363 -0.6261  0.0138 -0.0296
15100SOL    HW146741   2.747   1.114   4.393 -1.7010  1.5665 -0.7188
15100SOL    HW246742   2.898   1.107   4.409 -1.9705 -0.6895  1.3319
15101SOL     OW46743   1.839   7.460   9.307  0.5543  0.3283  0.3635
15101SOL    HW146744   1.905   7.438   9.372  0.1875  0.2955  0.7327
15101SOL    HW246745   1.845   7.555   9.296  0.4630  0.3619  0.6125
15102SOL     OW46746   4.527   4.807   8.458 -0.4575  0.3235  0.1272
15102SOL    HW146747   4.596   4.869   8.481 -1.7890  1.5292  1.0330
15102SOL    HW246748   4.564   4.756   8.386  1.7556  0.2107  1.2281
15103SOL     OW46749   2.694   1.681   2.056 -0.3750  0.0120  0.7163
15103SOL    HW146750   2.639   1.715   1.986  0.2194 -1.7240 -0.6449
15103SOL    HW246751   2.750   1.755   2.080 -0.6078  0.6547 -0.6302
15104SOL     OW46752   0.193   2.290   6.097 -0.4673  0.0932  0.2166
15104SOL    HW146753   0.117   2.344   6.121 -0.8477 -0.6506  0.7546
15104SOL    HW246754   0.268   2.337   6.133 -0.6406  0.9527 -0.5099
15105SOL     OW46755   1.875   1.061   6.789  0.4520  0.0076 -0.3458
15105SOL    HW146756   1.920   1.125   6.733  2.0246 -0.1767  0.6285
15105SOL    HW246757   1.936   0.987   6.793 -0.8549 -1.1198 -0.5642
15106SOL     OW46758   1.665   2.788   3.641  0.2850 -0.0779 -0.3348
15106SOL    HW146759   1.697   2.818   3.726  0.2124 -1.3632  0.1629
15106SOL    HW246760   1.743   2.758   3.595  0.3368  0.6986 -0.7756
15107SOL     OW46761   0.135   1.490   1.126  0.3213 -0.0302  0.2302
15107SOL    HW146762   0.198   1.444   1.180 -0.8351 -1.0763  0.7406
15107SOL    HW246763   0.072   1.526   1.189 -0.2066  0.0392 -0.3306
15108SOL     OW46764   6.283   0.033   2.829  0.0200  0.4389  0.3101
15108SOL    HW146765   6.371  -0.005   2.836 -0.4711 -0.5539  1.5841
15108SOL    HW246766   6.258   0.051   2.920 -1.9686 -1.4021  0.1930
15109SOL     OW46767   0.428   7.894   3.677 -0.1383 -0.6113  0.1197
15109SOL    HW146768   0.427   7.957   3.605  3.2604 -1.0461 -0.4370
15109SOL    HW246769   0.361   7.829   3.653 -0.6893  0.4875 -1.4505
15110SOL     OW46770   0.098   5.160   8.832  0.4718  0.1548 -0.4059
15110SOL    HW146771   0.090   5.065   8.841  1.5858 -0.0172 -1.1069
15110SOL    HW246772   0.115   5.192   8.920 -2.8222  0.0569  0.3892
15111SOL     OW46773   1.886   4.580   8.820  0.3084 -0.2601  0.5471
15111SOL    HW146774   1.868   4.622   8.735  1.9480 -1.0753 -0.2357
15111SOL    HW246775   1.817   4.514   8.828 -0.8268  0.8916  0.6441
15112SOL     OW46776   6.982   2.159   7.651  0.1936  0.4066  0.2646
15112SOL    HW146777   7.055   2.149   7.711  0.6456 -0.2479 -0.3842
15112SOL    HW246778   6.908   2.117   7.696  0.7135 -0.7827  0.0407
15113SOL     OW46779   2.436   6.324  11.222 -0.1920  0.1691 -0.0953
15113SOL    HW146780   2.460   6.322  11.314  0.2176 -1.2279 -0.1988
15113SOL    HW246781   2.399   6.411  11.208  0.9340  0.8605  1.0672
15114SOL     OW46782   6.453   4.962   5.301 -0.4524  0.0151  0.4540
15114SOL    HW146783   6.428   5.023   5.371  0.0358  0.7938 -0.0389
15114SOL    HW246784   6.503   5.015   5.240  0.7320 -1.0870  0.4418
15115SOL     OW46785   1.803   1.934  11.514 -0.7482 -0.4964 -0.3957
15115SOL    HW146786   1.878   1.920  11.573 -0.0413 -1.3322 -1.4407
15115SOL    HW246787   1.841   1.928  11.427 -1.8728  0.1581 -0.9421
15116SOL     OW46788   3.380   0.481   2.154  0.6478 -0.5088 -0.5454
15116SOL    HW146789   3.388   0.556   2.213  1.3224 -1.0422  0.0580
15116SOL    HW246790   3.436   0.502   2.080 -0.7039  0.4547 -1.3376
15117SOL     OW46791   1.253   4.416   1.174  0.0073  0.0778  0.5124
15117SOL    HW146792   1.259   4.333   1.128  0.1138 -0.0688  0.7897
15117SOL    HW246793   1.316   4.408   1.246  0.9625  0.8655 -0.1950
15118SOL     OW46794   4.342   6.106   3.707 -0.4353  0.1178 -0.1253
15118SOL    HW146795   4.388   6.082   3.626  1.2289  0.0373  0.7989
15118SOL    HW246796   4.392   6.181   3.740 -1.4132  0.4727  0.5738
15119SOL     OW46797   7.211   4.313   3.766  0.0981  0.5428 -0.2559
15119SOL    HW146798   7.198   4.327   3.672  1.1612  2.2388 -0.1980
15119SOL    HW246799   7.272   4.382   3.792  0.9730 -0.7958  1.4075
15120SOL     OW46800   5.635   2.294   2.294 -0.3245  0.2037  0.1965
15120SOL    HW146801   5.625   2.327   2.383  0.0495  1.5616 -0.2514
15120SOL    HW246802   5.655   2.201   2.306 -0.5624  0.2956  1.5126
15121SOL     OW46803   5.631   4.782   1.226 -0.4287 -0.2938 -0.3128
15121SOL    HW146804   5.672   4.774   1.140 -0.7036 -1.6767 -0.3365
15121SOL    HW246805   5.559   4.719   1.224  0.2619 -1.1926  1.3196
15122SOL     OW46806   1.525   2.244   4.517  0.3115 -0.4602 -0.2525
15122SOL    HW146807   1.510   2.181   4.447  1.8730  0.6671 -1.6655
15122SOL    HW246808   1.516   2.193   4.597  1.3869 -2.4631 -1.3389
15123SOL     OW46809   2.458   3.840   1.375 -0.3959  0.1207  0.1705
15123SOL    HW146810   2.458   3.749   1.406  1.3077  0.4305  1.1958
15123SOL    HW246811   2.534   3.880   1.418 -0.1781  1.6111 -1.4981
15124SOL     OW46812   7.025   4.344   8.583  0.3368 -0.0416  0.4330
15124SOL    HW146813   7.083   4.410   8.546 -0.5570  0.5937  0.1361
15124SOL    HW246814   6.994   4.382   8.665 -2.3648  1.2085 -1.0183
15125SOL     OW46815   2.446   2.973  10.327 -0.0587 -0.2402  0.2789
15125SOL    HW146816   2.505   3.047  10.313 -0.2795  0.0063  0.6628
15125SOL    HW246817   2.465   2.943  10.415  0.4108 -0.9838 -0.0669
15126SOL     OW46818   7.569   2.630  11.826  0.2420 -0.2352  0.1689
15126SOL    HW146819   7.495   2.638  11.886 -0.1023  0.8440 -0.3633
15126SOL    HW246820   7.529   2.626  11.739  0.7933  0.6913 -0.1496
15127SOL     OW46821   3.211   0.261   8.957  0.0221 -0.0204 -0.1830
15127SOL    HW146822   3.288   0.204   8.961  0.9919  1.2705  2.1579
15127SOL    HW246823   3.198   0.277   8.864  2.3926 -0.5877 -0.6915
15128SOL     OW46824   3.605   4.554   7.943  0.3203  0.0685  0.3624
15128SOL    HW146825   3.510   4.563   7.943  0.4883  2.4312  0.3751
15128SOL    HW246826   3.625   4.513   8.028 -0.7195 -1.6236 -0.1657
15129SOL     OW46827   7.115   3.416  10.306 -0.3598 -0.2057  0.3314
15129SOL    HW146828   7.079   3.328  10.307 -1.3870  0.1751 -0.6779
15129SOL    HW246829   7.178   3.417  10.378 -0.0956 -1.8434  0.1628
15130SOL     OW46830   1.431   3.349   4.584  0.3572  0.3107 -0.1162
15130SOL    HW146831   1.345   3.307   4.594  0.3504  0.0649 -1.1293
15130SOL    HW246832   1.492   3.289   4.628  0.2622 -0.4621 -1.0246
15131SOL     OW46833   1.627   6.312   5.096 -0.1751  0.3472  0.1365
15131SOL    HW146834   1.599   6.287   5.008 -2.6398 -0.9931  1.1896
15131SOL    HW246835   1.656   6.403   5.087 -0.5383  0.3068 -2.0094
15132SOL     OW46836   0.357   3.771   9.135  0.7394 -0.0177 -0.1545
15132SOL    HW146837   0.296   3.768   9.209 -0.1385 -1.8544 -0.8881
15132SOL    HW246838   0.350   3.860   9.101 -1.4944 -0.1559 -0.1605
15133SOL     OW46839   4.897   0.403   8.970  0.3995 -0.6671 -0.4721
15133SOL    HW146840   4.976   0.453   8.947  0.6107  0.8695  2.9448
15133SOL    HW246841   4.858   0.453   9.042 -2.7110 -2.3990 -0.8048
15134SOL     OW46842   2.758   6.369   6.450 -0.0747  0.1522  0.4190
15134SOL    HW146843   2.805   6.389   6.369 -0.2251  0.2166  0.3482
15134SOL    HW246844   2.712   6.287   6.431 -0.2719  0.2750  0.3737
15135SOL     OW46845   4.872   1.689   8.677  0.0961 -0.1098 -0.7476
15135SOL    HW146846   4.827   1.750   8.619  0.5900 -0.6612 -1.7519
15135SOL    HW246847   4.933   1.642   8.619  1.6634  0.3274  0.4705
15136SOL     OW46848   6.928   0.839  11.467  0.2105 -0.1273 -0.7928
15136SOL    HW146849   6.896   0.926  11.444 -0.0459  0.7756  2.5683
15136SOL    HW246850   6.864   0.779  11.427 -2.3042  1.4287  0.6239
15137SOL     OW46851   7.005   6.687   1.501  0.0600  0.0575 -0.4304
15137SOL    HW146852   6.914   6.715   1.503 -0.0385 -0.2974  0.2172
15137SOL    HW246853   7.038   6.706   1.589  0.0053 -1.7971  0.0228
15138SOL     OW46854   4.224   1.293   6.172 -0.4122  0.5601 -0.7650
15138SOL    HW146855   4.313   1.289   6.207 -0.5633 -0.8021 -0.4850
15138SOL    HW246856   4.223   1.373   6.118  0.9934  0.5561 -0.8319
15139SOL     OW46857   6.876   5.839   2.421  0.2033  0.2483 -0.2515
15139SOL    HW146858   6.791   5.878   2.398 -1.3871 -2.2049  0.9753
15139SOL    HW246859   6.932   5.859   2.346 -0.5398  4.2897  0.0636
15140SOL     OW46860   7.690   5.650  12.188  0.1634 -0.2394  0.0317
15140SOL    HW146861   7.627   5.708  12.230  0.7013  0.4850 -0.1123
15140SOL    HW246862   7.773   5.700  12.191 -0.0000  0.3980 -2.8881
15141SOL     OW46863   3.698   0.310  11.749 -0.3897 -0.1907 -0.1404
15141SOL    HW146864   3.626   0.261  11.789 -0.0220  0.6106  1.5681
15141SOL    HW246865   3.656   0.384  11.707 -0.7797 -1.0455 -1.3250
15142SOL     OW46866   4.199   7.504  10.265  0.0394 -0.4916 -0.0867
15142SOL    HW146867   4.263   7.576  10.267 -0.2323 -0.2533  0.2087
15142SOL    HW246868   4.186   7.483  10.357  2.1679 -2.7667 -0.1986
15143SOL     OW46869   6.779   4.907   1.172 -0.3008  0.2798  0.3332
15143SOL    HW146870   6.834   4.841   1.132 -0.6629 -0.1605  0.5478
15143SOL    HW246871   6.831   4.941   1.245 -0.7061 -0.8965  1.2046
15144SOL     OW46872   2.517   3.878   1.696  0.0041 -0.1314 -0.2155
15144SOL    HW146873   2.577   3.888   1.622  0.3314 -1.1858 -0.1069
15144SOL    HW246874   2.571   3.893   1.774 -0.3908  1.2181 -0.1693
15145SOL     OW46875   5.846   1.172   5.013  0.2095 -0.2270 -0.0588
15145SOL    HW146876   5.855   1.086   5.056  0.1721 -0.1928  0.0171
15145SOL    HW246877   5.787   1.155   4.939  1.2929 -0.5680 -0.8783
15146SOL     OW46878   0.828   6.263   8.150  0.2045  0.2554  0.7675
15146SOL    HW146879   0.898   6.320   8.117  0.1777 -0.0305  0.2044
15146SOL    HW246880   0.871   6.208   8.216  0.6951 -0.4140 -0.0794
15147SOL     OW46881   0.034   1.416   4.941 -0.4610 -0.3873  0.2583
15147SOL    HW146882   0.042   1.337   4.994  1.8734 -0.4116 -0.0343
15147SOL    HW246883   0.059   1.389   4.853 -0.7656  0.4410 -0.0944
15148SOL     OW46884   7.287   0.322   9.398 -0.6430  0.0180 -0.1177
15148SOL    HW146885   7.194   0.343   9.387 -1.1065 -1.7911  0.1137
15148SOL    HW246886   7.333   0.397   9.360 -2.1912  0.5911 -0.9350
15149SOL     OW46887   0.156   4.323   8.964 -0.3773 -0.1037  0.3639
15149SOL    HW146888   0.217   4.382   9.009  1.0811 -1.2013 -0.0979
15149SOL    HW246889   0.104   4.284   9.034 -0.8755  1.1598  0.7319
15150SOL     OW46890   7.363   2.725   6.547  0.3084  0.0256  0.4317
15150SOL    HW146891   7.308   2.648   6.536 -0.1458  0.3525  0.3848
15150SOL    HW246892   7.406   2.712   6.632 -0.3456  0.0717  0.7836
15151SOL     OW46893   7.071   1.896   1.932  0.5271  0.1177  0.3591
15151SOL    HW146894   7.026   1.958   1.874 -0.1571 -0.0617  0.6911
15151SOL    HW246895   7.094   1.948   2.009  0.0372 -0.0138  0.5970
15152SOL     OW46896   3.462   6.083  11.823  0.2530  0.2561 -0.0298
15152SOL    HW146897   3.447   6.167  11.780 -0.0191 -0.3110 -1.0646
15152SOL    HW246898   3.509   6.031  11.758  0.7700 -0.2671  0.7444
15153SOL     OW46899   2.484   0.813   8.478 -0.5113  0.6593  0.1352
15153SOL    HW146900   2.495   0.869   8.555  0.7792 -2.0585  2.0949
15153SOL    HW246901   2.409   0.757   8.499 -1.3024  1.0840 -1.4295
15154SOL     OW46902   4.611   1.245   1.588 -0.0192 -0.8179  0.6448
15154SOL    HW146903   4.699   1.249   1.624  1.0490  0.8597 -1.8893
15154SOL    HW246904   4.558   1.298   1.647  1.3593  0.7593  0.5280
15155SOL     OW46905   3.874   6.550  10.337 -0.4319  0.6654  0.5761
15155SOL    HW146906   3.920   6.529  10.256 -1.0807  0.8027  0.1642
15155SOL    HW246907   3.892   6.476  10.395  0.9169  1.0709  0.6976
15156SOL     OW46908   3.984   7.982   9.537 -0.4775 -0.4202 -0.1238
15156SOL    HW146909   4.024   8.004   9.621  0.1429  2.3325 -1.0301
15156SOL    HW246910   3.891   8.003   9.548 -0.2730  0.6235 -0.3070
15157SOL     OW46911   6.412   2.309  12.275  0.6953  0.1495 -0.2008
15157SOL    HW146912   6.479   2.369  12.241  1.2277 -0.3684 -0.0683
15157SOL    HW246913   6.460   2.232  12.304  0.0008 -0.4045 -0.4802
15158SOL     OW46914   5.759   5.617   9.036 -0.0587 -0.4034  0.9185
15158SOL    HW146915   5.680   5.569   9.011  1.2536 -1.1367 -2.4211
15158SOL    HW246916   5.752   5.700   8.988  0.9713 -0.2831  0.9590
15159SOL     OW46917   0.455   7.843   5.810  0.4996 -0.1509 -0.0218
15159SOL    HW146918   0.364   7.855   5.784  0.7731  0.4677 -0.7557
15159SOL    HW246919   0.451   7.793   5.891 -0.4422 -1.4523 -0.8229
15160SOL     OW46920   0.542   6.450   7.064  0.0660 -0.5398 -0.2838
15160SOL    HW146921   0.549   6.376   7.124 -0.2612 -0.5950 -0.3138
15160SOL    HW246922   0.535   6.526   7.122 -0.6911 -0.6309 -0.2420
15161SOL     OW46923   7.892   1.969   4.235 -0.0771 -0.4580  0.0588
15161SOL    HW146924   7.805   1.979   4.274  0.4526 -1.7127  1.6208
15161SOL    HW246925   7.926   1.887   4.270  2.7011  1.1137  1.3732
15162SOL     OW46926   3.520   5.996   2.101 -0.6554  0.1701 -0.5214
15162SOL    HW146927   3.527   6.080   2.057  0.3435 -0.8484 -2.4041
15162SOL    HW246928   3.570   6.007   2.182  1.4800  0.6975 -1.8536
15163SOL     OW46929   3.769   2.939   9.226 -0.0064 -0.0738  0.5824
15163SOL    HW146930   3.761   3.017   9.170  0.2045 -0.2015  0.3788
15163SOL    HW246931   3.856   2.946   9.265 -0.3182  0.2567  1.2588
15164SOL     OW46932   6.364   3.449   0.159 -0.2934 -0.0230  0.0809
15164SOL    HW146933   6.417   3.386   0.207 -1.6868 -0.0482  1.6667
15164SOL    HW246934   6.307   3.396   0.103  0.1495 -0.0651 -0.3328
15165SOL     OW46935   1.881   0.769   7.251 -0.3047  0.0767  0.0436
15165SOL    HW146936   1.938   0.761   7.175 -1.2764  0.9658 -0.8142
15165SOL    HW246937   1.795   0.740   7.220 -0.1721 -2.2497  1.5878
15166SOL     OW46938   4.493   7.446   9.993  0.2451 -0.0260 -0.3046
15166SOL    HW146939   4.479   7.367   9.941  2.2051 -0.1716 -0.6928
15166SOL    HW246940   4.452   7.516   9.942 -1.6530 -0.7627  0.1234
15167SOL     OW46941   4.751   7.727  12.072  0.4597  0.1584 -0.5469
15167SOL    HW146942   4.692   7.656  12.099 -0.5974  0.5797 -1.6519
15167SOL    HW246943   4.696   7.805  12.068  1.2861  0.7521 -0.7723
15168SOL     OW46944   3.651   6.245   2.241 -0.3200 -0.4387 -0.3675
15168SOL    HW146945   3.723   6.277   2.296 -1.1332  0.9571 -0.0628
15168SOL    HW246946   3.593   6.321   2.231 -1.9047 -1.5917 -0.3547
15169SOL     OW46947   7.157   5.653   9.422 -0.0520 -0.0206 -0.2526
15169SOL    HW146948   7.192   5.741   9.436  0.5679 -0.0464 -1.5023
15169SOL    HW246949   7.181   5.604   9.500  0.5164  0.6391 -0.0077
15170SOL     OW46950   1.503   2.997   6.760  0.3536  0.0541 -0.4803
15170SOL    HW146951   1.513   2.964   6.670  0.9223 -1.2671  0.0355
15170SOL    HW246952   1.569   2.949   6.810  0.2045  0.9525  0.6030
15171SOL     OW46953   0.388   2.389  10.083 -0.5815  0.6872  0.2382
15171SOL    HW146954   0.363   2.425  10.169  0.8205  0.7759  0.6492
15171SOL    HW246955   0.306   2.377  10.037 -1.2864  2.0730  1.0397
15172SOL     OW46956   3.090   3.267   7.752  1.2071  0.1793 -0.1011
15172SOL    HW146957   3.162   3.205   7.743  0.5639 -0.8688  1.5450
15172SOL    HW246958   3.113   3.339   7.692  1.4480 -2.0603 -2.9109
15173SOL     OW46959   5.009   7.833   0.089  0.4132  0.0037  0.0740
15173SOL    HW146960   4.958   7.836   0.008 -0.4378  1.1884  0.6163
15173SOL    HW246961   4.949   7.798   0.154  0.9156 -0.4052  0.3275
15174SOL     OW46962   2.912   6.175   8.085 -0.2882 -0.7498 -0.2836
15174SOL    HW146963   2.836   6.174   8.027  0.3033  0.6262 -1.1094
15174SOL    HW246964   2.979   6.126   8.037 -0.5688 -1.8298  0.3778
15175SOL     OW46965   2.877   4.735   7.682 -0.1080 -0.2724  0.0758
15175SOL    HW146966   2.857   4.715   7.591  1.1918 -2.0927  0.1340
15175SOL    HW246967   2.954   4.792   7.677 -1.0787  1.0986  0.0390
15176SOL     OW46968   2.611   1.392   9.471 -0.2944 -0.6368  0.1177
15176SOL    HW146969   2.701   1.362   9.469 -0.1050 -0.0669 -0.3037
15176SOL    HW246970   2.568   1.336   9.535  0.5297 -0.4365  0.8634
15177SOL     OW46971   1.181   1.907   8.634  0.1851  0.2303 -0.0911
15177SOL    HW146972   1.275   1.904   8.647 -0.1908 -0.8868  3.2113
15177SOL    HW246973   1.144   1.912   8.722 -2.8796  0.0373 -1.2325
15178SOL     OW46974   6.671   3.306   5.147 -0.5408  0.0642  0.5013
15178SOL    HW146975   6.670   3.213   5.124  0.2725 -0.0195  0.7899
15178SOL    HW246976   6.717   3.310   5.231 -0.3896  0.7466  0.3940
15179SOL     OW46977   1.729   1.401   5.953  0.0941 -0.0716  0.8934
15179SOL    HW146978   1.799   1.357   5.905 -0.3237  0.6041 -0.4043
15179SOL    HW246979   1.648   1.372   5.910 -0.2540  1.0018  0.7774
15180SOL     OW46980   6.473   7.463   6.958  0.0270 -0.5786 -0.1812
15180SOL    HW146981   6.399   7.440   7.014 -1.1362  0.1405 -1.3877
15180SOL    HW246982   6.466   7.557   6.945  0.1308 -0.7597 -1.7176
15181SOL     OW46983   4.810   7.729   8.036 -0.0532  0.1495 -0.2531
15181SOL    HW146984   4.877   7.682   7.987  2.4515 -0.1778  3.1253
15181SOL    HW246985   4.834   7.821   8.027 -0.9191  0.2747 -1.3865
15182SOL     OW46986   3.315   0.187   4.161  0.2431  0.4259  0.4349
15182SOL    HW146987   3.378   0.172   4.091  0.0473  0.1090  0.3253
15182SOL    HW246988   3.261   0.108   4.163  1.2415 -0.2500  1.9877
15183SOL     OW46989   3.974   7.684   8.187  0.2547 -0.0724  0.5300
15183SOL    HW146990   3.925   7.736   8.123  0.0017  0.0415  0.8120
15183SOL    HW246991   3.992   7.744   8.259  1.6357  0.1428  0.0311
15184SOL     OW46992   2.025   2.055   1.332  0.0033  0.0017  0.2053
15184SOL    HW146993   1.999   1.980   1.387 -0.6014 -0.2885 -0.4638
15184SOL    HW246994   2.085   2.105   1.387 -1.8188  0.6015  1.7559
15185SOL     OW46995   5.011   4.205   1.346 -0.5844 -0.1671 -0.4497
15185SOL    HW146996   4.963   4.194   1.428  1.3784  2.6086  1.2975
15185SOL    HW246997   5.086   4.146   1.354  0.0469  0.6818  0.2439
15186SOL     OW46998   3.106   7.273   2.607  0.2207  0.9375  0.2410
15186SOL    HW146999   3.012   7.265   2.626  0.2802 -1.4666 -0.1487
15186SOL    HW247000   3.111   7.278   2.512  0.5555 -1.3302  0.1039
15187SOL     OW47001   0.855   1.716   1.358  0.3123 -0.7553  0.5206
15187SOL    HW147002   0.770   1.760   1.353  0.9884  0.5703  0.2584
15187SOL    HW247003   0.836   1.631   1.398 -1.0328 -0.2259  1.0620
15188SOL     OW47004   4.835   1.945   9.711 -0.5639 -0.0772  0.1087
15188SOL    HW147005   4.928   1.926   9.704 -0.4877  0.3947 -0.1735
15188SOL    HW247006   4.794   1.859   9.718 -0.3337 -0.4628 -2.4780
15189SOL     OW47007   4.149   4.620   8.597 -0.2625 -0.1753  0.2029
15189SOL    HW147008   4.221   4.674   8.629 -0.5141  0.1748  0.1866
15189SOL    HW247009   4.191   4.552   8.544 -0.0016  0.5676 -0.5543
15190SOL     OW47010   4.080   7.046   7.067 -0.2626  0.0800 -0.4750
15190SOL    HW147011   4.101   7.136   7.094 -0.7987 -0.0896  0.5504
15190SOL    HW247012   4.104   6.992   7.143  0.8126 -0.7570 -1.3753
15191SOL     OW47013   1.232   1.198  10.979  0.2523 -0.5816 -0.0341
15191SOL    HW147014   1.302   1.152  11.026 -0.2518 -0.4064  0.8987
15191SOL    HW247015   1.236   1.287  11.012 -0.5453 -0.6209  0.1810
15192SOL     OW47016   3.410   5.480   8.007 -0.5766 -0.2155  0.0584
15192SOL    HW147017   3.443   5.530   8.082  0.8906 -0.6772 -0.2483
15192SOL    HW247018   3.463   5.400   8.006 -0.9224 -0.4499 -1.1718
15193SOL     OW47019   5.739   1.271   7.935  0.1405  0.1770  0.2209
15193SOL    HW147020   5.654   1.293   7.974 -0.1212  0.9392 -0.7428
15193SOL    HW247021   5.773   1.355   7.903 -0.6220 -0.6439 -3.0913
15194SOL     OW47022   3.639   2.978   3.779 -0.3018  0.1681 -0.1828
15194SOL    HW147023   3.553   2.992   3.741 -0.1066  1.0203 -0.3269
15194SOL    HW247024   3.694   3.048   3.741  0.0208  0.7252  1.2585
15195SOL     OW47025   0.546   5.668   4.740 -0.1234 -0.5151  0.0584
15195SOL    HW147026   0.552   5.721   4.660 -2.8530 -0.2057 -0.0448
15195SOL    HW247027   0.552   5.578   4.709 -1.1172 -0.3950 -0.5318
15196SOL     OW47028   2.744   6.387   6.733 -0.1831  0.4660  0.4661
15196SOL    HW147029   2.801   6.310   6.740  1.2544  1.4844  0.4110
15196SOL    HW247030   2.723   6.393   6.640 -0.9860 -0.3101  0.5821
15197SOL     OW47031   1.864   4.249   3.764  0.2183 -0.1179  0.3795
15197SOL    HW147032   1.944   4.227   3.811 -0.0324  0.6230  1.1778
15197SOL    HW247033   1.891   4.256   3.673  0.6409 -1.9192  0.3307
15198SOL     OW47034   5.090   3.355  11.715  0.0709 -0.3183  0.1469
15198SOL    HW147035   5.007   3.314  11.692  0.7797 -1.3812 -0.6135
15198SOL    HW247036   5.077   3.448  11.697 -1.4998 -0.1925  1.6958
15199SOL     OW47037   3.261   6.021   4.477  0.3922  0.1752 -0.2199
15199SOL    HW147038   3.315   6.096   4.504 -0.2376  0.4304  0.3650
15199SOL    HW247039   3.202   6.056   4.411  0.7912 -0.0502 -0.6954
15200SOL     OW47040   5.737   1.808  10.656  0.0508  0.0318  0.6900
15200SOL    HW147041   5.662   1.825  10.599  0.3750  0.2488  0.3138
15200SOL    HW247042   5.803   1.872  10.627  0.6910 -0.7393  0.4201
15201SOL     OW47043   3.148   4.237   0.588  0.1060  0.0988  0.1688
15201SOL    HW147044   3.117   4.269   0.503  0.0454 -1.4858 -0.4381
15201SOL    HW247045   3.151   4.142   0.578  2.4706  0.0013  1.1302
15202SOL     OW47046   1.889   6.129  10.284 -0.2859 -0.2803  0.5882
15202SOL    HW147047   1.942   6.193  10.331  0.0481  1.0851 -1.5617
15202SOL    HW247048   1.951   6.078  10.232 -0.9205  0.5617 -1.0530
15203SOL     OW47049   2.914   5.333   9.263  0.2974  0.1616 -0.1289
15203SOL    HW147050   2.939   5.331   9.170 -3.4066  0.0883 -1.2617
15203SOL    HW247051   2.920   5.426   9.287  0.6619  0.2607 -0.5838
15204SOL     OW47052   0.034   2.816   2.996 -0.2328 -0.7481  0.1616
15204SOL    HW147053   0.104   2.795   3.058  0.4044 -1.1195 -0.6524
15204SOL    HW247054   0.076   2.807   2.910 -1.4076 -1.4057 -0.3591
15205SOL     OW47055   2.568   6.362   5.813  0.0419 -0.3001 -0.0652
15205SOL    HW147056   2.590   6.295   5.749  1.0397  0.3565 -0.4258
15205SOL    HW247057   2.652   6.394   5.846 -0.4312  0.1768  0.7347
15206SOL     OW47058   4.358   2.046   2.231 -0.9992  0.5006 -0.1606
15206SOL    HW147059   4.450   2.021   2.237 -1.1289  0.1024  0.2344
15206SOL    HW247060   4.322   1.990   2.163 -1.2202 -0.1870  0.5135
15207SOL     OW47061   4.407   5.675   9.122 -0.2325 -0.6419 -0.1154
15207SOL    HW147062   4.427   5.685   9.029  1.2195 -0.9713  0.1297
15207SOL    HW247063   4.342   5.605   9.124 -1.0515  0.0654 -0.9381
15208SOL     OW47064   5.464   7.518   3.643  0.1263 -0.0556 -0.6714
15208SOL    HW147065   5.492   7.533   3.734 -1.2700 -1.8574  0.1180
15208SOL    HW247066   5.413   7.595   3.620  0.5067  0.4285  0.0594
15209SOL     OW47067   3.124   1.059   2.704  0.1022  0.2847  0.1345
15209SOL    HW147068   3.127   1.056   2.799 -2.4715  0.6453  0.2923
15209SOL    HW247069   3.176   1.136   2.680 -0.4065  1.0218  1.3472
15210SOL     OW47070   6.185   7.191   5.099  0.0005 -0.3625  0.2702
15210SOL    HW147071   6.101   7.179   5.142  0.4990 -1.2005  1.0476
15210SOL    HW247072   6.192   7.285   5.085  0.1389  0.0476  2.7166
15211SOL     OW47073   4.059   6.797   7.714 -0.4111 -0.1126  0.1161
15211SOL    HW147074   4.011   6.872   7.750 -1.3019 -0.9524  0.7453
15211SOL    HW247075   4.135   6.787   7.771  0.5820  1.2556 -0.9094
15212SOL     OW47076   4.055   7.846   5.973  0.3443 -0.5946  0.2002
15212SOL    HW147077   4.041   7.888   5.888  0.8433 -1.8169 -0.5201
15212SOL    HW247078   4.021   7.909   6.037  0.2563  0.4919 -0.8749
15213SOL     OW47079   1.671   6.254  11.808  0.2077  0.2154 -0.8183
15213SOL    HW147080   1.590   6.262  11.859 -0.1064  0.0901 -1.2927
15213SOL    HW247081   1.642   6.232  11.720  0.7686 -0.0028 -0.9540
15214SOL     OW47082   7.106   0.233   3.903 -0.2909 -0.0074 -0.2031
15214SOL    HW147083   7.045   0.229   3.829 -0.8215 -1.1118  0.2789
15214SOL    HW247084   7.149   0.148   3.905 -2.0720 -0.9794  2.2101
15215SOL     OW47085   4.837   1.474   9.514  0.2345 -0.2127  0.0702
15215SOL    HW147086   4.745   1.452   9.497  0.0082  0.4682  0.3374
15215SOL    HW247087   4.857   1.542   9.449  0.4677 -0.1816  0.1753
15216SOL     OW47088   5.664   2.801   7.943  0.3604  0.3312 -0.7622
15216SOL    HW147089   5.701   2.712   7.951 -0.3503  0.0065 -1.0881
15216SOL    HW247090   5.573   2.787   7.918  0.4821  1.1812 -1.7139
15217SOL     OW47091   2.341   6.369   1.155  0.0986  0.5280 -0.4057
15217SOL    HW147092   2.338   6.341   1.063  1.7634  0.7953 -0.5744
15217SOL    HW247093   2.249   6.376   1.181 -0.4109  0.6184 -2.0974
15218SOL     OW47094   3.626   5.239   0.370 -0.2366 -0.0026  0.2469
15218SOL    HW147095   3.712   5.282   0.369  0.0104 -0.4804 -0.4578
15218SOL    HW247096   3.580   5.277   0.445 -0.0287  1.4677 -0.3459
15219SOL     OW47097   2.010   5.312   0.667  0.3915 -0.0248  0.1991
15219SOL    HW147098   1.969   5.240   0.620 -3.1571  0.7780  1.7631
15219SOL    HW247099   2.046   5.369   0.599 -0.0576 -1.3969 -1.2303
15220SOL     OW47100   0.173   6.535   4.877 -0.1388 -0.1075 -0.6861
15220SOL    HW147101   0.181   6.535   4.972 -1.0895 -1.4351 -0.5727
15220SOL    HW247102   0.223   6.458   4.849 -1.3119 -0.7534 -1.0778
15221SOL     OW47103   0.749   3.034   8.118 -0.1428 -0.2282  0.2762
15221SOL    HW147104   0.809   3.000   8.184  1.5135 -1.1798 -1.5917
15221SOL    HW247105   0.698   2.958   8.091  0.9092 -0.4747 -1.1956
15222SOL     OW47106   7.649   4.805  11.174  0.1106 -0.0837 -0.3115
15222SOL    HW147107   7.697   4.865  11.116 -1.0711  1.2830  0.0660
15222SOL    HW247108   7.715   4.743  11.204  1.1018  0.1976 -1.7959
15223SOL     OW47109   2.239   0.186   5.801  0.4643  0.7754 -0.2040
15223SOL    HW147110   2.322   0.188   5.848  0.1072  1.0332  0.4253
15223SOL    HW247111   2.183   0.247   5.849 -0.5329 -0.4134  0.1968
15224SOL     OW47112   6.968   0.861   6.131  0.5607  0.0982 -0.0478
15224SOL    HW147113   7.027   0.794   6.097  0.3262 -0.4467  0.6125
15224SOL    HW247114   6.880   0.830   6.108 -0.0276 -2.4849  4.5255
15225SOL     OW47115   7.329   5.940   6.931 -0.8394 -0.8384  0.3541
15225SOL    HW147116   7.252   5.975   6.886 -1.6159 -0.5392  1.8478
15225SOL    HW247117   7.403   5.971   6.880 -1.5469  2.0145  0.8988
15226SOL     OW47118   3.795   4.613   0.115 -0.1722 -0.0557 -0.6321
15226SOL    HW147119   3.748   4.687   0.076 -0.2811 -1.0776 -2.5547
15226SOL    HW247120   3.740   4.586   0.189  1.5458  3.8547  2.4650
15227SOL     OW47121   1.401   2.384   2.808  0.5405 -0.4367 -0.1154
15227SOL    HW147122   1.396   2.381   2.903  1.3199  1.2401  0.0209
15227SOL    HW247123   1.472   2.324   2.786 -0.3308 -1.6333  0.2537
15228SOL     OW47124   6.170   7.070   2.600 -0.3653 -0.5986  0.1244
15228SOL    HW147125   6.200   7.055   2.690  1.1324  2.5720  0.3019
15228SOL    HW247126   6.074   7.069   2.606 -0.2907 -1.6980  1.4818
15229SOL     OW47127   2.990   5.396   6.261  0.6343  0.7504 -0.1240
15229SOL    HW147128   2.901   5.361   6.268  0.9796 -0.5195 -1.4863
15229SOL    HW247129   2.986   5.481   6.305 -1.0762  0.4276  0.4222
15230SOL     OW47130   7.200   5.796   3.795  0.3356  0.4857  0.6282
15230SOL    HW147131   7.281   5.751   3.770  0.2998  0.2105  0.9868
15230SOL    HW247132   7.171   5.839   3.715  1.0222  0.8764  0.5764
15231SOL     OW47133   2.374   6.737   0.519  0.3916 -0.3146 -0.0885
15231SOL    HW147134   2.328   6.720   0.602  0.6963  0.8104  0.3256
15231SOL    HW247135   2.370   6.653   0.473 -0.4309 -0.7613  0.7413
15232SOL     OW47136   1.994   4.102   7.357 -0.0468 -0.7207 -0.2125
15232SOL    HW147137   1.929   4.167   7.383  0.0925 -0.8579  0.4842
15232SOL    HW247138   1.946   4.020   7.354 -0.0442 -0.7187 -0.3149
15233SOL     OW47139   4.782   0.463   6.572  0.3447  0.4527  0.5350
15233SOL    HW147140   4.776   0.526   6.501 -0.1899  0.4025  0.5342
15233SOL    HW247141   4.694   0.425   6.578  1.4811 -3.2525 -2.1744
15234SOL     OW47142   2.068   6.152   7.770  0.1332 -0.4266  0.7344
15234SOL    HW147143   2.074   6.230   7.825 -1.4360  0.4544 -0.2548
15234SOL    HW247144   1.996   6.102   7.807  0.9434 -1.2995  1.1836
15235SOL     OW47145   6.344   4.426   8.565 -0.1812 -0.1011 -0.1878
15235SOL    HW147146   6.314   4.341   8.599  0.5405 -0.0328  0.6610
15235SOL    HW247147   6.274   4.487   8.586 -1.4368 -0.7541 -2.2275
15236SOL     OW47148   6.196   2.668   4.628  0.3487  0.2546 -0.5083
15236SOL    HW147149   6.240   2.700   4.549  2.5503 -1.4062 -0.0664
15236SOL    HW247150   6.165   2.580   4.604 -1.9278  0.9973 -0.4783
15237SOL     OW47151   0.885   4.101  10.321 -0.2523 -0.1435 -0.3392
15237SOL    HW147152   0.956   4.166  10.318 -1.1468  0.8715 -0.2205
15237SOL    HW247153   0.930   4.017  10.325  0.9546  0.5166  0.9945
15238SOL     OW47154   1.111   6.236   2.940  0.5057  0.4428 -0.0625
15238SOL    HW147155   1.048   6.177   2.982  0.3603  0.6063 -0.0490
15238SOL    HW247156   1.185   6.239   3.000  0.4064  0.4723  0.0581
15239SOL     OW47157   7.877   5.537   8.441  0.0082  0.6033 -0.2120
15239SOL    HW147158   7.881   5.447   8.409  1.0374 -0.1280  1.7804
15239SOL    HW247159   7.957   5.578   8.408  0.5781  0.1432  0.5561
15240SOL     OW47160   4.626   1.258   0.515  0.2355  0.2641 -0.3548
15240SOL    HW147161   4.569   1.207   0.458 -0.9415  0.6831  0.3957
15240SOL    HW247162   4.619   1.348   0.483  0.0877  0.3941  0.0265
15241SOL     OW47163   1.865   3.273   9.153 -0.2754 -0.0635  0.3361
15241SOL    HW147164   1.852   3.229   9.237 -0.6318 -0.6517 -0.0239
15241SOL    HW247165   1.781   3.313   9.133 -0.5014 -0.8147 -0.2453
15242SOL     OW47166   3.004   5.080   1.190  0.7826  0.5653 -0.6082
15242SOL    HW147167   2.918   5.065   1.150  0.3400 -0.9120  0.8454
15242SOL    HW247168   2.988   5.144   1.259  1.1005  1.1918 -1.0942
15243SOL     OW47169   6.561   2.966   3.626 -0.1567 -0.5048 -0.8810
15243SOL    HW147170   6.570   3.061   3.612 -1.2474 -0.4227 -1.1117
15243SOL    HW247171   6.647   2.939   3.657  0.0592  0.6317 -0.4247
15244SOL     OW47172   1.858   1.389   4.798  0.0530  0.2233  0.4282
15244SOL    HW147173   1.802   1.320   4.762  1.2460 -0.8028  0.4861
15244SOL    HW247174   1.901   1.348   4.873 -1.5716  1.9941  2.4409
15245SOL     OW47175   0.114   2.367   8.773  0.4245 -0.5358  0.1945
15245SOL    HW147176   0.043   2.353   8.836  0.3191 -1.6788 -0.1640
15245SOL    HW247177   0.193   2.337   8.818  0.9362  1.9086  1.0750
15246SOL     OW47178   3.059   5.295   3.739 -0.3440  0.0968 -0.2397
15246SOL    HW147179   3.018   5.362   3.794  0.4988  0.0035  0.5324
15246SOL    HW247180   3.003   5.218   3.748 -0.3818  0.1791  0.2411
15247SOL     OW47181   4.112   4.501   3.803 -0.0723  0.0625 -0.8063
15247SOL    HW147182   4.130   4.498   3.897  1.0821  0.0813 -1.0206
15247SOL    HW247183   4.041   4.565   3.795  0.6188  0.9558 -0.0627
15248SOL     OW47184   0.449   1.032   9.642  0.3643 -0.5407 -0.1749
15248SOL    HW147185   0.486   0.991   9.565  0.8417  0.6611 -0.6032
15248SOL    HW247186   0.496   1.115   9.651 -0.6913  0.0114  0.5478
15249SOL     OW47187   7.244   0.232   1.003  0.0855 -0.2012 -0.1406
15249SOL    HW147188   7.243   0.323   1.031  3.0830  0.3124 -1.2682
15249SOL    HW247189   7.324   0.224   0.950  0.1898 -3.6047  0.2890
15250SOL     OW47190   6.047   0.742   7.043 -0.0252  0.4077 -0.4440
15250SOL    HW147191   6.121   0.781   7.089 -0.1219  1.2045 -0.9487
15250SOL    HW247192   6.086   0.671   6.992  0.1736 -0.0768  0.3624
15251SOL     OW47193   2.672   1.019   5.123  0.3484  0.1364 -0.2424
15251SOL    HW147194   2.690   1.057   5.209 -0.1220 -0.0739 -0.0430
15251SOL    HW247195   2.752   0.971   5.101  0.8207  0.9653 -0.3539
15252SOL     OW47196   3.734   1.419   2.706 -0.1975  0.1932 -0.2488
15252SOL    HW147197   3.675   1.490   2.731  0.1450  0.5824 -0.5178
15252SOL    HW247198   3.678   1.353   2.665 -0.3342  0.9807 -1.3786
15253SOL     OW47199   1.598   7.904  10.966  0.1805  0.0267  0.1130
15253SOL    HW147200   1.587   7.993  10.998  0.9281 -0.5598  2.1411
15253SOL    HW247201   1.648   7.913  10.885 -0.7432  1.4941 -0.3359
15254SOL     OW47202   0.879   2.573   8.934  0.2422 -0.4523 -0.5389
15254SOL    HW147203   0.886   2.510   8.863  0.7023  0.6940 -1.5415
15254SOL    HW247204   0.897   2.522   9.013  0.0365 -1.6838 -1.2657
15255SOL     OW47205   1.639   2.317   6.740 -0.1664  0.1598 -0.8168
15255SOL    HW147206   1.585   2.395   6.743 -0.3214  0.0217  0.6331
15255SOL    HW247207   1.600   2.263   6.672 -0.9265  0.7199 -0.8305
15256SOL     OW47208   6.789   1.285  11.762  0.2333 -0.3419  0.2566
15256SOL    HW147209   6.797   1.208  11.706 -0.1596  0.2587 -0.6461
15256SOL    HW247210   6.695   1.297  11.773  0.2727  0.4162 -0.1841
15257SOL     OW47211   1.637   1.423   1.804  0.1602  0.3261 -0.0066
15257SOL    HW147212   1.598   1.449   1.721 -1.0213 -0.5408  0.2616
15257SOL    HW247213   1.647   1.328   1.798  2.1277  0.4827 -0.0019
15258SOL     OW47214   6.238   4.550  11.903  0.3540  0.3066 -0.1058
15258SOL    HW147215   6.192   4.482  11.855  0.6509  1.5493 -2.2499
15258SOL    HW247216   6.170   4.611  11.931  0.4559  1.2312 -1.7638
15259SOL     OW47217   3.677   2.662  10.010 -0.1449 -0.3060 -0.3274
15259SOL    HW147218   3.678   2.700  10.098  0.1997 -0.8742 -0.0818
15259SOL    HW247219   3.585   2.666   9.984 -0.1045  0.8451 -0.3854
15260SOL     OW47220   2.602   5.560   2.358 -0.1567  0.4050  0.0010
15260SOL    HW147221   2.569   5.470   2.367  1.3283 -0.4164 -1.9700
15260SOL    HW247222   2.655   5.574   2.437  1.3916 -1.3339 -0.6571
15261SOL     OW47223   6.254   3.195   6.413 -0.3244  0.1673 -0.1021
15261SOL    HW147224   6.193   3.227   6.346  0.7303 -0.6840 -1.5507
15261SOL    HW247225   6.254   3.100   6.400  0.6285  0.0822  0.4607
15262SOL     OW47226   7.553   3.403   3.892 -0.2508  0.0152  0.0770
15262SOL    HW147227   7.472   3.352   3.897 -0.2507 -0.0639 -0.5816
15262SOL    HW247228   7.531   3.487   3.931  0.0018 -0.7809  2.0247
15263SOL     OW47229   2.876   2.671   1.211 -0.1048  0.0883 -0.1682
15263SOL    HW147230   2.932   2.729   1.263 -0.8861  1.4441 -0.7869
15263SOL    HW247231   2.897   2.692   1.120  0.7323 -1.7615 -0.4443
15264SOL     OW47232   2.147   4.869   6.155 -0.1780  0.5292 -0.4809
15264SOL    HW147233   2.195   4.844   6.076  0.6839  0.8977 -0.0858
15264SOL    HW247234   2.201   4.838   6.227 -1.1818 -0.2095 -0.0289
15265SOL     OW47235   0.589   5.770  11.794 -0.1196 -0.0270 -0.6293
15265SOL    HW147236   0.607   5.700  11.856  0.7438 -0.9660 -1.8776
15265SOL    HW247237   0.609   5.850  11.842  1.5510 -0.7742 -0.0036
15266SOL     OW47238   3.533   2.327   9.488 -0.2938  0.1981  0.0669
15266SOL    HW147239   3.478   2.392   9.446  0.8857  1.9280  1.0875
15266SOL    HW247240   3.498   2.318   9.576 -0.2707 -0.3598  0.0270
15267SOL     OW47241   7.820   5.178   8.723 -0.1116 -0.3046 -0.1117
15267SOL    HW147242   7.893   5.162   8.783 -1.0660 -1.3151  0.8123
15267SOL    HW247243   7.830   5.271   8.700  0.8669 -0.1462  0.8024
15268SOL     OW47244   5.552   6.754   6.969  0.4753  0.3276  0.6292
15268SOL    HW147245   5.547   6.659   6.959 -0.7849  0.4843 -0.5031
15268SOL    HW247246   5.516   6.771   7.056  1.0743 -0.2496  0.9976
15269SOL     OW47247   7.024   7.593   0.016 -0.5552 -0.2352 -0.1284
15269SOL    HW147248   7.017   7.640  -0.067 -1.1191  2.9356  1.5652
15269SOL    HW247249   6.941   7.611   0.061  1.2784  1.7492  2.7802
15270SOL     OW47250   7.694   4.081   9.405 -0.0963 -0.4334 -0.2440
15270SOL    HW147251   7.608   4.110   9.373 -0.0531 -0.5698 -0.4870
15270SOL    HW247252   7.708   3.997   9.362 -0.0836 -0.6704  0.2211
15271SOL     OW47253   4.975   6.800   8.599  0.4118 -0.1442  0.2210
15271SOL    HW147254   4.998   6.889   8.574  0.2553  0.4383  2.0025
15271SOL    HW247255   5.058   6.752   8.594  0.6251  0.2579 -0.1178
15272SOL     OW47256   4.490   1.318   3.422 -0.0898  0.0538 -0.7808
15272SOL    HW147257   4.559   1.353   3.478 -0.3235  0.5050 -0.7672
15272SOL    HW247258   4.420   1.384   3.426 -0.4733 -0.3381 -0.8855
15273SOL     OW47259   2.920   5.609   7.777 -0.4593 -0.1466  0.2728
15273SOL    HW147260   2.944   5.576   7.691  1.1043 -0.0864  0.6464
15273SOL    HW247261   2.996   5.588   7.832 -0.8793  0.9823  1.3199
15274SOL     OW47262   2.909   4.208  10.591 -0.1205  0.5045  0.7770
15274SOL    HW147263   2.882   4.120  10.618  1.6331  0.0656  1.1985
15274SOL    HW247264   2.953   4.243  10.668  0.2671  1.2899  0.1978
15275SOL     OW47265   4.885   0.800   2.048  0.3281  0.1478  0.1958
15275SOL    HW147266   4.968   0.845   2.034  0.7451 -0.6638 -0.0276
15275SOL    HW247267   4.884   0.730   1.982  0.9762 -1.9024  2.2258
15276SOL     OW47268   2.061   7.743   6.194  0.3205  0.3010 -0.5688
15276SOL    HW147269   1.968   7.732   6.212  0.6255 -0.0592  1.0030
15276SOL    HW247270   2.074   7.838   6.194  0.5580  0.4276  3.2467
15277SOL     OW47271   1.140   4.186  11.059 -0.7621 -0.4138 -0.0938
15277SOL    HW147272   1.151   4.091  11.057 -0.3987 -0.3598 -1.4375
15277SOL    HW247273   1.225   4.221  11.034 -0.9976  0.2666  0.0210
15278SOL     OW47274   1.677   2.276   1.754  0.4002  0.3590 -0.8371
15278SOL    HW147275   1.757   2.277   1.703  2.4508 -3.1874  1.8212
15278SOL    HW247276   1.705   2.293   1.844 -2.3247  1.8245 -0.1428
15279SOL     OW47277   7.558   3.219   1.211  0.0944 -0.2920 -0.3308
15279SOL    HW147278   7.635   3.266   1.244  0.1764 -0.8836  0.3370
15279SOL    HW247279   7.484   3.277   1.229  0.2496 -0.2247  0.0812
15280SOL     OW47280   2.881   0.790   9.737 -0.1937 -0.1381 -0.2451
15280SOL    HW147281   2.841   0.872   9.766 -1.3354 -0.5003 -0.7499
15280SOL    HW247282   2.861   0.727   9.807  0.9897  0.0797  0.3138
15281SOL     OW47283   3.566   4.876   0.220 -0.7678  0.0398  0.3269
15281SOL    HW147284   3.632   4.863   0.152 -0.5739 -0.9645  0.6923
15281SOL    HW247285   3.615   4.911   0.295 -0.3600 -2.0877  1.0996
15282SOL     OW47286   0.747   1.294   8.203 -0.7043  0.2055  0.5627
15282SOL    HW147287   0.707   1.268   8.120  1.5427 -1.0081 -0.2299
15282SOL    HW247288   0.754   1.212   8.253  1.8186  0.0669  0.1342
15283SOL     OW47289   5.404   3.543  11.991 -0.1246  0.0623 -0.3530
15283SOL    HW147290   5.312   3.553  12.015 -0.0571  1.4721 -0.6029
15283SOL    HW247291   5.445   3.626  12.014  1.0393 -0.4341 -0.5127
15284SOL     OW47292   0.944   4.102   6.230  0.1915 -0.2684  0.3322
15284SOL    HW147293   0.910   4.079   6.317  0.1299  0.7169  0.5818
15284SOL    HW247294   0.873   4.149   6.188  0.1592 -0.8938 -0.3361
15285SOL     OW47295   4.233   6.212   9.211 -0.2393 -0.0151  0.5769
15285SOL    HW147296   4.217   6.141   9.149 -0.3185 -0.7724  1.4375
15285SOL    HW247297   4.195   6.180   9.293 -1.6033  1.6354  0.6458
15286SOL     OW47298   5.459   7.095   2.568  0.3658  0.6180 -0.2584
15286SOL    HW147299   5.489   7.037   2.498 -2.7350  1.1037 -2.1461
15286SOL    HW247300   5.425   7.036   2.635 -0.0233  0.2031 -0.8144
15287SOL     OW47301   1.130   1.164  10.515  0.1177 -0.1169  0.1623
15287SOL    HW147302   1.108   1.201  10.430  0.0309  1.1087  0.7041
15287SOL    HW247303   1.050   1.172  10.566 -0.7182 -3.3241 -0.4036
15288SOL     OW47304   1.880   4.730  10.465 -0.1631 -0.4614  0.1519
15288SOL    HW147305   1.826   4.777  10.401  0.1263 -0.0489  0.2109
15288SOL    HW247306   1.897   4.645  10.424 -0.6933 -0.5230  0.0496
15289SOL     OW47307   1.906   7.229   7.072  0.2075 -0.2945 -0.5858
15289SOL    HW147308   1.890   7.309   7.022 -3.4118 -0.2316  0.4082
15289SOL    HW247309   1.904   7.258   7.164  0.3723 -1.3404 -0.2460
15290SOL     OW47310   5.216   2.964   9.409  0.1084 -0.1869  0.4034
15290SOL    HW147311   5.265   2.988   9.330  1.0056  0.4547  1.1383
15290SOL    HW247312   5.174   2.881   9.387  1.4312 -0.7037 -0.2839
15291SOL     OW47313   0.947   4.658   5.694  0.1840 -0.2965  0.6653
15291SOL    HW147314   0.968   4.749   5.715 -0.6592  0.1342 -0.2611
15291SOL    HW247315   0.940   4.657   5.599 -0.1993 -1.2438  0.6956
15292SOL     OW47316   1.432   5.914   1.581  0.2000  0.6215  0.0294
15292SOL    HW147317   1.394   5.851   1.520 -0.8255 -0.1156  1.3598
15292SOL    HW247318   1.413   5.877   1.668 -1.6123  3.3911  0.9243
15293SOL     OW47319   4.935   6.930   4.798 -0.9149 -0.1422  0.2352
15293SOL    HW147320   4.897   6.844   4.778  1.1345 -1.3018  1.0447
15293SOL    HW247321   4.903   6.951   4.886 -0.0963 -0.9081  0.7352
15294SOL     OW47322   1.293   6.378   2.553  0.1494  0.2495 -0.1399
15294SOL    HW147323   1.248   6.419   2.626 -0.6232  0.4099 -0.6983
15294SOL    HW247324   1.266   6.286   2.557 -0.3213  0.3669 -0.5369
15295SOL     OW47325   3.887   1.755   3.857 -0.1757  0.1917 -0.3072
15295SOL    HW147326   3.951   1.693   3.890 -0.6396 -0.6908 -1.0238
15295SOL    HW247327   3.802   1.714   3.874 -0.5317  1.0123 -0.0321
15296SOL     OW47328   4.404   7.102   4.831 -0.1900  0.6475  0.4651
15296SOL    HW147329   4.467   7.073   4.897  0.3908  2.4291  0.7520
15296SOL    HW247330   4.457   7.124   4.755 -0.5290  1.3932  0.4334
15297SOL     OW47331   0.599   6.505   7.429 -0.0244 -0.8696  0.4793
15297SOL    HW147332   0.558   6.434   7.380  0.2537 -1.2890  0.8469
15297SOL    HW247333   0.615   6.469   7.516  0.0731 -0.3394  0.6892
15298SOL     OW47334   1.029   7.250   5.275 -0.0281  0.3228 -0.4718
15298SOL    HW147335   1.109   7.298   5.255 -0.2491  1.0764  0.4017
15298SOL    HW247336   1.058   7.171   5.320  0.1506  1.6081  1.7927
15299SOL     OW47337   1.047   4.757   5.198  0.2073  0.0348  0.3240
15299SOL    HW147338   1.119   4.695   5.187  0.5790  0.7321 -1.4972
15299SOL    HW247339   1.074   4.812   5.272  0.6279 -0.9256  0.8969
15300SOL     OW47340   4.397   6.332  11.487 -0.0564  0.4309  0.2957
15300SOL    HW147341   4.336   6.373  11.426  0.2987  0.6811  0.1049
15300SOL    HW247342   4.391   6.238  11.468  1.7234  0.6532 -1.7208
15301SOL     OW47343   7.398   5.968   3.916  0.2397 -0.6588 -0.2527
15301SOL    HW147344   7.314   5.959   3.961  0.3797  0.2565  0.2039
15301SOL    HW247345   7.445   5.887   3.938  0.0030 -0.5750  0.6012
15302SOL     OW47346   6.075   5.081   7.416  0.2274  0.1586 -0.0531
15302SOL    HW147347   6.142   5.060   7.481  1.0447 -0.2795 -1.0004
15302SOL    HW247348   6.008   5.014   7.428 -0.7426  1.3768  1.7961
15303SOL     OW47349   0.743   5.271   1.964 -0.0624 -0.1747 -0.2517
15303SOL    HW147350   0.691   5.351   1.962 -1.1002 -0.8164  0.0560
15303SOL    HW247351   0.798   5.279   2.041 -0.8782 -0.1742  0.3422
15304SOL     OW47352   2.250   6.784   3.688  0.3494 -0.0028  0.3589
15304SOL    HW147353   2.325   6.724   3.694  0.5480  0.1339 -0.6030
15304SOL    HW247354   2.179   6.732   3.651  0.0668 -0.0444  0.9584
15305SOL     OW47355   7.809   3.321   9.455  0.0889  0.1974  0.5244
15305SOL    HW147356   7.754   3.371   9.395 -0.4193  0.1255  0.9138
15305SOL    HW247357   7.748   3.258   9.496  0.3579  0.4445  1.3248
15306SOL     OW47358   5.804   2.845   2.595 -0.6842 -0.0746 -0.1545
15306SOL    HW147359   5.790   2.821   2.687 -0.5983  0.2720 -0.0504
15306SOL    HW247360   5.802   2.761   2.548  1.2259 -0.4877  0.4036
15307SOL     OW47361   7.138   2.449   0.666 -0.0110 -1.1477  0.0118
15307SOL    HW147362   7.134   2.430   0.760  0.9316  1.1506  0.5854
15307SOL    HW247363   7.047   2.458   0.639 -0.3248 -2.5546  0.5147
15308SOL     OW47364   2.065   0.929   8.040  0.2560  0.0408  0.0178
15308SOL    HW147365   2.127   0.943   7.969  0.2589  0.5622  0.1181
15308SOL    HW247366   1.979   0.936   7.999  0.2574  0.3644  0.0602
15309SOL     OW47367   4.602   2.258  10.714 -0.1748  0.0409  0.0970
15309SOL    HW147368   4.631   2.174  10.678  1.3046  1.1655 -1.4741
15309SOL    HW247369   4.558   2.235  10.796  1.5519 -2.1320  0.4942
15310SOL     OW47370   5.921   3.412   4.790  0.3773  0.0634  0.5218
15310SOL    HW147371   5.989   3.352   4.760 -0.6951 -0.6961 -0.4617
15310SOL    HW247372   5.866   3.358   4.847 -0.2316  0.2787  0.1431
15311SOL     OW47373   3.694   0.292   5.853 -0.5298  0.1067 -0.0403
15311SOL    HW147374   3.632   0.364   5.846 -0.9211 -0.3603 -1.8500
15311SOL    HW247375   3.649   0.228   5.908  0.1860  1.5394  2.3531
15312SOL     OW47376   1.006   6.309   0.588  0.3937 -0.2977 -0.0819
15312SOL    HW147377   0.927   6.342   0.544 -1.0580 -2.3203  0.8802
15312SOL    HW247378   1.078   6.341   0.533 -1.1908 -0.2418 -2.2691
15313SOL     OW47379   1.504   2.472   4.865  0.7706 -0.2189  0.2150
15313SOL    HW147380   1.493   2.377   4.874 -0.1597  0.0286  2.0346
15313SOL    HW247381   1.595   2.488   4.890  0.2944 -0.4047  2.1563
15314SOL     OW47382   3.579   5.438   1.438 -0.1792 -0.0167  0.0497
15314SOL    HW147383   3.539   5.420   1.523  1.0102 -0.7004  0.4880
15314SOL    HW247384   3.638   5.512   1.455 -0.0631 -0.0495 -0.2091
15315SOL     OW47385   7.646   5.516   4.676  0.0358  0.2357 -0.3795
15315SOL    HW147386   7.585   5.443   4.668  1.6827 -1.0515 -2.0539
15315SOL    HW247387   7.677   5.512   4.767 -0.6680 -0.4934 -0.1626
15316SOL     OW47388   2.420   6.059   3.006  0.2059 -0.0989 -0.7907
15316SOL    HW147389   2.413   6.009   2.925  1.0642  0.0025 -0.9443
15316SOL    HW247390   2.513   6.084   3.010  0.1434  0.0226  0.1450
15317SOL     OW47391   0.658   2.402   1.080  0.3680  0.5295 -0.8824
15317SOL    HW147392   0.673   2.485   1.035  1.0700  0.1210 -1.4259
15317SOL    HW247393   0.618   2.346   1.013  3.0908 -0.6742 -1.6205
15318SOL     OW47394   1.428   2.541   9.685 -0.0788  0.2382  0.5939
15318SOL    HW147395   1.441   2.630   9.652  0.7168  0.6303  1.8730
15318SOL    HW247396   1.408   2.553   9.778 -0.2067 -0.9075  0.7294
15319SOL     OW47397   7.498   2.903   8.800 -0.2659  0.0742 -0.3685
15319SOL    HW147398   7.486   2.963   8.726  0.6101 -0.7503 -1.2043
15319SOL    HW247399   7.572   2.848   8.775 -0.2712 -0.5620  0.9139
15320SOL     OW47400   0.567   5.862  11.074  0.2368  0.4204  0.3446
15320SOL    HW147401   0.604   5.817  10.998  1.7467  1.8996  0.1674
15320SOL    HW247402   0.564   5.954  11.049 -0.8180  0.7313  1.4818
15321SOL     OW47403   3.292   3.265   3.729  0.2442 -0.4161  0.4325
15321SOL    HW147404   3.323   3.174   3.731 -0.7646 -0.7863 -0.1308
15321SOL    HW247405   3.368   3.316   3.701  0.9246 -1.0327  1.1000
15322SOL     OW47406   4.712   5.636   7.755  0.0779  0.1844 -0.5658
15322SOL    HW147407   4.723   5.707   7.818 -1.6948 -0.1080  0.1050
15322SOL    HW247408   4.661   5.675   7.684 -0.3568 -0.2356 -0.4903
15323SOL     OW47409   7.604   4.643   1.611 -0.8125  0.5657  0.3748
15323SOL    HW147410   7.687   4.663   1.656  1.0041 -1.7564 -1.6950
15323SOL    HW247411   7.609   4.691   1.529 -1.5895  0.5054  0.2856
15324SOL     OW47412   5.395   1.946   9.813  0.0318  0.6121 -0.0900
15324SOL    HW147413   5.358   1.923   9.899 -2.5631  0.6546 -1.1010
15324SOL    HW247414   5.440   1.866   9.785 -1.6058 -0.4394  0.1093
15325SOL     OW47415   2.460   6.236   8.288  0.0426  0.1674  0.0904
15325SOL    HW147416   2.518   6.227   8.212 -1.6359  0.0994 -1.2561
15325SOL    HW247417   2.468   6.152   8.334 -0.0523 -0.4029 -0.8912
15326SOL     OW47418   4.273   4.723  11.266 -0.3372  0.2762 -0.3213
15326SOL    HW147419   4.205   4.665  11.233  0.5594 -0.8800 -0.1866
15326SOL    HW247420   4.250   4.809  11.230 -1.3515 -0.2655 -1.0283
15327SOL     OW47421   0.854   2.209   6.745  0.2333  0.5330  0.7626
15327SOL    HW147422   0.797   2.285   6.734 -0.9078 -0.5307 -1.2477
15327SOL    HW247423   0.908   2.209   6.666  0.2833 -0.6734  0.7891
15328SOL     OW47424   2.180   6.224   2.972 -0.0369 -0.2523  0.1191
15328SOL    HW147425   2.152   6.137   2.946  0.6952 -0.7575  0.9382
15328SOL    HW247426   2.269   6.211   3.005  0.4032  0.9482 -0.5412
15329SOL     OW47427   6.504   1.736   5.820  0.8277  0.0935  0.1591
15329SOL    HW147428   6.498   1.640   5.821  3.0787 -0.1089 -1.2895
15329SOL    HW247429   6.418   1.764   5.787 -0.0058 -1.3592  0.9431
15330SOL     OW47430   3.778   0.471   7.911 -0.4660 -0.4641 -0.0951
15330SOL    HW147431   3.793   0.414   7.835 -1.3753 -1.8544  0.7173
15330SOL    HW247432   3.690   0.449   7.940  0.3813 -1.1136  2.2588
15331SOL     OW47433   3.099   0.212   2.503 -0.0712  0.5865 -0.4100
15331SOL    HW147434   3.155   0.265   2.559 -2.9942  1.3709  1.9978
15331SOL    HW247435   3.075   0.270   2.431 -1.1018  1.6827  0.7784
15332SOL     OW47436   2.383   0.814   9.161 -0.3934  0.3365 -0.6530
15332SOL    HW147437   2.351   0.845   9.076  2.5978  1.7357 -1.4134
15332SOL    HW247438   2.477   0.799   9.147 -0.3175 -2.1497  1.7042
15333SOL     OW47439   4.395   6.663   1.291 -0.7603 -0.2027  0.3648
15333SOL    HW147440   4.452   6.734   1.262 -1.8439  0.3592 -0.4271
15333SOL    HW247441   4.449   6.613   1.352 -0.5907  2.5166  2.6851
15334SOL     OW47442   6.791   4.408   4.878  0.3191 -0.5044 -0.2572
15334SOL    HW147443   6.717   4.462   4.851  0.0062  0.5541  2.3610
15334SOL    HW247444   6.808   4.434   4.969  2.2569 -2.5588  0.0753
15335SOL     OW47445   2.328   2.294   4.521 -0.0846 -0.5417 -0.1287
15335SOL    HW147446   2.271   2.367   4.497  0.5825  0.1537  0.3496
15335SOL    HW247447   2.410   2.311   4.474  0.7737  0.1102  1.5037
15336SOL     OW47448   6.915   3.254   9.899  0.5456  0.0152  0.2920
15336SOL    HW147449   6.839   3.290   9.855 -0.3523 -0.9919  0.9622
15336SOL    HW247450   6.978   3.237   9.829 -0.7372 -1.3119 -0.5856
15337SOL     OW47451   1.448   4.336  12.367 -0.5229 -0.6798 -0.7044
15337SOL    HW147452   1.421   4.370  12.452  1.2563  0.4363 -0.5522
15337SOL    HW247453   1.504   4.261  12.388  1.2555  0.5676 -0.7766
15338SOL     OW47454   5.779   2.843   6.717  0.1977  0.7193  0.0155
15338SOL    HW147455   5.793   2.754   6.750  1.7312  1.5116  1.6763
15338SOL    HW247456   5.770   2.896   6.796 -1.2400  1.9953 -0.9482
15339SOL     OW47457   2.035   4.694   5.943 -0.0038 -0.0362 -0.8985
15339SOL    HW147458   2.023   4.768   5.884  2.9705 -0.0164 -1.6241
15339SOL    HW247459   1.976   4.626   5.910 -1.6485  1.4605 -1.1344
15340SOL     OW47460   0.476   3.171   2.869  0.4056  0.0871  0.3661
15340SOL    HW147461   0.399   3.188   2.815  0.4507 -0.3366  0.1638
15340SOL    HW247462   0.550   3.200   2.816  0.4330 -0.1192  0.2901
15341SOL     OW47463   7.128   4.306   0.879  0.3180 -0.8291 -0.5916
15341SOL    HW147464   7.193   4.357   0.928  0.9270 -1.3077 -0.8897
15341SOL    HW247465   7.048   4.358   0.884  0.6548 -0.3616  0.0109
15342SOL     OW47466   5.517   2.948   4.705  0.1611 -0.9372 -1.0016
15342SOL    HW147467   5.423   2.928   4.706  0.1673 -0.9564 -0.7209
15342SOL    HW247468   5.559   2.865   4.684  0.1732 -1.1832 -0.0686
15343SOL     OW47469   5.671   7.508   5.684 -0.5651 -0.6838  0.2994
15343SOL    HW147470   5.581   7.487   5.710 -0.3896 -0.0812  1.4857
15343SOL    HW247471   5.725   7.446   5.734 -0.3191 -1.2682 -0.6619
15344SOL     OW47472   3.189   0.494   3.752  0.3487  0.1054 -0.1857
15344SOL    HW147473   3.264   0.448   3.789  1.7170  1.0697 -1.6261
15344SOL    HW247474   3.206   0.586   3.769 -0.7899  0.3158 -0.0752
15345SOL     OW47475   5.433   7.340   3.443  0.0679 -0.3656 -0.3600
15345SOL    HW147476   5.404   7.264   3.495 -0.2581 -0.8530 -1.2287
15345SOL    HW247477   5.457   7.405   3.508 -0.1746 -1.0196  0.4107
15346SOL     OW47478   2.772   0.949  11.663 -0.2827 -0.3563  0.0023
15346SOL    HW147479   2.763   1.019  11.598 -0.6947  0.5853  1.0415
15346SOL    HW247480   2.800   0.994  11.743 -0.3220 -1.4167  0.6257
15347SOL     OW47481   3.571   3.091   4.938 -0.4715  0.4813  0.2722
15347SOL    HW147482   3.518   3.170   4.948 -0.9409  0.1862  0.1213
15347SOL    HW247483   3.541   3.033   5.008  0.8887  0.9882  1.3212
15348SOL     OW47484   6.729   0.783   6.003 -0.2671  0.0295  0.4569
15348SOL    HW147485   6.666   0.728   6.049 -0.4374  0.5540  0.8622
15348SOL    HW247486   6.768   0.725   5.938 -2.3003  0.0641 -0.9130
15349SOL     OW47487   1.241   3.460   6.762  0.0502 -0.2585 -0.2426
15349SOL    HW147488   1.266   3.373   6.729 -1.3732  0.0086 -2.2235
15349SOL    HW247489   1.190   3.442   6.841 -0.5790 -1.2724 -0.8564
15350SOL     OW47490   6.960   6.921  11.079 -0.0100 -0.1239 -0.0784
15350SOL    HW147491   6.897   6.992  11.094 -0.6225 -0.2384 -1.8558
15350SOL    HW247492   6.968   6.916  10.984  0.2464 -2.2468  0.0066
15351SOL     OW47493   0.355   5.745   1.395  0.2744 -0.4025  0.2204
15351SOL    HW147494   0.262   5.767   1.395  0.6462  1.6655  2.7621
15351SOL    HW247495   0.369   5.698   1.478  1.1827 -2.5499 -1.0702
15352SOL     OW47496   4.129   7.431   4.846 -0.1893  0.3763 -0.2266
15352SOL    HW147497   4.076   7.511   4.851 -0.2146  0.3322  0.2740
15352SOL    HW247498   4.085   7.371   4.906  0.1490  0.1731 -0.1855
15353SOL     OW47499   4.039   1.560  11.766  0.0584 -0.1639 -0.6166
15353SOL    HW147500   4.097   1.497  11.722  0.1098  0.5669 -1.6306
15353SOL    HW247501   4.093   1.638  11.778 -0.3514  0.0989 -0.4485
15354SOL     OW47502   3.405   4.739   0.885 -0.1523  0.5300 -0.4488
15354SOL    HW147503   3.482   4.718   0.939 -1.9243 -1.8195  1.3766
15354SOL    HW247504   3.349   4.790   0.942 -0.8193  0.5310 -1.0931
15355SOL     OW47505   0.302   1.439   9.353 -0.2179  0.1998  0.2341
15355SOL    HW147506   0.276   1.425   9.444 -0.5222  0.6867  0.2270
15355SOL    HW247507   0.245   1.382   9.302  1.6664 -2.0597  0.4953
15356SOL     OW47508   0.180   7.270   5.433 -0.5423 -0.3944 -0.4201
15356SOL    HW147509   0.193   7.354   5.476 -2.0572 -0.4114  0.1145
15356SOL    HW247510   0.087   7.266   5.414 -0.0351 -0.5583 -3.3872
15357SOL     OW47511   3.913   4.843   2.266  0.0367 -0.7253  0.5974
15357SOL    HW147512   3.938   4.935   2.273 -0.3270 -0.4305 -1.3062
15357SOL    HW247513   3.874   4.821   2.350  0.5032  0.7458  1.2173
15358SOL     OW47514   1.201   4.903  10.288 -0.0631 -0.3309  0.2186
15358SOL    HW147515   1.161   4.928  10.205  2.0538  1.5852 -0.2943
15358SOL    HW247516   1.179   4.974  10.348 -0.9795 -1.3590  1.1719
15359SOL     OW47517   0.974   1.620   8.810 -0.0223 -0.4368 -0.3116
15359SOL    HW147518   0.926   1.540   8.832 -0.0853 -0.0039  1.2981
15359SOL    HW247519   1.063   1.591   8.792 -0.3122 -0.9854 -0.8775
15360SOL     OW47520   2.197   2.438   4.782 -0.2545 -0.1247  0.5498
15360SOL    HW147521   2.193   2.533   4.774 -1.3563 -0.3310 -2.2625
15360SOL    HW247522   2.265   2.411   4.721 -0.0818 -1.1801  1.1743
15361SOL     OW47523   4.721   3.205  10.957  0.3029  0.0741  0.1071
15361SOL    HW147524   4.727   3.270  10.886 -0.9614 -0.1533 -0.2377
15361SOL    HW247525   4.678   3.252  11.028 -0.5375 -0.3362 -0.1136
15362SOL     OW47526   7.752   6.193   6.110  0.0304  0.1128  0.9853
15362SOL    HW147527   7.763   6.106   6.148  0.1166 -0.6840 -0.7812
15362SOL    HW247528   7.666   6.222   6.143 -1.5921 -2.0694 -0.9770
15363SOL     OW47529   1.348   4.344   7.751  0.5628 -0.0201  0.2584
15363SOL    HW147530   1.277   4.347   7.687  2.1348  2.1425 -1.5496
15363SOL    HW247531   1.305   4.323   7.834 -1.7008 -1.9946 -1.2681
15364SOL     OW47532   5.788   1.584   5.328 -0.1606 -0.0589  0.7775
15364SOL    HW147533   5.778   1.554   5.419 -0.0782 -1.1573  0.4339
15364SOL    HW247534   5.789   1.504   5.276 -1.1977  0.6023 -0.3012
15365SOL     OW47535   2.016   2.669  11.937  0.1837  0.2749  0.2575
15365SOL    HW147536   2.021   2.626  11.851 -0.4198  1.1512 -0.2349
15365SOL    HW247537   1.947   2.733  11.927  1.9107  2.2852  0.5493
15366SOL     OW47538   2.219   6.276   7.541  0.4272  0.5785  0.2826
15366SOL    HW147539   2.175   6.327   7.609  2.8915  4.3932 -0.7307
15366SOL    HW247540   2.178   6.303   7.459  0.3610 -0.7342 -0.1435
15367SOL     OW47541   5.769   5.275   1.644 -0.1224 -0.1557 -0.3661
15367SOL    HW147542   5.834   5.324   1.694  1.0682 -1.0442 -0.9950
15367SOL    HW247543   5.752   5.329   1.567 -2.8718  1.8159  1.4413
15368SOL     OW47544   0.774   2.357  12.282  0.0097  0.2913  0.1422
15368SOL    HW147545   0.691   2.400  12.303 -1.2145 -0.3171 -2.8796
15368SOL    HW247546   0.816   2.415  12.218 -0.6588 -1.7692 -2.3462
15369SOL     OW47547   1.903   1.906   2.059 -0.5153 -0.2345 -0.2600
15369SOL    HW147548   1.954   1.963   2.001 -1.4172 -1.6903 -2.6316
15369SOL    HW247549   1.812   1.934   2.046 -0.6992 -0.2898  0.8417
15370SOL     OW47550   4.861   4.679   6.033 -0.1053 -0.6978 -0.3609
15370SOL    HW147551   4.843   4.667   5.940 -0.5383  3.5436 -0.9957
15370SOL    HW247552   4.939   4.735   6.036 -0.0020 -0.8534  1.8463
15371SOL     OW47553   5.646   3.361   1.331 -0.3006  0.1259  0.1197
15371SOL    HW147554   5.733   3.400   1.321 -0.6210  0.3440 -2.3152
15371SOL    HW247555   5.664   3.272   1.364  0.8542  0.1449 -0.4178
15372SOL     OW47556   3.104   7.678   0.793  0.2072 -0.2120  0.2693
15372SOL    HW147557   3.142   7.764   0.812 -0.7650  0.3826 -0.3902
15372SOL    HW247558   3.155   7.646   0.718 -0.7164  0.7029 -0.7868
15373SOL     OW47559   2.070   5.726   2.479  0.4194 -0.0302 -0.3292
15373SOL    HW147560   2.155   5.681   2.478 -0.4636 -1.7923  0.3196
15373SOL    HW247561   2.006   5.657   2.495 -1.1183  1.3318 -0.3225
15374SOL     OW47562   3.201   4.115   9.183 -0.3547 -0.1451  0.5621
15374SOL    HW147563   3.277   4.110   9.124 -2.4074 -2.9981 -2.2174
15374SOL    HW247564   3.193   4.208   9.204  2.2068  0.6502 -1.3926
15375SOL     OW47565   2.235   0.460   2.068 -0.3866  0.1381  0.4123
15375SOL    HW147566   2.310   0.491   2.017 -2.2372 -0.0699 -2.7043
15375SOL    HW247567   2.159   0.475   2.011 -2.5514 -1.1186  2.7483
15376SOL     OW47568   1.127   6.261   0.069  0.0650 -0.3005 -0.5165
15376SOL    HW147569   1.113   6.185   0.013  0.6054 -1.0713  0.3559
15376SOL    HW247570   1.107   6.230   0.157 -0.8317  0.9065 -0.2770
15377SOL     OW47571   3.591   6.808   5.726  0.1914  0.5883  0.7421
15377SOL    HW147572   3.576   6.760   5.807  0.0157  0.2979  0.5396
15377SOL    HW247573   3.686   6.808   5.715  0.1603 -0.2375  0.4317
15378SOL     OW47574   4.073   6.652   3.815  0.5304  0.3475  0.5501
15378SOL    HW147575   4.053   6.570   3.861 -1.5356  0.1330 -0.5963
15378SOL    HW247576   4.093   6.625   3.725  1.9077  0.9732  0.6387
15379SOL     OW47577   0.348   4.785   5.212 -0.1446  0.0992 -0.3946
15379SOL    HW147578   0.289   4.719   5.176 -2.2034 -0.5522  3.6393
15379SOL    HW247579   0.290   4.855   5.242  1.4820  1.1685  0.3772
15380SOL     OW47580   3.099   3.415   5.022 -0.5183 -0.3906 -0.1235
15380SOL    HW147581   3.043   3.432   4.946 -0.3970 -0.1626 -0.1620
15380SOL    HW247582   3.038   3.404   5.095 -0.6995 -1.6032 -0.4240
15381SOL     OW47583   2.073   5.148   6.728 -0.1928  0.1819  0.2675
15381SOL    HW147584   2.076   5.190   6.814 -1.5912 -0.0761  0.4756
15381SOL    HW247585   2.114   5.062   6.742  1.0314  0.7478  0.2698
15382SOL     OW47586   7.551   2.774   0.528  0.3740 -0.1161  0.4671
15382SOL    HW147587   7.601   2.736   0.600 -1.6130  0.6466  2.3852
15382SOL    HW247588   7.485   2.708   0.507 -1.4012  1.0599  1.9935
15383SOL     OW47589   6.332   6.061   7.499  0.3155 -0.2637 -0.0285
15383SOL    HW147590   6.425   6.074   7.516  0.3651 -0.2972 -0.2784
15383SOL    HW247591   6.328   5.983   7.444  0.2280  0.3917 -0.9819
15384SOL     OW47592   0.686   6.421  10.210  0.0991 -0.4799 -0.3554
15384SOL    HW147593   0.730   6.485  10.154  0.0230 -1.8039 -1.9872
15384SOL    HW247594   0.740   6.343  10.204 -1.4118 -1.5240 -0.8428
15385SOL     OW47595   0.034   3.327   3.306  0.1936  0.8896  0.3816
15385SOL    HW147596  -0.042   3.351   3.358  0.0542  1.6254 -0.1458
15385SOL    HW247597   0.072   3.252   3.352 -0.1515  1.2738  1.3189
15386SOL     OW47598   1.213   7.666  12.289 -0.1832  1.0027 -0.4017
15386SOL    HW147599   1.123   7.648  12.316  0.2592 -0.8444 -0.0492
15386SOL    HW247600   1.246   7.728  12.355 -0.2637 -0.6400  1.2562
15387SOL     OW47601   2.591   5.140   8.221 -0.1259 -0.4738 -0.1125
15387SOL    HW147602   2.567   5.048   8.209 -0.5309 -0.3993  0.0904
15387SOL    HW247603   2.685   5.139   8.239 -0.0082 -0.7982 -0.6973
15388SOL     OW47604   3.408   6.328  12.285  0.1928  0.4248  0.4562
15388SOL    HW147605   3.383   6.373  12.366 -1.5682  1.4064 -0.5593
15388SOL    HW247606   3.439   6.242  12.314 -1.9305  0.1118  2.1125
15389SOL     OW47607   0.939   4.406   9.910  0.3141 -0.3448  0.3442
15389SOL    HW147608   0.879   4.417   9.836  1.7947 -3.4542 -1.5208
15389SOL    HW247609   0.887   4.360   9.976 -0.4834  0.7260  0.4893
15390SOL     OW47610   7.823   4.254   4.910  0.3814 -0.3144 -0.1324
15390SOL    HW147611   7.732   4.242   4.937  0.0408 -0.2226 -1.1836
15390SOL    HW247612   7.819   4.324   4.844  1.1133 -0.8197 -0.7273
15391SOL     OW47613   3.113   1.048   2.990 -0.0322 -0.1075  0.5022
15391SOL    HW147614   3.060   0.968   2.991 -4.2976  2.2667 -2.7987
15391SOL    HW247615   3.091   1.092   3.072 -2.1996  0.1175 -0.1316
15392SOL     OW47616   2.088   5.259   2.723  0.1862 -0.4821  0.5577
15392SOL    HW147617   2.019   5.215   2.673  0.9382 -0.0355 -0.9037
15392SOL    HW247618   2.063   5.352   2.722  2.4708  0.2749 -2.9873
15393SOL     OW47619   6.440   4.795   5.566 -0.0977 -0.5780  0.1581
15393SOL    HW147620   6.352   4.819   5.596 -0.6854 -0.9674 -1.1786
15393SOL    HW247621   6.492   4.789   5.646 -1.4816 -1.1601  1.0481
15394SOL     OW47622   7.548   5.895   7.465 -1.0873  0.0101  0.0593
15394SOL    HW147623   7.508   5.968   7.417 -0.4380  0.8977  0.8242
15394SOL    HW247624   7.482   5.826   7.464 -2.5137  1.3104  0.9881
15395SOL     OW47625   2.269   3.005   7.472  0.4182 -0.0457  0.1153
15395SOL    HW147626   2.204   3.067   7.438 -0.8855 -0.7338  1.2286
15395SOL    HW247627   2.312   3.053   7.543 -1.3481 -0.7003  1.7095
15396SOL     OW47628   4.897   6.774  12.115  0.2626 -0.2730  0.5860
15396SOL    HW147629   4.931   6.863  12.119  0.0731 -0.2403  2.0098
15396SOL    HW247630   4.884   6.757  12.022 -0.0047  1.3068  0.3077
15397SOL     OW47631   2.122   7.306   0.645  0.2720 -0.1449 -0.9153
15397SOL    HW147632   2.100   7.300   0.552 -0.9687 -1.1442 -0.5895
15397SOL    HW247633   2.060   7.369   0.680  0.4854 -0.0598 -0.6908
15398SOL     OW47634   7.102   4.947   6.992  0.4095  0.1679  0.1189
15398SOL    HW147635   7.111   5.031   6.947  2.1415  0.4564  0.9292
15398SOL    HW247636   7.032   4.962   7.056  1.7227  1.5530  1.3306
15399SOL     OW47637   1.182   1.688   3.060 -0.0297 -0.2711 -0.6578
15399SOL    HW147638   1.239   1.658   2.989 -0.9752 -0.3278 -1.4179
15399SOL    HW247639   1.093   1.677   3.026 -0.4784  2.4482 -0.6306
15400SOL     OW47640   3.990   2.538   9.477 -0.2281 -0.3620  0.3069
15400SOL    HW147641   3.914   2.482   9.467 -0.9231  0.5411  0.3627
15400SOL    HW247642   3.995   2.556   9.571  0.9777 -1.6478  0.5097
15401SOL     OW47643   1.434   4.728   4.515 -0.1186 -0.4018 -0.0028
15401SOL    HW147644   1.466   4.817   4.521 -0.4373 -0.2734 -0.1606
15401SOL    HW247645   1.355   4.727   4.569 -0.7833 -0.2745 -0.9463
15402SOL     OW47646   3.738   2.247   7.142 -0.3505 -0.0591  0.0791
15402SOL    HW147647   3.775   2.303   7.211 -2.5272  1.0502  0.4408
15402SOL    HW247648   3.649   2.228   7.172  0.2476 -3.8717  0.0097
15403SOL     OW47649   1.259   7.074   0.615  0.1677 -0.3895 -0.2418
15403SOL    HW147650   1.191   7.142   0.617  0.3568 -0.1822 -0.6447
15403SOL    HW247651   1.314   7.092   0.692 -0.2019 -0.5315  0.0603
15404SOL     OW47652   2.335   5.487   9.137 -0.1304 -0.7107 -0.6057
15404SOL    HW147653   2.388   5.567   9.129 -1.3763  0.1459 -0.5103
15404SOL    HW247654   2.260   5.502   9.081 -1.4199 -0.9232  0.9766
15405SOL     OW47655   2.926   1.821   4.870 -0.4342 -0.0914 -0.2042
15405SOL    HW147656   2.859   1.766   4.829 -0.4139 -0.2838  0.0216
15405SOL    HW247657   2.911   1.908   4.834 -0.7948 -0.1391 -0.1670
15406SOL     OW47658   4.549   6.383   2.385  0.0593 -0.1461  0.0532
15406SOL    HW147659   4.578   6.389   2.476 -1.6027 -0.8218  0.6597
15406SOL    HW247660   4.503   6.465   2.369  2.1178  0.9086 -0.8970
15407SOL     OW47661   6.517   2.056   2.585 -0.1181  0.0607  0.5025
15407SOL    HW147662   6.478   2.135   2.549  1.1449  0.1567 -0.7327
15407SOL    HW247663   6.445   2.013   2.631 -1.4916  0.6068 -1.0324
15408SOL     OW47664   2.658   0.856   8.236 -0.3409  0.2875  0.1984
15408SOL    HW147665   2.707   0.775   8.223 -1.1496 -0.1807  0.0007
15408SOL    HW247666   2.632   0.853   8.328 -2.8185 -1.1187 -0.4602
15409SOL     OW47667   5.290   1.481  10.270 -0.0719  0.1957 -0.0704
15409SOL    HW147668   5.241   1.564  10.271  1.3305  1.0621  0.2879
15409SOL    HW247669   5.382   1.508  10.262  0.3450 -1.3798 -0.9970
15410SOL     OW47670   6.008   5.694   3.559 -0.0423  0.3242 -0.1997
15410SOL    HW147671   5.925   5.667   3.518 -0.4389  0.0148  0.7778
15410SOL    HW247672   6.031   5.622   3.617 -0.1754  1.2724  1.0854
15411SOL     OW47673   1.994   3.618   5.684  0.1661  0.4676  0.1793
15411SOL    HW147674   1.965   3.654   5.600 -0.9677 -2.5658 -0.8928
15411SOL    HW247675   1.920   3.633   5.743 -0.4134 -0.2891 -0.3326
15412SOL     OW47676   1.940   0.209  10.249 -0.2453  0.3461 -0.0006
15412SOL    HW147677   1.845   0.217  10.256 -0.2269 -0.1295  1.0652
15412SOL    HW247678   1.970   0.204  10.340  0.7456 -0.1250 -0.3376
15413SOL     OW47679   7.885   0.562   3.402  0.2874  0.4984  0.8560
15413SOL    HW147680   7.803   0.611   3.403 -0.6148 -0.9367  0.5394
15413SOL    HW247681   7.868   0.486   3.458  0.7112 -0.8450 -0.7428
15414SOL     OW47682   6.637   2.171   3.555 -0.0056  0.4813  0.3087
15414SOL    HW147683   6.721   2.216   3.565  1.0065 -1.3828  0.7500
15414SOL    HW247684   6.645   2.124   3.472 -0.7995  0.6404  0.1384
15415SOL     OW47685   2.425   0.769   3.925  0.1383  0.4080  0.0120
15415SOL    HW147686   2.360   0.784   3.856  1.0365  0.5066 -0.8345
15415SOL    HW247687   2.377   0.782   4.006 -1.3079 -1.0938 -0.5424
15416SOL     OW47688   2.520   5.543   0.624 -0.1942 -0.4616  0.1633
15416SOL    HW147689   2.601   5.557   0.575 -0.1833 -0.4224  0.1923
15416SOL    HW247690   2.452   5.536   0.557 -0.3739  0.8760  0.1752
15417SOL     OW47691   7.499   1.818   3.544  0.3386  0.2051  0.5004
15417SOL    HW147692   7.450   1.851   3.469 -0.3569 -1.1208  0.3579
15417SOL    HW247693   7.436   1.813   3.615  0.1914 -1.5966  0.2928
15418SOL     OW47694   0.915   2.136   8.704 -0.4000 -0.5382  0.0258
15418SOL    HW147695   0.928   2.168   8.793 -0.2890 -1.2499  0.2691
15418SOL    HW247696   0.951   2.048   8.704  2.6362  0.5311 -1.5656
15419SOL     OW47697   7.537   2.353   9.682  0.5330  0.2419  0.1154
15419SOL    HW147698   7.615   2.400   9.653  1.0528 -0.3548  0.5145
15419SOL    HW247699   7.547   2.265   9.645 -0.5683  0.4982 -0.8588
15420SOL     OW47700   7.315   7.939  12.440 -0.1645 -0.2978  0.2663
15420SOL    HW147701   7.354   7.944  12.353 -3.3493 -1.2772 -1.3506
15420SOL    HW247702   7.311   8.030  12.469 -2.2405  0.5539 -2.2576
15421SOL     OW47703   0.181   6.357   0.526  0.1600 -0.2171 -0.2928
15421SOL    HW147704   0.177   6.392   0.437  0.1674 -1.1118 -0.6587
15421SOL    HW247705   0.091   6.330   0.545 -0.2474  1.6752  0.7091
15422SOL     OW47706   1.120   2.814  10.814 -0.2589  0.1229 -0.0902
15422SOL    HW147707   1.094   2.775  10.897  1.0607 -0.5341  0.0380
15422SOL    HW247708   1.206   2.852  10.831  0.6312 -1.1459 -1.4517
15423SOL     OW47709   6.544   0.571   4.452  0.0163  0.1422  0.0713
15423SOL    HW147710   6.620   0.620   4.482 -0.1177  0.5850 -0.3132
15423SOL    HW247711   6.568   0.479   4.465  0.7237  0.2722 -0.3176
15424SOL     OW47712   3.821   6.466  11.971  0.0948  0.7086  0.4359
15424SOL    HW147713   3.819   6.387  11.919 -0.3567  0.2989  1.0587
15424SOL    HW247714   3.772   6.444  12.050 -0.4864  1.7653  0.3907
15425SOL     OW47715   1.288   2.335  11.461  0.4875  0.1450  0.1759
15425SOL    HW147716   1.314   2.423  11.485 -1.3273  0.0656  2.9590
15425SOL    HW247717   1.234   2.345  11.382  0.1680  1.5555  0.5597
15426SOL     OW47718   3.100   6.859  11.710 -0.0354 -0.4367  0.1435
15426SOL    HW147719   3.189   6.864  11.673  0.2493  0.3611  0.9127
15426SOL    HW247720   3.045   6.833  11.635  0.9162 -1.5600 -0.2135
15427SOL     OW47721   2.449   2.567  10.184 -0.4766 -0.7118 -0.3828
15427SOL    HW147722   2.370   2.609  10.150  0.4401  0.6227 -0.9375
15427SOL    HW247723   2.419   2.483  10.219 -2.4483  0.6127  1.2689
15428SOL     OW47724   4.705   7.832   1.624  0.0395  0.3622  0.4516
15428SOL    HW147725   4.758   7.803   1.699 -0.0478 -1.1313 -0.0359
15428SOL    HW247726   4.685   7.924   1.643 -0.8651 -0.2460  2.7900
15429SOL     OW47727   0.947   0.434  10.155 -0.5865 -0.1383  0.4069
15429SOL    HW147728   1.006   0.478  10.217  0.1152  0.9974 -1.0098
15429SOL    HW247729   0.981   0.457  10.069 -0.9200 -2.5199 -0.4315
15430SOL     OW47730   6.428   5.028   9.212  0.0641 -0.1920  0.1624
15430SOL    HW147731   6.438   5.114   9.253  0.9051  0.4207 -1.2574
15430SOL    HW247732   6.470   4.967   9.273 -0.6980  0.3513  1.2666
15431SOL     OW47733   7.743   4.509   6.939  0.5347 -0.0693  0.3186
15431SOL    HW147734   7.781   4.439   6.885 -1.0120 -0.4925 -0.2892
15431SOL    HW247735   7.769   4.487   7.028  0.3270 -1.2810  0.1002
15432SOL     OW47736   5.334   3.905   3.754  0.3062  0.4257 -0.0933
15432SOL    HW147737   5.314   3.998   3.740 -0.3110  0.0994 -1.5658
15432SOL    HW247738   5.428   3.903   3.768  0.3677  1.2573 -0.3115
15433SOL     OW47739   3.159   0.725   9.853  0.1491 -0.0265 -0.0051
15433SOL    HW147740   3.113   0.728   9.769 -1.6360 -1.1102  0.8860
15433SOL    HW247741   3.252   0.726   9.829 -0.3050 -1.1475 -2.0415
15434SOL     OW47742   3.291   7.322   9.979  0.2006 -0.4337  0.1724
15434SOL    HW147743   3.248   7.373  10.047 -0.2509  2.0094 -1.7647
15434SOL    HW247744   3.359   7.272  10.024 -0.3057  0.7967  2.4204
15435SOL     OW47745   0.244   2.680  11.037  0.4087 -0.0655 -0.1601
15435SOL    HW147746   0.186   2.741  10.993  0.2850 -0.4379 -0.5247
15435SOL    HW247747   0.200   2.595  11.029  2.1225 -0.8382 -2.6345
15436SOL     OW47748   3.028   0.402   2.301 -0.3631  0.1511 -0.1371
15436SOL    HW147749   3.050   0.493   2.324  0.3353 -0.1528  0.4496
15436SOL    HW247750   2.932   0.401   2.297 -0.3944  0.8385  0.1702
15437SOL     OW47751   6.720   0.116   9.072 -0.6129  0.2557 -0.0964
15437SOL    HW147752   6.649   0.179   9.074 -0.7775  0.0535  1.0513
15437SOL    HW247753   6.678   0.031   9.088 -0.2084  0.0332 -0.1884
15438SOL     OW47754   3.489   7.138   7.165 -0.1947  0.2913  1.0612
15438SOL    HW147755   3.435   7.133   7.086  0.3771  0.1794  0.6715
15438SOL    HW247756   3.454   7.069   7.222 -0.0837 -0.1794  0.5710
15439SOL     OW47757   3.580   3.173   8.778  0.6259  0.4414 -0.3988
15439SOL    HW147758   3.615   3.101   8.725  0.4517 -0.0632  0.1572
15439SOL    HW247759   3.486   3.172   8.760  0.3124 -0.7753  1.1163
15440SOL     OW47760   6.672   0.888   8.478  0.2929  0.0325  1.3050
15440SOL    HW147761   6.747   0.842   8.443  1.1184  2.3848 -0.2787
15440SOL    HW247762   6.704   0.930   8.558 -0.6329 -2.4785  3.1157
15441SOL     OW47763   6.139   3.775   1.589 -0.5937 -0.2523 -0.3345
15441SOL    HW147764   6.094   3.792   1.506 -1.2604  0.0722  0.0864
15441SOL    HW247765   6.191   3.854   1.604 -1.0358 -0.0032 -0.0884
15442SOL     OW47766   7.882   2.860  11.754  0.5106 -0.0336  0.2344
15442SOL    HW147767   7.904   2.850  11.847 -1.6938  1.1989  0.9466
15442SOL    HW247768   7.874   2.955  11.742  0.2404 -0.2123 -1.0891
15443SOL     OW47769   7.206   6.782   6.360 -1.0376  0.0682 -0.0068
15443SOL    HW147770   7.122   6.750   6.392 -0.7417 -0.4111  0.3022
15443SOL    HW247771   7.185   6.865   6.317 -1.2881  1.5881  2.7651
15444SOL     OW47772   1.252   1.091   6.146 -0.2497  0.3112 -0.5001
15444SOL    HW147773   1.343   1.085   6.116  0.0229 -0.7015  0.4762
15444SOL    HW247774   1.220   1.001   6.145 -0.9659  0.5457  0.0205
15445SOL     OW47775   4.520   4.959   6.357  0.1115 -0.0300  0.3519
15445SOL    HW147776   4.483   4.872   6.346 -0.6263  0.3803 -0.5380
15445SOL    HW247777   4.593   4.947   6.418  0.2806 -1.3333 -0.0833
15446SOL     OW47778   7.870   5.148   7.009  0.4721  0.2686  0.9271
15446SOL    HW147779   7.899   5.194   7.088  0.5238  0.7800  0.6149
15446SOL    HW247780   7.794   5.198   6.980  1.4718  1.1187 -0.3123
15447SOL     OW47781   7.304   6.005   8.997  0.1584  0.2217  0.0565
15447SOL    HW147782   7.311   5.916   9.030  0.2498  1.1655  2.8772
15447SOL    HW247783   7.395   6.030   8.978 -0.0098 -0.7565 -2.3742
15448SOL     OW47784   2.352   3.158  11.926 -0.1685 -0.1114 -0.4480
15448SOL    HW147785   2.424   3.187  11.870 -0.4301  1.4858 -0.0084
15448SOL    HW247786   2.332   3.069  11.896  0.5465  0.2258 -2.0183
15449SOL     OW47787   5.359   2.329   3.263 -0.8001  0.4254  1.0141
15449SOL    HW147788   5.352   2.403   3.202  1.1330  0.1627  0.3973
15449SOL    HW247789   5.370   2.370   3.349  1.7946  0.9765  0.5037
15450SOL     OW47790   7.337   1.994   6.826  0.5159 -0.0340  0.0898
15450SOL    HW147791   7.342   2.036   6.741 -1.1759 -0.9417 -0.5003
15450SOL    HW247792   7.266   1.930   6.818 -0.3201  0.4875  2.4342
15451SOL     OW47793   6.859   1.358   8.617  0.1558  0.4963 -0.2245
15451SOL    HW147794   6.858   1.265   8.595 -0.5171  0.5011 -0.2250
15451SOL    HW247795   6.944   1.372   8.658 -0.1586 -0.3523  0.7515
15452SOL     OW47796   4.179   2.778   2.274 -0.0348  0.4493 -0.1037
15452SOL    HW147797   4.120   2.812   2.342 -0.7634  0.5559 -0.7750
15452SOL    HW247798   4.199   2.689   2.302 -0.4458  0.4431  0.1783
15453SOL     OW47799   3.905   7.422   2.132 -0.0184  0.0911  0.1200
15453SOL    HW147800   3.895   7.379   2.048  1.8665  3.2619 -1.9417
15453SOL    HW247801   3.976   7.374   2.175 -0.0370 -0.7149 -0.7270
15454SOL     OW47802   0.131   0.630   7.964  0.4034 -0.0276  0.0199
15454SOL    HW147803   0.210   0.645   8.018  0.9277 -1.6224 -0.2503
15454SOL    HW247804   0.157   0.561   7.903 -0.5841  0.8740 -1.4644
15455SOL     OW47805   3.939   2.190   9.051 -0.0380 -0.4213  0.4671
15455SOL    HW147806   3.948   2.274   9.006  0.2819 -0.3701  0.6277
15455SOL    HW247807   4.006   2.134   9.013 -0.9300 -0.9417 -0.3877
15456SOL     OW47808   6.503   4.901   7.571  0.5997  0.6641  0.8874
15456SOL    HW147809   6.509   4.807   7.588  2.0443  0.4233 -0.7575
15456SOL    HW247810   6.412   4.923   7.591 -0.0750 -1.3197  0.1873
15457SOL     OW47811   6.345   6.291   9.123  0.5388 -0.0492  0.5355
15457SOL    HW147812   6.257   6.296   9.160 -0.4904 -0.5029 -1.6926
15457SOL    HW247813   6.376   6.204   9.149 -0.7551 -0.9643 -0.8091
15458SOL     OW47814   3.887   7.309   5.731  0.0162 -0.3765  0.2784
15458SOL    HW147815   3.863   7.235   5.786 -0.6598 -0.6655 -0.3854
15458SOL    HW247816   3.817   7.373   5.746 -0.2071 -0.4806 -0.2725
15459SOL     OW47817   6.956   4.044   6.573  0.4789  0.0747 -0.0125
15459SOL    HW147818   6.893   4.002   6.632  0.0250 -1.0969 -1.2657
15459SOL    HW247819   7.036   4.052   6.625 -0.3093  0.3673  1.1920
15460SOL     OW47820   2.390   2.334   5.060  0.0100 -0.0787 -0.0671
15460SOL    HW147821   2.322   2.394   5.090  0.2747 -0.1007  0.5875
15460SOL    HW247822   2.472   2.374   5.089  0.2409 -0.3558 -0.3266
15461SOL     OW47823   7.516   3.853   5.919 -0.5360  0.0643  0.1817
15461SOL    HW147824   7.465   3.773   5.909  1.1847 -0.8388 -2.2334
15461SOL    HW247825   7.596   3.825   5.965 -0.3452  0.6003  0.1880
15462SOL     OW47826   3.602   6.628   1.449  0.0249 -0.1163 -0.0509
15462SOL    HW147827   3.641   6.542   1.436  0.3634  0.0266  0.0039
15462SOL    HW247828   3.672   6.681   1.487 -0.7783 -0.3866  1.9478
15463SOL     OW47829   1.582   3.500  12.416  0.3308 -0.0632 -0.2867
15463SOL    HW147830   1.614   3.582  12.377 -2.0333  0.5191 -1.1356
15463SOL    HW247831   1.559   3.445  12.341  0.6799 -1.0462  0.2943
15464SOL     OW47832   1.936   2.587  11.673  0.2274  0.0106 -0.1274
15464SOL    HW147833   1.977   2.600  11.588 -1.5186 -0.0881 -1.0237
15464SOL    HW247834   1.943   2.493  11.689  1.5618  0.1685  0.4175
15465SOL     OW47835   5.182   0.624   5.576  0.5017 -0.2412 -0.0328
15465SOL    HW147836   5.257   0.650   5.630  1.6480 -0.3768 -1.4931
15465SOL    HW247837   5.213   0.548   5.527 -1.0916 -1.1950  0.3616
15466SOL     OW47838   1.706   4.723   8.330  0.2961  0.3611 -0.1729
15466SOL    HW147839   1.734   4.691   8.416  0.9000 -0.7443 -0.7623
15466SOL    HW247840   1.646   4.656   8.297 -1.5809  1.7610  0.2201
15467SOL     OW47841   7.569   3.371   9.363 -0.6043 -0.1163 -0.2018
15467SOL    HW147842   7.540   3.281   9.376  1.0254 -0.5781  0.5139
15467SOL    HW247843   7.505   3.424   9.410 -0.9854 -0.9882  0.2746
15468SOL     OW47844   7.850   4.305   9.421 -0.5787  0.2902 -0.3212
15468SOL    HW147845   7.805   4.225   9.394 -1.0250  0.5939 -0.4877
15468SOL    HW247846   7.798   4.339   9.493  0.1017 -0.0300  0.3292
15469SOL     OW47847   1.207   7.540   9.677  0.0146 -0.0584  0.3590
15469SOL    HW147848   1.303   7.536   9.677  0.0656  0.6175  1.6232
15469SOL    HW247849   1.181   7.487   9.602  1.3628 -0.5729  0.2244
15470SOL     OW47850   2.274   4.056  10.725  0.0459 -0.4651 -0.3622
15470SOL    HW147851   2.280   3.963  10.702  0.2390 -0.5301 -0.0560
15470SOL    HW247852   2.274   4.057  10.821  1.0394 -0.0904 -0.3539
15471SOL     OW47853   7.836   3.756   7.595 -0.3315  0.3697  0.1996
15471SOL    HW147854   7.921   3.724   7.625  1.0822  1.7748 -2.0581
15471SOL    HW247855   7.829   3.845   7.630 -1.7684 -0.3240  1.8643
15472SOL     OW47856   7.342   5.526   0.762  0.4601 -0.0561  0.4810
15472SOL    HW147857   7.429   5.512   0.799  1.3698 -0.0910 -1.5372
15472SOL    HW247858   7.327   5.620   0.772  0.0456 -0.2708  2.1755
15473SOL     OW47859   2.228   4.938   4.585  0.6767  0.1358 -0.0385
15473SOL    HW147860   2.258   5.017   4.541 -0.5711  1.2234  0.9825
15473SOL    HW247861   2.308   4.899   4.621  1.4109  0.4581 -1.2514
15474SOL     OW47862   4.444   5.338  10.169  0.1249  0.1124 -0.2770
15474SOL    HW147863   4.399   5.289  10.100 -0.7333 -0.3363  0.5821
15474SOL    HW247864   4.505   5.275  10.208 -2.3071 -0.9683  2.0959
15475SOL     OW47865   0.136   2.304   9.680  0.2929 -0.3881  0.8084
15475SOL    HW147866   0.149   2.228   9.624  2.5735 -0.5261  1.4309
15475SOL    HW247867   0.150   2.379   9.623 -2.0977 -0.3595  0.1600
15476SOL     OW47868   4.074   0.503  10.489 -0.4369 -0.2978 -0.0323
15476SOL    HW147869   4.090   0.447  10.564 -0.5139  0.6028  0.6669
15476SOL    HW247870   4.081   0.592  10.523  2.4635  0.2125 -1.6497
15477SOL     OW47871   4.435   1.602   5.683  0.2066 -0.7467  0.5060
15477SOL    HW147872   4.465   1.601   5.592 -0.3269  0.9221  0.2789
15477SOL    HW247873   4.515   1.597   5.734  0.7030  0.6386 -0.0854
15478SOL     OW47874   5.864   5.686   5.307  0.0563  0.7492 -0.3034
15478SOL    HW147875   5.870   5.632   5.228  0.5294  1.0284 -0.4584
15478SOL    HW247876   5.797   5.643   5.360  0.6161 -0.1473 -0.3103
15479SOL     OW47877   0.686   0.172   7.313 -0.3009 -0.0079 -0.3687
15479SOL    HW147878   0.641   0.093   7.282 -0.2754  0.3041 -1.2503
15479SOL    HW247879   0.763   0.139   7.360 -2.0218 -0.5888  2.2482
15480SOL     OW47880   5.542   0.895   0.395  0.6418  0.1560 -0.5311
15480SOL    HW147881   5.520   0.816   0.443  0.0190 -1.2891 -2.9959
15480SOL    HW247882   5.553   0.866   0.304 -1.4033  3.1473 -1.9078
15481SOL     OW47883   5.057   1.965   4.009 -0.6292 -0.1490 -0.5757
15481SOL    HW147884   5.132   2.010   4.050  0.4200 -3.3252  1.3208
15481SOL    HW247885   4.989   2.033   4.004  0.8460  1.7047  1.9810
15482SOL     OW47886   5.571   3.038   8.580  0.0187  0.6403  0.0490
15482SOL    HW147887   5.584   2.961   8.636 -1.6282  0.3075  0.0507
15482SOL    HW247888   5.563   3.111   8.641  0.5080  0.6453  0.1092
15483SOL     OW47889   2.307   2.526   0.091  0.4197 -0.8615  0.2575
15483SOL    HW147890   2.327   2.604   0.142  2.0067  0.0452 -1.6333
15483SOL    HW247891   2.360   2.457   0.130  0.2799 -0.6048  0.9047
15484SOL     OW47892   0.938   6.943   0.371  0.1821 -0.7429 -0.2786
15484SOL    HW147893   0.955   6.863   0.420  2.7780 -1.1132 -1.6043
15484SOL    HW247894   0.852   6.929   0.332 -1.9026 -0.5283  3.7356
15485SOL     OW47895   5.259   4.645   9.547 -0.1358 -0.0781  0.0182
15485SOL    HW147896   5.316   4.651   9.624 -0.3598 -0.9889  0.2651
15485SOL    HW247897   5.312   4.679   9.475  0.7914 -1.0340  0.2161
15486SOL     OW47898   4.092   0.334  10.697  0.2495  0.1976  0.6785
15486SOL    HW147899   4.021   0.316  10.758  0.4927  1.4156  1.3649
15486SOL    HW247900   4.100   0.255  10.644 -0.8694 -0.3685  1.3321
15487SOL     OW47901   7.590   3.013  10.398  0.1469  0.2371 -0.2663
15487SOL    HW147902   7.579   2.920  10.417 -2.2498  0.4420 -0.2538
15487SOL    HW247903   7.608   3.017  10.304  0.2267 -0.2507 -0.2750
15488SOL     OW47904   6.657   5.941   7.633  0.5292  0.0999 -0.3116
15488SOL    HW147905   6.739   5.954   7.680 -0.1216 -0.4835  1.0456
15488SOL    HW247906   6.643   5.846   7.636 -0.6431  0.2795  0.2887
15489SOL     OW47907   3.597   7.268   0.394 -0.0352  0.0740  0.2563
15489SOL    HW147908   3.581   7.294   0.485 -0.5540 -3.3454  1.2845
15489SOL    HW247909   3.524   7.305   0.345  0.3967  2.1996  1.1170
15490SOL     OW47910   3.960   7.507   1.253 -0.4673 -0.1150  0.0223
15490SOL    HW147911   3.999   7.434   1.205  1.9315 -0.1079  1.8023
15490SOL    HW247912   3.969   7.582   1.195  0.1841 -0.5646 -0.4750
15491SOL     OW47913   5.641   1.849   5.622 -0.0335 -0.0920  0.2454
15491SOL    HW147914   5.684   1.928   5.589  0.2929 -0.9794 -1.5485
15491SOL    HW247915   5.672   1.842   5.712 -1.3865  2.7294  1.0570
15492SOL     OW47916   0.278   1.503   7.414 -0.3530 -0.4911 -0.3273
15492SOL    HW147917   0.372   1.505   7.399 -0.2665  1.1199  0.2311
15492SOL    HW247918   0.266   1.543   7.500 -1.5339 -0.7867 -0.3310
15493SOL     OW47919   4.114   0.331   9.289  0.0216 -0.1585  0.2669
15493SOL    HW147920   4.161   0.264   9.241  0.5784  0.3172  0.1321
15493SOL    HW247921   4.139   0.413   9.247 -0.2103  0.1836  0.7776
15494SOL     OW47922   6.424   7.307   3.065 -0.1750  0.0744  0.6402
15494SOL    HW147923   6.336   7.344   3.064 -0.1689  0.0737 -0.2442
15494SOL    HW247924   6.416   7.224   3.018  0.3965  0.3178  0.0989
15495SOL     OW47925   2.828   4.644   9.422  0.1993  0.3606  0.0286
15495SOL    HW147926   2.911   4.690   9.430  0.3863 -0.1066  0.8282
15495SOL    HW247927   2.788   4.681   9.343  1.7845 -0.4168 -1.1842
15496SOL     OW47928   6.698   0.382  12.189 -0.1249  0.0235  0.8727
15496SOL    HW147929   6.777   0.352  12.144 -0.2318  0.1574  0.5954
15496SOL    HW247930   6.639   0.410  12.119  0.2386  1.5550  1.1539
15497SOL     OW47931   3.829   1.888   6.811 -0.6392 -0.1264  0.1600
15497SOL    HW147932   3.753   1.883   6.869  1.3368 -0.7637  2.9071
15497SOL    HW247933   3.823   1.808   6.758 -1.3235 -0.7230  1.0948
15498SOL     OW47934   7.392   2.746   6.058 -0.0266  0.2425 -0.4037
15498SOL    HW147935   7.438   2.811   6.111 -0.9945  0.6580 -0.0451
15498SOL    HW247936   7.333   2.702   6.120 -1.9399  1.4298 -1.2786
15499SOL     OW47937   4.969   0.364   7.802 -0.6222 -0.0953 -0.2309
15499SOL    HW147938   5.029   0.313   7.857 -0.3075 -1.5810 -1.8517
15499SOL    HW247939   4.928   0.426   7.862 -0.3910 -1.7095  1.6834
15500SOL     OW47940   6.754   5.064   5.562 -0.5023 -0.2616  0.0993
15500SOL    HW147941   6.785   5.041   5.650  1.5648 -0.2646 -0.5856
15500SOL    HW247942   6.665   5.030   5.559 -1.3195  1.2836  2.8098
15501SOL     OW47943   7.872   0.245  10.835 -0.5751 -0.3048  0.4545
15501SOL    HW147944   7.777   0.240  10.829 -0.7175  2.3027 -1.6959
15501SOL    HW247945   7.904   0.175  10.777 -1.1124 -1.4595  1.5106
15502SOL     OW47946   1.689   0.571   4.407 -0.2007  0.6147  0.2205
15502SOL    HW147947   1.621   0.587   4.342 -0.4215  1.0990  0.5694
15502SOL    HW247948   1.752   0.515   4.362 -0.2013  1.1854 -0.5049
15503SOL     OW47949   1.691   6.268   6.729 -0.3853  0.0488 -0.2032
15503SOL    HW147950   1.629   6.210   6.686 -0.1544 -1.3385  1.2203
15503SOL    HW247951   1.726   6.216   6.802  1.8630  1.0397 -0.4741
15504SOL     OW47952   0.882   3.482   3.052 -0.3521  0.2296  0.2604
15504SOL    HW147953   0.894   3.394   3.018  0.1494  0.6578 -0.7056
15504SOL    HW247954   0.971   3.515   3.067 -0.5435  0.3695  1.1759
15505SOL     OW47955   6.538   6.525   5.520 -0.5053 -0.3562 -0.2947
15505SOL    HW147956   6.604   6.457   5.508  1.1180  1.0574  0.0215
15505SOL    HW247957   6.460   6.492   5.477  0.9616 -1.3286 -2.3742
15506SOL     OW47958   6.435   7.774   1.441  0.3106  0.6833  0.0849
15506SOL    HW147959   6.455   7.714   1.370 -0.4619 -2.7381  2.4823
15506SOL    HW247960   6.519   7.817   1.461  1.0152  0.0618 -1.4170
15507SOL     OW47961   5.236   3.682   5.286  0.1037 -0.2507 -0.2493
15507SOL    HW147962   5.322   3.668   5.247  0.1078  1.2690 -0.8497
15507SOL    HW247963   5.185   3.724   5.218 -0.9108 -0.4731  0.3444
15508SOL     OW47964   7.926   6.639   5.189 -0.7981 -0.0300  0.4623
15508SOL    HW147965   8.010   6.620   5.148 -0.5496  2.7782 -0.5706
15508SOL    HW247966   7.901   6.558   5.233  2.4228 -0.9591  0.7969
15509SOL     OW47967   6.580   2.087   7.736  0.0105  0.4674  0.0375
15509SOL    HW147968   6.646   2.071   7.804  0.7220  0.9659 -0.5196
15509SOL    HW247969   6.497   2.087   7.783  0.4001 -0.2474  0.7451
15510SOL     OW47970   5.925   4.706   0.879  0.2680  0.6147 -0.3464
15510SOL    HW147971   5.843   4.735   0.838 -1.5421 -1.2115  1.7527
15510SOL    HW247972   5.979   4.677   0.805 -1.8281 -0.1339 -1.6886
15511SOL     OW47973   3.150   2.905   8.221 -0.4489 -0.2313  0.4939
15511SOL    HW147974   3.184   2.972   8.161  1.2731 -2.5803 -1.3766
15511SOL    HW247975   3.217   2.899   8.290 -0.3474 -0.3984  0.3796
15512SOL     OW47976   1.321   4.283  10.456 -0.2025  0.2211  0.0523
15512SOL    HW147977   1.382   4.312  10.388 -0.1469 -0.1423 -0.0581
15512SOL    HW247978   1.235   4.288  10.415 -0.3484  1.5720  0.4920
15513SOL     OW47979   1.128   1.437   1.987 -0.1051  0.4463 -0.2562
15513SOL    HW147980   1.174   1.501   1.933 -0.3869  0.3972 -0.5511
15513SOL    HW247981   1.197   1.377   2.016  0.0190  0.3674 -0.7053
15514SOL     OW47982   5.135   2.928  11.164 -0.5612 -0.0225 -0.3643
15514SOL    HW147983   5.057   2.935  11.218 -0.4339  1.5057 -0.3157
15514SOL    HW247984   5.103   2.935  11.074 -0.4958  0.7212 -0.3402
15515SOL     OW47985   5.201   3.398   5.045  0.1294 -0.0990 -0.0455
15515SOL    HW147986   5.146   3.376   4.970  0.9479  0.8423 -0.9375
15515SOL    HW247987   5.198   3.494   5.050  1.9042 -0.0002 -0.2956
15516SOL     OW47988   0.173   7.319   3.559 -0.0871  0.0398 -0.4232
15516SOL    HW147989   0.229   7.241   3.558 -0.6714 -0.4127 -2.3272
15516SOL    HW247990   0.149   7.332   3.468 -1.4046  1.4508  0.0823
15517SOL     OW47991   6.952   3.560   4.172 -0.4173  0.0777 -0.5365
15517SOL    HW147992   6.890   3.594   4.236 -0.9778 -1.6577 -0.0942
15517SOL    HW247993   6.923   3.595   4.088 -2.0742 -0.7486 -0.3466
15518SOL     OW47994   3.262   5.034   4.889  0.2967 -0.2110  0.2436
15518SOL    HW147995   3.286   5.037   4.796  0.9026  0.4351  0.4101
15518SOL    HW247996   3.199   5.105   4.900  0.9110  0.3033  0.5034
15519SOL     OW47997   0.244   0.902   2.113 -0.0984 -0.6289  0.0925
15519SOL    HW147998   0.287   0.919   2.196 -2.2295  1.5975  0.8473
15519SOL    HW247999   0.164   0.855   2.136 -0.3598 -0.6212 -0.7500
15520SOL     OW48000   1.005   3.497   7.564 -0.4990  0.5297 -0.1582
15520SOL    HW148001   0.916   3.482   7.597 -0.2441  1.9606  1.3529
15520SOL    HW248002   1.045   3.411   7.562 -2.0227 -0.1990 -1.2468
15521SOL     OW48003   6.760   2.830   1.506 -0.4956  0.0533 -0.1363
15521SOL    HW148004   6.809   2.749   1.521 -2.2460 -1.2185 -0.9512
15521SOL    HW248005   6.698   2.835   1.578  0.5455  1.5044  0.7274
15522SOL     OW48006   6.740   5.948  11.636  0.3253  0.5012  0.4686
15522SOL    HW148007   6.753   5.966  11.543  1.4316 -0.8538  0.3257
15522SOL    HW248008   6.683   6.019  11.666 -0.3359  0.7889 -1.2989
15523SOL     OW48009   2.800   4.065   8.789  0.2088 -0.2271  0.5584
15523SOL    HW148010   2.827   3.974   8.793 -0.4671 -0.4723 -0.3433
15523SOL    HW248011   2.878   4.112   8.758  0.1259 -0.7078 -0.4120
15524SOL     OW48012   5.655   5.659  11.045 -0.5944 -0.7452 -0.3117
15524SOL    HW148013   5.588   5.598  11.077  0.7715 -2.0397  0.2046
15524SOL    HW248014   5.738   5.617  11.069  0.3966  1.2726 -0.0617
15525SOL     OW48015   6.866   1.952  11.838  0.3474 -0.0021  0.2260
15525SOL    HW148016   6.807   1.936  11.764  0.7769  0.5751 -0.2492
15525SOL    HW248017   6.807   1.968  11.912 -0.0913  0.0662 -0.1301
15526SOL     OW48018   1.854   5.280   9.339  0.5372 -0.5681 -0.5291
15526SOL    HW148019   1.946   5.256   9.348  1.0291  1.3476  0.1354
15526SOL    HW248020   1.856   5.376   9.329 -1.4319 -0.3950  0.4465
15527SOL     OW48021   0.827   4.682  10.617 -0.2739 -0.2554 -0.3807
15527SOL    HW148022   0.913   4.640  10.613 -0.1222  0.0899 -0.7982
15527SOL    HW248023   0.779   4.632  10.684  0.0327 -0.8493 -0.5922
15528SOL     OW48024   2.626   7.859   2.256  0.2605  0.1727  0.0780
15528SOL    HW148025   2.598   7.921   2.324 -0.7616  0.1835 -0.3291
15528SOL    HW248026   2.714   7.887   2.232  0.0076  1.1632  0.2541
15529SOL     OW48027   7.566   0.274   9.680 -0.1334  0.4817 -0.1740
15529SOL    HW148028   7.641   0.326   9.651  0.6396 -0.0196  0.8842
15529SOL    HW248029   7.549   0.215   9.607 -0.4320  1.5596 -1.0107
15530SOL     OW48030   1.114   7.376  11.348  0.1161  0.0533 -0.1471
15530SOL    HW148031   1.162   7.457  11.334  0.8709 -0.4800 -0.7158
15530SOL    HW248032   1.024   7.404  11.363  0.5911  1.0623  0.9283
15531SOL     OW48033   4.575   7.844   7.159  0.3697 -0.2856  0.6133
15531SOL    HW148034   4.638   7.818   7.091 -0.6596 -1.5690  0.1046
15531SOL    HW248035   4.577   7.773   7.222 -0.6297 -0.4097  0.5316
15532SOL     OW48036   2.536   6.513   1.296 -0.0231 -0.7752  0.7434
15532SOL    HW148037   2.460   6.470   1.256  0.8302 -0.9693 -0.7075
15532SOL    HW248038   2.501   6.597   1.327 -0.0612  1.0988 -3.7086
15533SOL     OW48039   4.762   2.058  10.972  0.0928  0.1551  0.1447
15533SOL    HW148040   4.759   2.153  10.988 -1.7722 -0.0828  1.6315
15533SOL    HW248041   4.711   2.046  10.893 -0.6198  0.3124  0.5704
15534SOL     OW48042   3.803   6.409   0.406 -0.5793 -0.0471 -0.3392
15534SOL    HW148043   3.855   6.487   0.385 -1.4275  0.5471 -0.2617
15534SOL    HW248044   3.788   6.416   0.501  0.1135 -0.7924 -0.1645
15535SOL     OW48045   0.181   1.874   6.829  0.1210 -0.7307 -0.0345
15535SOL    HW148046   0.128   1.901   6.904  1.5474 -0.1082  0.8104
15535SOL    HW248047   0.136   1.798   6.793 -1.9691  0.4984 -0.1223
15536SOL     OW48048   4.284   3.611   3.074  0.0448  0.2895  0.6393
15536SOL    HW148049   4.316   3.701   3.067  0.8623  0.1177  1.8467
15536SOL    HW248050   4.330   3.574   3.150  0.5539 -1.4891 -0.4579
15537SOL     OW48051   3.433   2.713   6.471 -0.0857  0.6240 -0.4620
15537SOL    HW148052   3.455   2.673   6.555 -2.9343 -0.3535 -0.0823
15537SOL    HW248053   3.434   2.807   6.489 -0.0243  0.4467  0.5036
15538SOL     OW48054   1.461   6.650   4.207 -0.0950 -0.0160  0.3595
15538SOL    HW148055   1.414   6.607   4.135  0.1453  0.5100 -0.1270
15538SOL    HW248056   1.519   6.583   4.242  0.0504 -0.1849 -0.1844
15539SOL     OW48057   2.803   0.463   6.701 -0.1764  0.1996  0.1419
15539SOL    HW148058   2.851   0.540   6.671  1.5234 -0.6109  0.6341
15539SOL    HW248059   2.824   0.395   6.636 -0.4649 -0.2288  0.4931
15540SOL     OW48060   2.916   3.297   0.298 -0.0392  0.4758  0.0994
15540SOL    HW148061   2.868   3.244   0.361  0.3357  0.0717  0.0475
15540SOL    HW248062   2.885   3.386   0.313  0.4162  0.4630  1.1999
15541SOL     OW48063   6.880   2.667   9.833  0.2410 -0.0369  0.7598
15541SOL    HW148064   6.788   2.693   9.839  0.0168  0.2026 -2.3087
15541SOL    HW248065   6.927   2.736   9.880 -0.9889  1.1431  0.3279
15542SOL     OW48066   5.359   3.014   8.996 -0.5459  0.5627 -0.3110
15542SOL    HW148067   5.303   2.995   8.921 -0.6574  0.5212 -0.2176
15542SOL    HW248068   5.384   3.106   8.985 -0.9488  0.6910 -0.1443
15543SOL     OW48069   2.923   2.220  10.574  0.2517 -0.2631  0.1136
15543SOL    HW148070   2.923   2.243  10.667  0.7453 -0.2198  0.1011
15543SOL    HW248071   2.923   2.304  10.528 -1.0673 -0.2675  0.0656
15544SOL     OW48072   5.140   6.441   5.261 -0.1267  0.2171  0.4432
15544SOL    HW148073   5.197   6.516   5.277 -0.7573  0.6945  0.4769
15544SOL    HW248074   5.079   6.471   5.193 -1.4142  0.3034  1.5849
15545SOL     OW48075   5.992   2.705   0.736  0.1033 -0.0193  0.0989
15545SOL    HW148076   6.007   2.640   0.668  0.2907  2.3564 -2.2994
15545SOL    HW248077   5.899   2.725   0.730 -0.4870 -1.6394  2.4503
15546SOL     OW48078   4.792   2.202   5.805  0.2565  0.4040 -0.0437
15546SOL    HW148079   4.767   2.288   5.839  0.6997  0.8882 -0.9199
15546SOL    HW248080   4.766   2.204   5.713  1.3400  0.0416 -0.3738
15547SOL     OW48081   3.212   1.416   7.263  0.6374 -0.3031  0.6942
15547SOL    HW148082   3.248   1.385   7.180  0.0630 -1.8473  0.9892
15547SOL    HW248083   3.153   1.487   7.239  2.3158  0.9348  0.0317
15548SOL     OW48084   3.472   2.985  10.270  0.1273  0.1272 -0.0350
15548SOL    HW148085   3.482   3.074  10.234  1.2591  0.0941  0.1807
15548SOL    HW248086   3.377   2.971  10.271 -0.3864  2.7347  3.3010
15549SOL     OW48087   3.508   6.173   5.236  0.0931 -0.1681  0.2221
15549SOL    HW148088   3.433   6.116   5.225  0.6139 -0.9122  0.4688
15549SOL    HW248089   3.572   6.121   5.285  0.3284  0.8408  1.0380
15550SOL     OW48090   1.203   6.606   5.437  0.3391 -0.4643  0.3093
15550SOL    HW148091   1.178   6.697   5.424 -0.3456 -0.7321 -0.3202
15550SOL    HW248092   1.187   6.564   5.352  1.5190 -0.9779  0.3163
15551SOL     OW48093   7.675   7.040   7.567  0.2089 -0.4097  0.2222
15551SOL    HW148094   7.602   6.988   7.600  0.8571 -1.0167  0.7299
15551SOL    HW248095   7.635   7.101   7.505 -0.8682 -0.0326  1.2603
15552SOL     OW48096   3.230   5.022   9.584  0.0836 -0.1145  0.3996
15552SOL    HW148097   3.167   4.979   9.643  1.0999  0.5024  1.9946
15552SOL    HW248098   3.315   4.993   9.616  0.7562  2.1595  0.7865
15553SOL     OW48099   4.525   7.171  11.010  0.5205  0.0279  0.2641
15553SOL    HW148100   4.469   7.109  10.964  1.0975  0.5623 -1.2148
15553SOL    HW248101   4.465   7.239  11.042  0.2191  0.1570 -0.5674
15554SOL     OW48102   5.916   2.646   5.648 -0.1757  0.0034  0.1273
15554SOL    HW148103   5.930   2.720   5.707 -0.4142  1.1262 -1.1833
15554SOL    HW248104   6.004   2.613   5.630 -0.0288  0.2738  0.3374
15555SOL     OW48105   5.117   0.277   8.776  0.0384 -0.2409 -0.0041
15555SOL    HW148106   5.079   0.202   8.821 -0.2372  0.1979  0.5036
15555SOL    HW248107   5.087   0.353   8.826 -0.4099  0.2717 -1.0273
15556SOL     OW48108   0.572   5.829   7.137 -0.0982 -0.0921 -0.0204
15556SOL    HW148109   0.527   5.903   7.098  0.1545  0.8836  1.4729
15556SOL    HW248110   0.520   5.753   7.112 -0.5107  0.6035 -1.3455
15557SOL     OW48111   7.747   7.514  12.212  0.8600 -0.5259 -0.2946
15557SOL    HW148112   7.748   7.418  12.207  0.0425 -0.5079 -0.9740
15557SOL    HW248113   7.765   7.543  12.122 -0.9966 -0.0659 -0.5482
15558SOL     OW48114   2.193   3.434  11.277 -0.6640  0.0661 -0.6156
15558SOL    HW148115   2.104   3.439  11.312 -0.6595 -1.0500 -0.4062
15558SOL    HW248116   2.191   3.358  11.219  0.0804  0.2150 -0.8472
15559SOL     OW48117   7.677   6.482   7.153 -0.4283 -0.2796  0.1532
15559SOL    HW148118   7.656   6.575   7.158 -0.6840 -0.3953  2.3621
15559SOL    HW248119   7.670   6.461   7.060  0.6664  2.1158 -0.5617
15560SOL     OW48120   2.797   6.440   8.197 -0.1227 -0.1398 -0.4538
15560SOL    HW148121   2.719   6.398   8.161 -0.2254  0.7866 -1.3901
15560SOL    HW248122   2.778   6.534   8.189  0.6270  0.0886  0.3578
15561SOL     OW48123   6.436   3.236   0.310 -0.0087 -0.3100  0.2374
15561SOL    HW148124   6.385   3.155   0.306  1.2925 -1.1199 -0.5311
15561SOL    HW248125   6.434   3.260   0.402 -0.3573 -1.2538  0.4945
15562SOL     OW48126   6.924   6.358   6.928 -0.2466  0.1461 -0.0485
15562SOL    HW148127   6.953   6.446   6.905 -1.3114  1.0493  1.7990
15562SOL    HW248128   6.842   6.346   6.881 -0.5861  0.5449  0.4287
15563SOL     OW48129   3.604   1.009  10.486  0.3400 -0.3104  0.1127
15563SOL    HW148130   3.618   0.944  10.555 -1.2706  1.4243  2.2053
15563SOL    HW248131   3.514   0.993  10.456  0.9754 -0.9557 -1.5509
15564SOL     OW48132   5.234   7.730   0.195 -0.8378 -0.2574 -0.2067
15564SOL    HW148133   5.216   7.636   0.205 -1.4706  0.0301  1.6081
15564SOL    HW248134   5.148   7.770   0.181 -0.7491  0.2082  0.5190
15565SOL     OW48135   0.207   6.939   7.432  0.1043 -0.7825  0.5609
15565SOL    HW148136   0.270   6.870   7.451 -1.6466 -3.0842 -1.4446
15565SOL    HW248137   0.133   6.921   7.491 -0.1125 -0.2075  0.4779
15566SOL     OW48138   0.224   2.208   5.527 -0.4836  0.5046  0.0539
15566SOL    HW148139   0.212   2.299   5.502  0.1961  0.5137 -0.2704
15566SOL    HW248140   0.293   2.176   5.469 -0.8448 -0.2711  0.0344
15567SOL     OW48141   6.559   2.925  12.216  0.2797 -0.2095  0.0927
15567SOL    HW148142   6.644   2.891  12.189  0.7861  0.6747  0.5535
15567SOL    HW248143   6.524   2.857  12.274  0.9826 -0.2584  0.4749
15568SOL     OW48144   5.270   0.110  10.816  0.1421  0.2751 -0.4144
15568SOL    HW148145   5.290   0.194  10.774 -0.4407  0.8377  0.4075
15568SOL    HW248146   5.204   0.131  10.882 -0.2006 -0.8784 -0.3654
15569SOL     OW48147   6.007   1.201   0.110  0.8673  0.0606 -0.3107
15569SOL    HW148148   6.012   1.239   0.022  2.1767 -0.6436 -0.5676
15569SOL    HW248149   5.914   1.205   0.132  0.5564  0.5438 -1.5950
15570SOL     OW48150   7.195   0.238   4.551  0.0683  0.1279  0.1801
15570SOL    HW148151   7.216   0.213   4.641  0.0237 -1.3219 -0.1768
15570SOL    HW248152   7.273   0.283   4.519  0.4138 -0.1142  0.6777
15571SOL     OW48153   1.291   4.982   3.387 -0.4573 -0.2025 -0.6028
15571SOL    HW148154   1.249   5.007   3.305 -0.4215  1.5224 -0.1404
15571SOL    HW248155   1.222   4.936   3.436 -1.6847  1.9510 -0.1514
15572SOL     OW48156   5.275   5.015   5.933 -0.1195  0.2883 -0.6964
15572SOL    HW148157   5.269   5.074   6.008  1.2722 -1.5847  0.9707
15572SOL    HW248158   5.306   5.072   5.861  0.4790  1.7344  0.6385
15573SOL     OW48159   0.806   4.889  11.213 -0.8874 -0.1566  0.1215
15573SOL    HW148160   0.719   4.922  11.192 -0.6800  0.5420  0.3523
15573SOL    HW248161   0.846   4.872  11.128 -0.2709  2.0910 -0.0887
15574SOL     OW48162   5.883   4.879  11.771  0.1538 -0.3596 -0.5228
15574SOL    HW148163   5.826   4.938  11.821  2.3511  2.9048 -1.5241
15574SOL    HW248164   5.830   4.850  11.698 -0.5380  1.9763 -1.0201
15575SOL     OW48165   7.601   4.268   3.825  0.0879  0.1087 -0.0316
15575SOL    HW148166   7.520   4.293   3.783 -1.0948 -0.4827  1.7663
15575SOL    HW248167   7.612   4.175   3.802  0.4917  0.2931 -0.6059
15576SOL     OW48168   1.486   1.758   3.514 -0.0714 -0.2803  0.6123
15576SOL    HW148169   1.435   1.732   3.437  3.0799 -3.4253 -0.7441
15576SOL    HW248170   1.462   1.695   3.582 -1.2438  1.1112  1.5279
15577SOL     OW48171   7.691   2.453   2.818  0.1662 -0.1245  0.0663
15577SOL    HW148172   7.628   2.525   2.819 -0.1268 -0.2193 -2.7474
15577SOL    HW248173   7.776   2.495   2.826 -0.1003  0.1768  1.7812
15578SOL     OW48174   7.082   1.824   7.842  0.4050  0.5159 -0.1831
15578SOL    HW148175   7.112   1.791   7.926  2.0694 -0.8816 -1.2594
15578SOL    HW248176   7.112   1.915   7.840  1.9672  0.0360  0.0321
15579SOL     OW48177   2.468   3.908   0.555  0.1076 -0.4550 -0.1013
15579SOL    HW148178   2.546   3.947   0.595  0.2224  0.3518 -1.0740
15579SOL    HW248179   2.443   3.969   0.485 -1.5550 -0.5436  0.3549
15580SOL     OW48180   2.029   4.398   4.604  0.1269  1.0622 -0.1325
15580SOL    HW148181   2.096   4.460   4.577 -0.3119  2.1071  1.0674
15580SOL    HW248182   1.950   4.425   4.557  0.1839  0.7705 -0.3961
15581SOL     OW48183   0.177   5.581   3.254 -0.1221  0.5256 -0.2629
15581SOL    HW148184   0.095   5.603   3.300 -0.6243  2.0896 -1.8159
15581SOL    HW248185   0.240   5.568   3.325 -1.4623  0.2616  0.9521
15582SOL     OW48186   7.068   0.405   7.645  0.5555 -0.3587  0.2043
15582SOL    HW148187   7.023   0.402   7.730  0.1853 -0.9396 -0.0084
15582SOL    HW248188   7.039   0.326   7.599  0.2243  0.2837 -0.7270
15583SOL     OW48189   7.107   7.114   3.081 -0.2134  0.2424  0.1195
15583SOL    HW148190   7.139   7.029   3.050 -2.6186 -0.2023 -1.3999
15583SOL    HW248191   7.094   7.165   3.002 -1.6712  0.9244  0.7621
15584SOL     OW48192   0.288   5.212  10.013 -0.2278 -0.1575  0.1304
15584SOL    HW148193   0.250   5.294   9.982  0.0182  0.1367  0.5977
15584SOL    HW248194   0.290   5.156   9.935  0.9962  0.7892 -0.5614
15585SOL     OW48195   2.141   4.937   9.170 -0.0851  0.2899  0.1730
15585SOL    HW148196   2.063   4.891   9.139  0.1124 -0.6404  0.9868
15585SOL    HW248197   2.214   4.880   9.143  0.3717  1.3530 -0.9564
15586SOL     OW48198   3.490   5.124   8.340  0.0054 -0.5864  0.5036
15586SOL    HW148199   3.399   5.152   8.350 -0.1630 -0.8479 -0.2083
15586SOL    HW248200   3.530   5.140   8.425 -0.7697 -0.6969  0.8951
15587SOL     OW48201   1.712   0.575  10.966  0.1747  0.3325 -0.0722
15587SOL    HW148202   1.740   0.663  10.938  0.8351 -0.3946 -1.8437
15587SOL    HW248203   1.773   0.552  11.037  1.6404  0.3359 -1.2803
15588SOL     OW48204   7.467   2.883   6.343 -0.4245  0.4328  0.5046
15588SOL    HW148205   7.558   2.899   6.370  0.1365 -0.6192 -0.6621
15588SOL    HW248206   7.426   2.844   6.420 -0.3873  2.4043  1.6074
15589SOL     OW48207   2.686   0.360   2.974 -0.1705 -0.0052 -0.3505
15589SOL    HW148208   2.665   0.280   3.022 -1.9472  0.9427  0.5528
15589SOL    HW248209   2.667   0.339   2.883 -1.1211 -0.4703 -0.0579
15590SOL     OW48210   7.422   6.222   6.110  0.2290 -0.4790  0.1450
15590SOL    HW148211   7.409   6.315   6.132 -0.3135 -0.3341 -0.7401
15590SOL    HW248212   7.335   6.184   6.119 -0.1557 -0.2858 -2.2569
15591SOL     OW48213   4.751   6.517   7.480  0.0272  0.0064  0.4097
15591SOL    HW148214   4.807   6.447   7.513  1.5422  0.7171 -0.6003
15591SOL    HW248215   4.746   6.580   7.553  1.4920  0.4783  0.1310
15592SOL     OW48216   6.405   1.758   9.595  0.1325 -0.1657  0.2825
15592SOL    HW148217   6.351   1.838   9.593 -0.5275 -0.6184 -1.1077
15592SOL    HW248218   6.495   1.790   9.600 -0.1161  0.6749 -0.3738
15593SOL     OW48219   6.026   1.555  12.357  0.3937 -0.0332  0.3504
15593SOL    HW148220   6.018   1.464  12.330  1.5684 -0.1262  0.2473
15593SOL    HW248221   6.035   1.603  12.274 -0.4470  0.2119  0.3925
15594SOL     OW48222   7.067   0.947   1.219 -1.0220 -0.1952 -0.0126
15594SOL    HW148223   7.087   0.889   1.146 -0.7184 -0.7227  0.4795
15594SOL    HW248224   7.096   1.034   1.191  0.7179 -0.6985  0.1518
15595SOL     OW48225   0.306   1.632   4.737 -0.1164 -0.5715  0.4239
15595SOL    HW148226   0.218   1.634   4.699  0.4895  0.1601 -1.0304
15595SOL    HW248227   0.299   1.687   4.816 -0.7613  0.2120 -0.1572
15596SOL     OW48228   1.041   7.488   7.727 -0.4869 -0.0169  0.2829
15596SOL    HW148229   1.052   7.419   7.661 -0.4257 -0.0030  0.2785
15596SOL    HW248230   0.976   7.452   7.788 -2.5475  1.0315 -1.2112
15597SOL     OW48231   1.562   7.614   5.516  0.3085 -0.2447 -0.8441
15597SOL    HW148232   1.524   7.699   5.539  1.7241  0.4320 -0.8718
15597SOL    HW248233   1.602   7.628   5.430 -0.0318 -1.1406 -1.1601
15598SOL     OW48234   0.520   0.164   0.560 -0.5041  0.1429 -0.1920
15598SOL    HW148235   0.583   0.212   0.613 -0.7678  0.5971 -0.2815
15598SOL    HW248236   0.435   0.188   0.596 -0.5885 -2.6054  1.7506
15599SOL     OW48237   4.747   7.538   7.135 -0.2750 -0.1782  0.3552
15599SOL    HW148238   4.801   7.584   7.200 -0.2976 -0.6263  0.7020
15599SOL    HW248239   4.683   7.490   7.188 -0.4583 -0.3415 -0.0137
15600SOL     OW48240   1.271   4.586   8.101  0.3800 -0.1223  0.2224
15600SOL    HW148241   1.307   4.497   8.103 -0.1685 -0.3381  1.6455
15600SOL    HW248242   1.192   4.579   8.047 -0.9159 -1.0436  2.1227
15601SOL     OW48243   6.319   7.096  11.155 -0.1282 -0.1253  0.0278
15601SOL    HW148244   6.254   7.073  11.221 -0.5209  2.1233  0.5123
15601SOL    HW248245   6.288   7.056  11.074 -1.7463  0.3025  0.4093
15602SOL     OW48246   1.663   5.828   5.081  0.1618 -0.0960 -0.4629
15602SOL    HW148247   1.651   5.856   5.171  0.6461 -2.2374  0.3045
15602SOL    HW248248   1.574   5.827   5.044  0.0361  1.5005 -0.2826
15603SOL     OW48249   3.128   5.677  11.538 -0.1963 -0.3215 -0.1664
15603SOL    HW148250   3.219   5.702  11.523 -0.4249  0.4836 -0.2331
15603SOL    HW248251   3.118   5.593  11.493  0.8080 -0.9583  0.7539
15604SOL     OW48252   7.402   6.530   5.898 -0.3247  0.5316 -0.3277
15604SOL    HW148253   7.471   6.481   5.853  0.6041  1.1993  0.3235
15604SOL    HW248254   7.449   6.581   5.964 -1.4654  0.9359  0.1862
15605SOL     OW48255   2.540   5.984  10.012  0.3881  0.2388  0.1479
15605SOL    HW148256   2.497   6.069  10.021  1.0478  0.7165 -0.9889
15605SOL    HW248257   2.564   5.959  10.101  1.8184  2.1274  0.3538
15606SOL     OW48258   4.820   5.126   4.773 -0.1793  0.0469  0.7369
15606SOL    HW148259   4.848   5.038   4.798 -1.4780 -0.8138 -0.6200
15606SOL    HW248260   4.726   5.116   4.754  0.1424  1.1585 -1.7616
15607SOL     OW48261   7.118   6.047   0.193 -0.7758 -0.0337 -0.2781
15607SOL    HW148262   7.117   6.139   0.219 -0.5599 -0.0964 -0.0535
15607SOL    HW248263   7.114   5.998   0.275  0.3137 -0.2313 -0.3304
15608SOL     OW48264   3.253   3.602   8.543 -0.3884 -0.7543 -0.5079
15608SOL    HW148265   3.289   3.526   8.498  1.1238 -0.5943  0.3522
15608SOL    HW248266   3.322   3.668   8.537 -0.1470 -0.6963  1.8995
15609SOL     OW48267   4.923   1.385   5.424 -0.3284 -0.1108  0.2637
15609SOL    HW148268   4.974   1.304   5.423  0.0861  0.1465  0.2901
15609SOL    HW248269   4.848   1.366   5.481  0.5561 -0.0005  1.4913
15610SOL     OW48270   4.411   6.094   2.657  0.6833  0.0129 -0.0372
15610SOL    HW148271   4.434   6.050   2.575 -0.3258  0.2191 -0.4348
15610SOL    HW248272   4.456   6.042   2.725 -2.8115 -3.6237 -0.1413
15611SOL     OW48273   1.352   7.070  11.680 -0.2238 -0.0641  0.6308
15611SOL    HW148274   1.442   7.095  11.657 -0.5713  0.3531 -0.3117
15611SOL    HW248275   1.359   6.979  11.707  0.3087 -0.4011 -0.5870
15612SOL     OW48276   6.308   7.176   4.268 -0.5731  0.3615  0.2328
15612SOL    HW148277   6.319   7.227   4.349  0.8316  1.7081 -0.7362
15612SOL    HW248278   6.357   7.225   4.203 -0.0289 -1.7237 -1.0193
15613SOL     OW48279   3.620   4.635   3.882  0.1973  0.1633  0.0790
15613SOL    HW148280   3.599   4.586   3.803 -0.7109 -0.5232  0.7273
15613SOL    HW248281   3.593   4.578   3.954  2.8478 -0.0990  0.9776
15614SOL     OW48282   0.861   0.413   8.248 -0.5293 -0.0238  0.3364
15614SOL    HW148283   0.930   0.452   8.301 -0.9744  0.3472  0.6492
15614SOL    HW248284   0.830   0.484   8.192  0.3574 -0.5651 -0.8836
15615SOL     OW48285   3.099   6.824   1.064  0.1116 -0.0278  0.2081
15615SOL    HW148286   3.092   6.803   1.157  1.5913  1.9604  0.8357
15615SOL    HW248287   3.056   6.909   1.055 -0.6846 -0.5398 -1.0988
15616SOL     OW48288   2.630   7.650   2.637  0.0551  0.2725  0.3377
15616SOL    HW148289   2.608   7.630   2.728 -0.4146  0.0905  0.1861
15616SOL    HW248290   2.687   7.727   2.643 -0.1443  0.3895  0.7732
15617SOL     OW48291   5.953   0.351   6.894 -0.5353  0.1789  0.0662
15617SOL    HW148292   5.946   0.278   6.833 -1.9698  0.8231 -0.5807
15617SOL    HW248293   6.014   0.412   6.851 -1.2274  0.4477 -0.5679
15618SOL     OW48294   1.285   4.743   8.340 -0.2445 -0.2838 -0.2221
15618SOL    HW148295   1.255   4.688   8.268  0.8880 -2.7109  1.0598
15618SOL    HW248296   1.265   4.832   8.311 -2.6264 -1.3403 -2.1589
15619SOL     OW48297   4.310   7.637   3.130  0.0034  0.2722 -0.4851
15619SOL    HW148298   4.293   7.570   3.064  1.4052 -0.6346  0.0353
15619SOL    HW248299   4.336   7.715   3.080  2.2749 -0.7596 -1.0329
15620SOL     OW48300   4.275   2.836   3.471 -0.3780 -0.0168  0.0190
15620SOL    HW148301   4.199   2.779   3.455 -1.0951  0.9440 -0.0663
15620SOL    HW248302   4.321   2.839   3.388 -0.5954 -0.0960 -0.1047
15621SOL     OW48303   3.615   0.401  10.148 -0.0502 -0.4749 -0.3263
15621SOL    HW148304   3.583   0.469  10.088 -2.1036 -0.3136  0.8734
15621SOL    HW248305   3.665   0.448  10.214 -0.5694 -0.2532 -0.0895
15622SOL     OW48306   0.397   5.416   2.240 -0.3973  0.0128 -0.2582
15622SOL    HW148307   0.458   5.417   2.166 -1.8536 -2.0357 -1.5963
15622SOL    HW248308   0.432   5.347   2.298 -1.0018 -0.6482 -0.6652
15623SOL     OW48309   5.326   6.678  11.442  0.2274 -0.0552 -0.2649
15623SOL    HW148310   5.282   6.615  11.498  0.9311 -1.0770 -0.8372
15623SOL    HW248311   5.265   6.752  11.436 -0.2553 -0.3188  1.0661
15624SOL     OW48312   0.748   3.335  10.424  1.0030  0.4055 -0.2366
15624SOL    HW148313   0.653   3.328  10.413  1.0278 -1.9788  0.4643
15624SOL    HW248314   0.766   3.429  10.420 -1.1146  0.8066 -2.3102
15625SOL     OW48315   7.570   2.196  12.034  0.4525  0.2830 -0.2624
15625SOL    HW148316   7.613   2.274  12.000  2.1295 -0.9712 -1.2044
15625SOL    HW248317   7.537   2.151  11.957 -1.3271  0.4721  0.3396
15626SOL     OW48318   6.063   7.980   9.658  0.2120  0.0865  0.2273
15626SOL    HW148319   6.110   7.930   9.592  1.0405  1.4399 -0.2475
15626SOL    HW248320   6.066   8.070   9.627 -0.3914  0.5904  1.5335
15627SOL     OW48321   3.683   3.130   6.434  0.5557 -0.0986 -0.3382
15627SOL    HW148322   3.643   3.217   6.433 -1.0074 -0.7943 -0.2169
15627SOL    HW248323   3.776   3.147   6.447 -0.0083  1.4510  2.2511
15628SOL     OW48324   2.499   1.415  10.206  0.1987 -0.0056  0.5142
15628SOL    HW148325   2.416   1.409  10.160  0.2831 -0.5581  0.4265
15628SOL    HW248326   2.478   1.396  10.297  0.4328 -1.5362  0.2719
15629SOL     OW48327   3.781   2.494   1.253  0.5597 -0.0038  0.3651
15629SOL    HW148328   3.702   2.456   1.291 -1.0906 -0.7989 -3.3975
15629SOL    HW248329   3.851   2.434   1.280 -1.0638 -2.5308 -0.5970
15630SOL     OW48330   0.306   7.279   3.113 -0.0822 -0.1268  0.4127
15630SOL    HW148331   0.365   7.352   3.091 -1.1723  0.7634  0.3597
15630SOL    HW248332   0.339   7.247   3.197 -0.1443  1.0610  0.9216
15631SOL     OW48333   4.001   6.321  11.686 -0.4761  0.0613 -0.0966
15631SOL    HW148334   4.020   6.258  11.617 -0.7928  0.9295 -1.0109
15631SOL    HW248335   3.952   6.272  11.752 -0.5444 -0.6847 -0.6937
15632SOL     OW48336   7.122   4.658   4.784  0.1010  0.3131  0.2334
15632SOL    HW148337   7.045   4.683   4.834 -0.3343 -1.0104  0.2598
15632SOL    HW248338   7.089   4.597   4.718  1.4104 -2.3759  1.8554
15633SOL     OW48339   6.366   6.825  11.354  0.4481 -1.0704 -0.1159
15633SOL    HW148340   6.358   6.906  11.405  2.3759  1.3256 -3.2125
15633SOL    HW248341   6.276   6.797  11.339 -0.2214 -1.2824  3.4218
15634SOL     OW48342   7.876   1.150   8.621  0.2874  0.3051  0.1572
15634SOL    HW148343   7.796   1.122   8.665  0.1562 -3.0997 -1.8464
15634SOL    HW248344   7.935   1.075   8.630  1.6173  0.9903 -2.0806
15635SOL     OW48345   3.638   1.497   2.121 -0.0884 -0.0774  0.1441
15635SOL    HW148346   3.693   1.441   2.066  0.0328 -0.9679  1.1464
15635SOL    HW248347   3.559   1.511   2.068 -0.2042 -1.3526 -0.0660
15636SOL     OW48348   4.554   7.730   2.230 -0.1779  0.0417  0.4672
15636SOL    HW148349   4.520   7.645   2.256 -2.9673  0.4727 -1.2780
15636SOL    HW248350   4.482   7.791   2.248  0.1350  1.2965 -2.0670
15637SOL     OW48351   1.873   1.088   9.271  0.2324  0.3968 -0.0657
15637SOL    HW148352   1.779   1.110   9.269  0.3927  1.1881 -2.6966
15637SOL    HW248353   1.887   1.035   9.193  1.9915  0.2690  0.2942
15638SOL     OW48354   1.633   5.058   5.098 -0.1280 -0.1214  0.8328
15638SOL    HW148355   1.707   5.072   5.039 -0.4815 -1.2069  0.1146
15638SOL    HW248356   1.651   4.974   5.140 -1.3046 -0.7719  0.0858
15639SOL     OW48357   1.148   1.644   6.023 -0.1742  0.0377  0.2051
15639SOL    HW148358   1.204   1.695   6.082  1.0745  0.0770 -0.9634
15639SOL    HW248359   1.066   1.693   6.019  1.4204  2.8281 -1.9499
15640SOL     OW48360   2.977   0.776   2.911  0.2156  0.1127  0.7046
15640SOL    HW148361   2.947   0.688   2.932 -2.0414  0.4447 -0.7308
15640SOL    HW248362   3.038   0.764   2.838  0.3369 -0.3032  0.8759
15641SOL     OW48363   2.612   5.626   6.069  0.6142  0.1435  0.6027
15641SOL    HW148364   2.540   5.686   6.050  0.9967  0.1401 -0.9646
15641SOL    HW248365   2.690   5.680   6.062  0.8648 -0.1783  0.8712
15642SOL     OW48366   3.496   7.107   0.081 -0.2378  0.5957  0.2367
15642SOL    HW148367   3.458   7.185   0.122 -1.9994  0.4497 -0.9561
15642SOL    HW248368   3.519   7.050   0.153 -2.8518  0.5025  1.1161
15643SOL     OW48369   2.625   2.783   2.487  0.7008 -0.5109 -1.0894
15643SOL    HW148370   2.558   2.816   2.546 -0.4770  0.3760 -2.8298
15643SOL    HW248371   2.648   2.697   2.522  0.0825 -0.0016  0.6453
15644SOL     OW48372   1.838   3.173   7.725  0.1750 -0.1127  0.3724
15644SOL    HW148373   1.884   3.254   7.747  2.6067 -1.0662 -0.8284
15644SOL    HW248374   1.875   3.108   7.785  0.0171 -0.8182 -0.2836
15645SOL     OW48375   7.534   2.181   6.177 -0.0489 -0.3315 -0.0133
15645SOL    HW148376   7.543   2.107   6.237 -0.6667 -0.4334 -0.0333
15645SOL    HW248377   7.542   2.258   6.233 -0.6590 -0.4263  0.2192
15646SOL     OW48378   2.321   6.792  10.629  0.1757 -0.2087 -0.3931
15646SOL    HW148379   2.296   6.880  10.657  0.1612 -0.8355  1.7947
15646SOL    HW248380   2.238   6.749  10.606 -0.0194 -0.1748  0.2318
15647SOL     OW48381   1.615   7.819   5.055 -0.6509 -0.6699 -0.2078
15647SOL    HW148382   1.527   7.784   5.044 -0.8561 -0.1465 -0.2317
15647SOL    HW248383   1.603   7.914   5.058 -0.0937 -0.5997 -0.1715
15648SOL     OW48384   2.222   6.800   7.822  0.2824  0.2031 -0.3227
15648SOL    HW148385   2.224   6.878   7.767 -0.4705  1.4258  1.2870
15648SOL    HW248386   2.130   6.790   7.846  0.6671  0.1610  1.2571
15649SOL     OW48387   1.218   0.993  11.418  0.2373  0.4380  0.5041
15649SOL    HW148388   1.226   0.907  11.460  0.1850  0.2044  0.0484
15649SOL    HW248389   1.231   1.056  11.489 -1.0116  0.0661  1.0896
15650SOL     OW48390   0.135   3.401   6.388  0.4602 -0.0322 -0.3365
15650SOL    HW148391   0.052   3.436   6.420  1.9172  2.4238  1.0402
15650SOL    HW248392   0.138   3.311   6.421 -2.0719 -0.5949 -1.3713
15651SOL     OW48393   4.364   5.998   4.466  0.3974 -0.1707 -0.1667
15651SOL    HW148394   4.438   5.995   4.405  0.1413  0.1280 -0.4904
15651SOL    HW248395   4.340   5.906   4.479  1.6743 -0.3728  0.9756
15652SOL     OW48396   0.889   6.788   2.192  0.6825 -0.2720 -0.0449
15652SOL    HW148397   0.894   6.733   2.114  0.9541 -0.9463  0.4397
15652SOL    HW248398   0.948   6.747   2.255 -0.4128 -0.4154  0.9265
15653SOL     OW48399   0.619   6.787   9.896 -0.2132 -0.9674 -0.0419
15653SOL    HW148400   0.528   6.786   9.866  0.2177 -1.8628 -1.4544
15653SOL    HW248401   0.636   6.877   9.922 -1.6707 -0.9169  0.7975
15654SOL     OW48402   2.694   7.145   0.000  0.3634  0.7130 -0.4142
15654SOL    HW148403   2.713   7.232   0.035 -0.7226  0.8866 -0.2208
15654SOL    HW248404   2.696   7.088   0.077  1.2392  0.5209 -0.5636
15655SOL     OW48405   0.881   3.563   7.978 -0.1428  0.2024  0.0909
15655SOL    HW148406   0.908   3.600   8.063  2.1171 -1.1746  0.0581
15655SOL    HW248407   0.939   3.489   7.965 -0.9487 -0.0831 -2.3548
15656SOL     OW48408   7.143   7.694   0.983 -0.0532 -0.0809 -0.0482
15656SOL    HW148409   7.173   7.635   0.914 -0.4588 -0.1854 -0.1366
15656SOL    HW248410   7.201   7.675   1.057 -0.0099 -0.4049 -0.1613
15657SOL     OW48411   3.603   5.403  11.437 -0.5624  0.2336  0.1975
15657SOL    HW148412   3.675   5.439  11.489 -1.4334  0.4650  1.2906
15657SOL    HW248413   3.608   5.308  11.453  0.8427 -0.0388 -1.5297
15658SOL     OW48414   6.265   1.046  12.269  0.1429 -0.1542 -0.1102
15658SOL    HW148415   6.349   1.043  12.314  0.5452 -0.0932 -0.8336
15658SOL    HW248416   6.284   1.090  12.186 -0.3123 -1.3394 -0.8730
15659SOL     OW48417   5.102   7.121   2.527 -0.3996  0.0462 -0.2306
15659SOL    HW148418   5.169   7.095   2.464  1.9491  1.3953  1.5345
15659SOL    HW248419   5.075   7.209   2.500  0.1264  0.3594  0.2431
15660SOL     OW48420   5.808   3.267   7.719 -0.5443  0.3419 -0.1838
15660SOL    HW148421   5.753   3.325   7.667 -0.5594 -1.1656 -1.9351
15660SOL    HW248422   5.752   3.239   7.791 -0.5720  2.3300  0.6368
15661SOL     OW48423   2.475   4.795   4.696 -0.4944 -0.1336  0.4390
15661SOL    HW148424   2.525   4.777   4.615 -1.7232  0.2337 -0.4235
15661SOL    HW248425   2.537   4.774   4.766  0.8034  0.0587 -0.5856
15662SOL     OW48426   0.491   2.943   6.742  0.1507  0.0000 -0.2306
15662SOL    HW148427   0.534   2.970   6.661  0.8903  0.3798  0.2842
15662SOL    HW248428   0.415   2.892   6.713  1.7569 -2.0011 -1.1670
15663SOL     OW48429   6.518   0.089   7.596  0.1655 -0.2358 -0.1103
15663SOL    HW148430   6.609   0.099   7.626  0.3082  0.0435 -0.6250
15663SOL    HW248431   6.466   0.094   7.675  0.3261  2.9748 -0.1042
15664SOL     OW48432   3.122   0.267   0.149 -0.4699 -0.6095  0.3731
15664SOL    HW148433   3.035   0.255   0.113 -0.5986 -1.3466  0.9015
15664SOL    HW248434   3.144   0.358   0.130 -2.4724  0.4560  2.6657
15665SOL     OW48435   7.327   5.066   2.298 -0.1536 -0.3279  0.0840
15665SOL    HW148436   7.252   5.077   2.357 -0.1912 -2.4846  0.5201
15665SOL    HW248437   7.292   5.019   2.223  0.9355 -2.3438  0.7777
15666SOL     OW48438   2.748   5.872  10.691 -0.2234 -0.0439  0.5872
15666SOL    HW148439   2.745   5.776  10.685  3.1650 -0.2322  0.3637
15666SOL    HW248440   2.678   5.901  10.632  0.7591 -2.4073 -2.0102
15667SOL     OW48441   3.129   0.740   9.096  0.2762 -0.1946 -0.4587
15667SOL    HW148442   3.174   0.814   9.055  0.1948  0.6389  0.8884
15667SOL    HW248443   3.114   0.678   9.024  2.8644 -0.1827 -1.1302
15668SOL     OW48444   4.863   3.245   1.399  0.9203 -0.2024  0.1795
15668SOL    HW148445   4.887   3.226   1.309  2.3936 -2.0653  0.9124
15668SOL    HW248446   4.782   3.197   1.414  1.3575 -0.9393  0.2094
15669SOL     OW48447   6.783   1.363  10.628 -0.4537 -0.1835 -0.3690
15669SOL    HW148448   6.780   1.417  10.548 -1.9321  2.3071  1.2157
15669SOL    HW248449   6.786   1.427  10.699  2.0579 -2.2931  1.6417
15670SOL     OW48450   4.197   4.970   0.878 -0.4113  0.0941  0.6055
15670SOL    HW148451   4.271   5.030   0.862 -0.2541 -0.2590 -0.0106
15670SOL    HW248452   4.164   4.995   0.965 -0.3986  1.1320  0.3237
15671SOL     OW48453   6.477   6.429   2.514 -0.3721  0.7216  0.2337
15671SOL    HW148454   6.554   6.380   2.484  0.2884  1.2068  1.0942
15671SOL    HW248455   6.405   6.398   2.458  0.2472 -0.4459  0.0613
15672SOL     OW48456   7.948   7.475   2.016 -0.1434  0.0847  0.7745
15672SOL    HW148457   8.005   7.551   2.004  1.7862 -1.2882  0.7079
15672SOL    HW248458   7.934   7.471   2.111 -1.9081  1.6053  0.6268
15673SOL     OW48459   6.322   2.194   9.095  0.4861 -0.6341  0.5688
15673SOL    HW148460   6.273   2.138   9.035  2.1150 -2.6203  0.9830
15673SOL    HW248461   6.314   2.282   9.058 -1.5702 -1.2100 -0.5085
15674SOL     OW48462   5.500   4.283   3.473 -0.6818 -1.1040  0.0538
15674SOL    HW148463   5.487   4.365   3.519 -2.6214 -1.4282  0.1721
15674SOL    HW248464   5.587   4.253   3.501 -1.5955 -1.1056  3.2505
15675SOL     OW48465   3.915   2.324   1.766  0.2833  0.1802  0.0800
15675SOL    HW148466   3.840   2.312   1.708 -0.6442  3.8727  0.2319
15675SOL    HW248467   3.877   2.326   1.854  0.8027  0.4544  0.3012
15676SOL     OW48468   7.557   6.721   3.181  0.1607 -0.6564 -0.3631
15676SOL    HW148469   7.471   6.700   3.215 -0.4211  1.6745 -0.2132
15676SOL    HW248470   7.555   6.692   3.090 -0.8573 -0.4996 -0.4033
15677SOL     OW48471   0.578   0.167   9.504 -0.1624 -0.1790 -0.2400
15677SOL    HW148472   0.526   0.216   9.568 -0.8487 -0.5321 -0.5253
15677SOL    HW248473   0.635   0.111   9.557 -1.2993 -1.0661  0.0676
15678SOL     OW48474   2.463   4.035   7.404 -0.0748 -0.3120  0.4333
15678SOL    HW148475   2.507   3.951   7.390  0.6806  0.0941  0.2823
15678SOL    HW248476   2.371   4.012   7.418  0.0215 -1.1241 -0.1562
15679SOL     OW48477   0.292   2.407   0.860 -0.3915 -0.1311  0.7457
15679SOL    HW148478   0.378   2.437   0.831 -0.5457  1.5553  1.8937
15679SOL    HW248479   0.237   2.411   0.782  0.2559  0.0249  0.2946
15680SOL     OW48480   2.376   1.346   0.509  0.5146 -0.2126 -0.1855
15680SOL    HW148481   2.410   1.370   0.595 -1.5743 -0.4283  0.7378
15680SOL    HW248482   2.435   1.277   0.478  2.4997  1.2601  0.1294
15681SOL     OW48483   0.884   0.036   5.274 -0.1883  0.1297 -0.1665
15681SOL    HW148484   0.882  -0.038   5.334  1.9040  0.0001 -0.1829
15681SOL    HW248485   0.849   0.001   5.192  0.7115 -0.8324 -0.1547
15682SOL     OW48486   5.534   5.378   5.395 -0.3542  0.0084 -0.1745
15682SOL    HW148487   5.445   5.357   5.425 -1.3821  2.2690 -1.3504
15682SOL    HW248488   5.542   5.330   5.312 -0.4081 -0.3383  0.0183
15683SOL     OW48489   2.897   5.128   4.007  0.4016  0.0978  0.4940
15683SOL    HW148490   2.928   5.104   3.919  0.7988  0.3002  0.5747
15683SOL    HW248491   2.876   5.045   4.048 -0.6118  0.0539 -0.0879
15684SOL     OW48492   4.373   7.288   3.180 -0.4184 -0.1326 -1.0984
15684SOL    HW148493   4.384   7.271   3.086  0.5981  1.2354 -1.2554
15684SOL    HW248494   4.286   7.324   3.188 -0.1617  0.6371 -1.6625
15685SOL     OW48495   4.164   6.889   6.855  0.5389  0.5719  0.5904
15685SOL    HW148496   4.152   6.947   6.930  0.4413  1.5247 -0.1444
15685SOL    HW248497   4.256   6.898   6.832  1.2617 -1.7686  2.2062
15686SOL     OW48498   1.709   2.214   9.250  0.0001 -0.0691 -0.0303
15686SOL    HW148499   1.731   2.122   9.231 -0.9642 -0.0812 -1.2298
15686SOL    HW248500   1.764   2.264   9.190  0.3213  0.1359  0.4289
15687SOL     OW48501   5.831   6.080  11.090  0.4718  0.2081 -0.0097
15687SOL    HW148502   5.765   6.012  11.101  0.2871  0.5277  0.9110
15687SOL    HW248503   5.784   6.162  11.103  1.0187  0.4436  0.5366
15688SOL     OW48504   2.241   4.075  12.038  0.4641  0.3197 -0.2372
15688SOL    HW148505   2.324   4.122  12.052  0.6408  0.2591 -1.0495
15688SOL    HW248506   2.205   4.114  11.958  0.6048 -0.9086 -0.9170
15689SOL     OW48507   2.866   6.485  11.340 -0.9119 -0.3831  0.0064
15689SOL    HW148508   2.813   6.564  11.349 -0.4293 -0.1407  0.7338
15689SOL    HW248509   2.927   6.487  11.413 -1.1266 -1.6157  0.2496
15690SOL     OW48510   7.484   6.868   5.240  0.0541  0.5219 -0.1247
15690SOL    HW148511   7.513   6.827   5.158 -1.2740  1.2962 -1.0248
15690SOL    HW248512   7.565   6.891   5.285  0.8376 -1.5759 -0.3335
15691SOL     OW48513   7.414   1.801   7.669  0.4879  0.5222  0.8199
15691SOL    HW148514   7.449   1.839   7.750  0.2309  0.9620  0.7299
15691SOL    HW248515   7.322   1.784   7.688  0.5175  0.2736  0.7419
15692SOL     OW48516   6.966   0.152  10.943 -0.2242  0.2434 -0.2444
15692SOL    HW148517   6.877   0.146  10.909 -0.0303 -0.4456 -0.6518
15692SOL    HW248518   6.982   0.246  10.951 -0.9817  0.3764 -0.1625
15693SOL     OW48519   4.575   3.134   4.401  0.0847 -0.2868 -0.0747
15693SOL    HW148520   4.638   3.110   4.469 -1.4090  0.5191  1.6386
15693SOL    HW248521   4.586   3.228   4.389  2.4253 -0.7789 -3.2155
15694SOL     OW48522   4.814   1.741  12.181 -0.2692  0.0945  0.5990
15694SOL    HW148523   4.762   1.660  12.172  0.1903 -0.6300  3.5945
15694SOL    HW248524   4.748   1.810  12.187 -0.7068 -0.1940 -0.5130
15695SOL     OW48525   5.886   2.850  10.184 -0.2384 -0.6629 -0.0914
15695SOL    HW148526   5.976   2.859  10.214  0.3114 -3.3266 -0.6968
15695SOL    HW248527   5.892   2.853  10.089 -0.9977  0.3857 -0.1274
15696SOL     OW48528   1.395   2.206   6.103 -0.0186  0.3834  0.0263
15696SOL    HW148529   1.310   2.244   6.129 -0.6200 -0.3576 -0.8134
15696SOL    HW248530   1.382   2.112   6.108  1.2657  0.2518  1.4362
15697SOL     OW48531   3.831   0.605   0.548 -0.1192 -0.1887  0.0515
15697SOL    HW148532   3.914   0.568   0.578  0.1593  1.3722  1.3135
15697SOL    HW248533   3.852   0.644   0.463  0.5433  0.4798  0.5085
15698SOL     OW48534   5.905   7.761   7.520 -0.1868 -0.4819  0.6121
15698SOL    HW148535   5.997   7.785   7.516 -0.2399 -0.3668 -0.1155
15698SOL    HW248536   5.905   7.671   7.553  0.2858 -0.9920 -0.7262
15699SOL     OW48537   5.097   4.122  12.064 -0.3389 -0.1005  0.5178
15699SOL    HW148538   5.184   4.157  12.046  0.6044 -1.0230  2.8484
15699SOL    HW248539   5.053   4.191  12.114 -0.3818 -0.1977  0.6178
15700SOL     OW48540   3.689   5.417  12.129  0.8292 -0.1504 -0.2258
15700SOL    HW148541   3.701   5.333  12.083  0.4915 -0.1936 -0.2376
15700SOL    HW248542   3.594   5.426  12.138  0.8897 -0.1777  0.5342
15701SOL     OW48543   6.190   6.489  10.768  0.0344  0.4392  0.3806
15701SOL    HW148544   6.285   6.493  10.761  0.0397 -1.3579 -1.4766
15701SOL    HW248545   6.160   6.468  10.679 -2.1458  1.4105  0.8186
15702SOL     OW48546   5.292   0.931   1.638  0.2563 -1.0748  0.3755
15702SOL    HW148547   5.379   0.891   1.631  0.5160 -0.6236  1.0081
15702SOL    HW248548   5.292   0.999   1.570  0.4657 -0.9488  0.5003
15703SOL     OW48549   7.335   2.443   8.652  0.3503 -0.7566 -0.0856
15703SOL    HW148550   7.309   2.527   8.614  1.3319  0.2334  1.3319
15703SOL    HW248551   7.325   2.380   8.581  1.6611  0.9096 -1.8258
15704SOL     OW48552   3.309   1.260  10.498 -0.3393  0.0980  0.0901
15704SOL    HW148553   3.275   1.262  10.409 -1.2940  0.3504  0.4486
15704SOL    HW248554   3.396   1.301  10.491 -0.2319 -0.2628 -0.7848
15705SOL     OW48555   2.232   2.876  11.520  0.2001  0.4766  0.0084
15705SOL    HW148556   2.201   2.956  11.562 -1.2293 -0.1363  0.1986
15705SOL    HW248557   2.152   2.834  11.488  0.9924 -0.5409 -0.6711
15706SOL     OW48558   6.703   7.026   2.042 -0.8848 -0.2908 -0.2033
15706SOL    HW148559   6.659   7.075   1.972  0.4621 -0.5294 -1.2562
15706SOL    HW248560   6.764   7.089   2.079 -0.2004 -0.7236 -0.5730
15707SOL     OW48561   6.371   7.064   0.841 -0.0944  0.3594  0.0793
15707SOL    HW148562   6.420   7.068   0.759 -0.4035  2.7161 -0.0704
15707SOL    HW248563   6.354   6.971   0.855  0.5936 -0.1537 -2.1443
15708SOL     OW48564   3.064   2.199   3.584  0.6060 -0.2580 -0.4308
15708SOL    HW148565   3.108   2.213   3.501  2.3234 -1.7777  0.1739
15708SOL    HW248566   3.132   2.212   3.650  0.0770 -2.2506  0.5651
15709SOL     OW48567   3.582   3.156   2.617 -0.2702  0.0990  0.0505
15709SOL    HW148568   3.598   3.246   2.645 -2.1926  0.9839 -1.4239
15709SOL    HW248569   3.604   3.103   2.693  0.1875  1.8748  1.2265
15710SOL     OW48570   4.383   0.242   3.389  0.0254  0.2198  0.1367
15710SOL    HW148571   4.307   0.190   3.363  1.3732 -1.4696 -0.6779
15710SOL    HW248572   4.438   0.245   3.310  1.7077 -0.3562  1.2285
15711SOL     OW48573   0.863   5.209   6.586 -0.7088 -0.1881  0.3531
15711SOL    HW148574   0.853   5.283   6.527  1.3031  0.0469  0.2292
15711SOL    HW248575   0.827   5.135   6.538 -0.0984  0.1947 -0.7294
15712SOL     OW48576   0.947   7.142   2.609  0.5888  0.2396 -0.2201
15712SOL    HW148577   0.940   7.217   2.669  1.2809  0.5886 -0.5659
15712SOL    HW248578   1.041   7.131   2.596  0.4653 -0.2854 -0.6886
15713SOL     OW48579   1.915   5.799   8.644 -0.0842 -0.1977  0.4877
15713SOL    HW148580   1.873   5.885   8.639  0.5549  0.1038  0.1664
15713SOL    HW248581   1.875   5.748   8.573 -2.0683 -0.9179  2.0291
15714SOL     OW48582   7.013   0.801   7.545 -0.0082  0.6639  0.1507
15714SOL    HW148583   7.018   0.708   7.519 -0.7172  0.3665  1.0286
15714SOL    HW248584   7.053   0.803   7.632 -3.1659  0.4798  1.7516
15715SOL     OW48585   3.282   3.836   6.134  0.1363 -0.8892 -0.1800
15715SOL    HW148586   3.248   3.774   6.199  0.2489 -2.5908 -1.6503
15715SOL    HW248587   3.375   3.843   6.155 -0.1016 -0.2886  0.7076
15716SOL     OW48588   6.247   5.679   4.388  0.3206  0.2400  0.0217
15716SOL    HW148589   6.210   5.734   4.319  1.4303 -1.1995 -1.8151
15716SOL    HW248590   6.236   5.731   4.468 -0.1765  2.3941 -1.3493
15717SOL     OW48591   4.399   6.595   8.135 -0.0331 -0.1579 -0.5862
15717SOL    HW148592   4.464   6.525   8.128 -0.3597 -0.5513  0.2073
15717SOL    HW248593   4.331   6.571   8.071 -0.7478 -1.2480  0.5384
15718SOL     OW48594   5.777   6.907   7.378  0.9932  0.3454  0.2454
15718SOL    HW148595   5.730   6.960   7.314 -0.0179 -1.7993 -0.9103
15718SOL    HW248596   5.710   6.875   7.437  0.7639 -2.8871 -1.5226
15719SOL     OW48597   1.131   1.866  11.619 -0.2114 -0.2623  0.3307
15719SOL    HW148598   1.155   1.785  11.574 -1.5746 -1.1149  1.0605
15719SOL    HW248599   1.171   1.935  11.566 -0.1178 -1.3231 -1.0600
15720SOL     OW48600   3.389   2.552   9.455 -0.1799  0.1694  0.0138
15720SOL    HW148601   3.356   2.621   9.512  0.2918  0.4646 -0.0638
15720SOL    HW248602   3.376   2.586   9.366  1.1457  0.6798 -0.0026
15721SOL     OW48603   7.835   5.129   0.214  0.9733 -0.1908 -0.0916
15721SOL    HW148604   7.763   5.188   0.192  2.0980  0.6865 -1.6084
15721SOL    HW248605   7.877   5.171   0.289  0.2514 -0.4219  0.4555
15722SOL     OW48606   1.341   4.732   9.764  0.1912  0.1969  0.8201
15722SOL    HW148607   1.252   4.702   9.782  0.3405 -1.2589 -0.6568
15722SOL    HW248608   1.344   4.745   9.669  1.7219 -0.4540  0.7496
15723SOL     OW48609   7.233   4.174   9.181 -0.0154  0.4023  0.6530
15723SOL    HW148610   7.253   4.231   9.106  3.0757  0.1323  1.1437
15723SOL    HW248611   7.228   4.086   9.144 -0.3282  0.4733  0.5236
15724SOL     OW48612   2.579   3.178  12.233 -0.0278  0.0268 -0.6986
15724SOL    HW148613   2.522   3.199  12.159  0.7151  1.5912 -0.8775
15724SOL    HW248614   2.645   3.248  12.232  1.8370 -1.6274 -0.4468
15725SOL     OW48615   3.836   0.622   3.628  0.3656 -0.3680  0.5261
15725SOL    HW148616   3.752   0.604   3.587  0.4465 -2.1115  1.0602
15725SOL    HW248617   3.829   0.585   3.716  1.6224 -0.3915  0.6378
15726SOL     OW48618   6.530   7.597   2.410  0.3996 -0.0679 -0.0938
15726SOL    HW148619   6.584   7.654   2.356  2.0826 -1.0660  0.4527
15726SOL    HW248620   6.440   7.621   2.388  1.0411  1.7269 -0.9681
15727SOL     OW48621   3.401   4.815   8.370  0.0493 -0.0653 -0.4042
15727SOL    HW148622   3.417   4.757   8.295 -2.9325  1.9452 -2.8695
15727SOL    HW248623   3.460   4.890   8.355 -1.0836  0.6925 -1.2979
15728SOL     OW48624   0.488   5.938   6.560 -0.2292  0.5783  0.2441
15728SOL    HW148625   0.503   5.912   6.469 -0.1810 -1.4692  0.7989
15728SOL    HW248626   0.575   5.956   6.595 -0.0951 -0.2487  0.3387
15729SOL     OW48627   6.258   1.702   7.895 -0.1442 -0.1941 -0.0925
15729SOL    HW148628   6.281   1.728   7.984  0.6346 -0.3872 -0.2347
15729SOL    HW248629   6.243   1.785   7.850  1.5617  0.0219 -0.3332
15730SOL     OW48630   7.695   6.952   3.122  0.4924  0.3676 -0.1130
15730SOL    HW148631   7.740   6.898   3.058  0.8487 -0.5040  0.8498
15730SOL    HW248632   7.621   6.898   3.151  0.0112  0.9745 -0.2054
15731SOL     OW48633   3.110   5.195  12.373 -0.0989  0.3463 -0.0152
15731SOL    HW148634   3.078   5.254  12.305 -1.2587 -1.4962 -1.1472
15731SOL    HW248635   3.174   5.140  12.329  1.1517  0.8558  1.0829
15732SOL     OW48636   7.793   6.315   0.254  0.3793 -0.0566  0.4002
15732SOL    HW148637   7.787   6.404   0.219 -2.3629  0.7695  2.5686
15732SOL    HW248638   7.703   6.282   0.249  0.3831 -0.9449  3.7035
15733SOL     OW48639   5.742   0.240   0.714  0.0261 -0.1347  0.1899
15733SOL    HW148640   5.771   0.326   0.683  0.1575 -0.1396  0.2972
15733SOL    HW248641   5.758   0.242   0.808  0.1460 -0.3230  0.1736
15734SOL     OW48642   5.875   4.682  11.266  0.1799  0.5344 -0.2115
15734SOL    HW148643   5.945   4.703  11.205  0.5356  0.9172  0.3198
15734SOL    HW248644   5.885   4.588  11.282 -0.2521  0.3117 -1.1450
15735SOL     OW48645   7.755   1.927   9.958  0.4866  0.4830  0.0741
15735SOL    HW148646   7.705   1.914   9.878 -0.4079 -4.0603  1.0882
15735SOL    HW248647   7.843   1.896   9.937  0.2839 -0.5923  0.7447
15736SOL     OW48648   0.581   7.563   5.119  0.3848 -0.4974  0.1184
15736SOL    HW148649   0.579   7.554   5.214  0.2766  0.3614  0.1986
15736SOL    HW248650   0.520   7.634   5.100 -0.6983 -1.6088 -0.7195
15737SOL     OW48651   6.264   1.413   9.077 -0.2077 -0.2612 -0.7418
15737SOL    HW148652   6.260   1.509   9.079  0.0657 -0.1958 -2.3459
15737SOL    HW248653   6.191   1.385   9.132 -1.5630  0.8759 -1.8885
15738SOL     OW48654   0.910   0.351   5.299 -0.2862 -0.3107  0.3494
15738SOL    HW148655   0.888   0.423   5.357  0.1036 -0.4071  0.6259
15738SOL    HW248656   0.907   0.273   5.355  0.7274 -0.3252  0.3941
15739SOL     OW48657   0.725   6.330   8.656  0.0568  0.2164  0.9124
15739SOL    HW148658   0.632   6.327   8.636  0.5381 -0.9224 -1.5856
15739SOL    HW248659   0.730   6.324   8.751 -2.3951 -0.0759  1.0699
15740SOL     OW48660   7.474   5.142  11.014 -0.4752 -0.1836  0.1291
15740SOL    HW148661   7.445   5.224  11.054  0.1574  0.7711 -1.2566
15740SOL    HW248662   7.567   5.137  11.035 -0.3029 -0.0434 -0.5668
15741SOL     OW48663   1.596   2.036   4.011 -0.3849  0.5197  0.2567
15741SOL    HW148664   1.598   1.944   3.985 -0.7790  0.1127  1.5589
15741SOL    HW248665   1.528   2.076   3.956  1.2413  0.5757 -1.8436
15742SOL     OW48666   0.953   5.189   8.765  0.0980 -0.2510 -0.4532
15742SOL    HW148667   1.002   5.111   8.793 -1.0447 -1.1782 -0.9195
15742SOL    HW248668   0.876   5.153   8.720 -0.2899  1.1676 -0.9590
15743SOL     OW48669   6.466   4.331   2.253 -0.1167  0.1809  0.3160
15743SOL    HW148670   6.422   4.342   2.338 -2.3676 -1.0690 -0.6185
15743SOL    HW248671   6.503   4.418   2.234  0.5689  0.4592  2.5856
15744SOL     OW48672   6.763   0.412   4.276 -0.0460 -0.1268  0.3942
15744SOL    HW148673   6.749   0.494   4.230 -3.1013 -1.9383 -2.4308
15744SOL    HW248674   6.856   0.394   4.268  0.3321  2.0518 -0.6919
15745SOL     OW48675   7.906   7.443  10.815  0.3442 -0.5321 -0.1211
15745SOL    HW148676   7.923   7.538  10.813 -0.9318 -0.2474  1.2773
15745SOL    HW248677   7.981   7.407  10.861 -0.4663  0.1735  1.8719
15746SOL     OW48678   0.991   4.000   5.620 -0.3094 -0.3079  0.3103
15746SOL    HW148679   0.903   4.034   5.603 -0.4574 -0.6676  0.3647
15746SOL    HW248680   0.996   3.919   5.571  0.4619  0.3693 -0.7838
15747SOL     OW48681   2.771   6.985   6.491 -0.4570 -0.0217  0.1265
15747SOL    HW148682   2.857   6.957   6.520 -0.3056 -0.6176 -0.8529
15747SOL    HW248683   2.780   7.078   6.474  0.2626 -0.2657 -0.8834
15748SOL     OW48684   7.444   0.290  11.613  0.2797  0.4725 -0.5909
15748SOL    HW148685   7.438   0.221  11.547 -0.2713 -1.4143  1.2870
15748SOL    HW248686   7.353   0.309  11.636  0.4721  0.8327 -0.1252
15749SOL     OW48687   3.969   7.301   0.591  0.1893 -0.3893  0.1106
15749SOL    HW148688   3.992   7.297   0.684  0.6202 -1.1603 -0.0222
15749SOL    HW248689   3.907   7.228   0.579  0.9427 -0.9536 -0.4211
15750SOL     OW48690   0.525   6.104   4.422  0.7463  1.0922 -0.3447
15750SOL    HW148691   0.446   6.053   4.443  0.2707  2.2127  0.6650
15750SOL    HW248692   0.598   6.045   4.443  0.1963  0.3039 -0.5966
15751SOL     OW48693   2.740   1.195   9.192 -0.1485  0.2840 -0.0458
15751SOL    HW148694   2.830   1.204   9.162 -0.0210 -0.1318  0.2015
15751SOL    HW248695   2.714   1.284   9.217 -0.7256  0.9107 -2.6061
15752SOL     OW48696   6.829   6.414  10.723 -0.1697 -0.0013 -0.4273
15752SOL    HW148697   6.920   6.435  10.746 -0.0585 -0.9167  0.0336
15752SOL    HW248698   6.837   6.351  10.650 -0.4579  0.5703 -0.9607
15753SOL     OW48699   7.863   1.890   6.604 -0.7222 -0.0477  0.0591
15753SOL    HW148700   7.884   1.949   6.677 -3.1722  0.7878  0.1682
15753SOL    HW248701   7.783   1.845   6.632 -0.7074 -1.0297 -1.3946
15754SOL     OW48702   6.408   2.094  12.100  0.0502  0.0812 -0.8860
15754SOL    HW148703   6.367   2.010  12.120  1.5800 -0.3161  0.8881
15754SOL    HW248704   6.366   2.156  12.160  1.6609 -0.2536  0.6644
15755SOL     OW48705   4.309   6.342   7.792  0.3945  0.7607  0.0983
15755SOL    HW148706   4.400   6.365   7.773  0.2543 -0.1954 -1.9692
15755SOL    HW248707   4.274   6.311   7.709 -1.1108 -1.3323  1.4206
15756SOL     OW48708   2.359   7.809   1.402 -0.0007 -0.0325 -0.3899
15756SOL    HW148709   2.273   7.846   1.422 -0.4133 -1.4548  0.6391
15756SOL    HW248710   2.340   7.725   1.361  0.8888 -0.3865 -0.1177
15757SOL     OW48711   0.441   3.452   6.642 -0.1321  0.0098 -0.0791
15757SOL    HW148712   0.350   3.458   6.672  0.2770 -1.3203  1.5489
15757SOL    HW248713   0.438   3.392   6.567 -0.2583 -2.7182  1.9479
15758SOL     OW48714   0.467   3.066   5.616  0.1298  0.4563 -0.8084
15758SOL    HW148715   0.404   3.098   5.551  0.1672  2.1513 -0.0831
15758SOL    HW248716   0.445   3.115   5.696  2.8105  1.7311 -0.7246
15759SOL     OW48717   7.765   7.841   1.100  0.2675  0.2043  0.2509
15759SOL    HW148718   7.849   7.867   1.139 -0.5110  1.7354  0.9961
15759SOL    HW248719   7.741   7.914   1.044 -0.4378 -0.3498 -0.1818
15760SOL     OW48720   3.663   3.754   1.811 -0.0236  0.6592 -0.0521
15760SOL    HW148721   3.609   3.675   1.803  0.2920  0.2537  1.4739
15760SOL    HW248722   3.732   3.743   1.745  0.1180 -0.4484  0.2593
15761SOL     OW48723   0.250   1.918  11.350 -0.0977 -0.0646  0.0967
15761SOL    HW148724   0.213   1.999  11.386 -1.1274 -0.0926 -0.8217
15761SOL    HW248725   0.276   1.941  11.261  0.3996 -0.5280  0.1220
15762SOL     OW48726   5.056   0.226   6.873 -0.1752  0.3607  0.0125
15762SOL    HW148727   5.024   0.194   6.958  0.6722 -0.7096 -0.0416
15762SOL    HW248728   5.151   0.217   6.879 -0.1394 -0.3355 -1.2748
15763SOL     OW48729   2.199   1.733   1.371 -0.2357  0.8801 -0.2369
15763SOL    HW148730   2.269   1.796   1.355 -2.0695  3.7927  2.0246
15763SOL    HW248731   2.143   1.740   1.293 -0.0339  1.4869 -0.3346
15764SOL     OW48732   2.552   0.668   4.368 -0.2104 -0.2915 -0.0043
15764SOL    HW148733   2.620   0.694   4.429 -0.3469 -0.9690  0.4444
15764SOL    HW248734   2.598   0.620   4.299  0.1052  1.4590 -1.0707
15765SOL     OW48735   2.925   1.720   8.712  0.2826 -0.3330  0.5806
15765SOL    HW148736   2.880   1.655   8.657  2.2800 -2.1162  0.9171
15765SOL    HW248737   2.867   1.731   8.787 -1.7049  0.9119 -1.0336
15766SOL     OW48738   1.371   3.743   2.273  0.0897  0.1556 -0.0019
15766SOL    HW148739   1.407   3.831   2.286 -0.3914  0.2095  1.0820
15766SOL    HW248740   1.307   3.733   2.343 -0.8894 -0.5240 -0.9669
15767SOL     OW48741   6.733   3.277  11.664 -0.1119 -0.3167  0.0955
15767SOL    HW148742   6.820   3.253  11.696 -0.0426 -1.5509 -0.9617
15767SOL    HW248743   6.750   3.329  11.585 -0.3276 -0.2972  0.0611
15768SOL     OW48744   4.131   7.272   3.862  0.2553  0.0843 -0.1533
15768SOL    HW148745   4.038   7.267   3.840 -0.2033 -0.3344  1.7567
15768SOL    HW248746   4.148   7.195   3.916  2.0375 -0.5367 -1.4869
15769SOL     OW48747   2.683   3.883   9.448  0.4953  0.2549 -0.6840
15769SOL    HW148748   2.734   3.950   9.402  0.9774  0.6499  0.3839
15769SOL    HW248749   2.626   3.933   9.506  0.5872 -0.2491 -0.1523
15770SOL     OW48750   2.469   3.102   2.406 -0.1042  0.1338 -0.0944
15770SOL    HW148751   2.547   3.087   2.353  0.3817  0.4312  0.5299
15770SOL    HW248752   2.398   3.061   2.356  0.3960  0.1326 -0.8145
15771SOL     OW48753   6.607   7.819  10.450 -0.1665  0.7882 -0.1547
15771SOL    HW148754   6.578   7.826  10.359  0.2083  0.9096 -0.2649
15771SOL    HW248755   6.530   7.841  10.501 -1.0575 -1.4582 -0.4019
15772SOL     OW48756   6.746   2.854   4.206 -0.0188  0.3684 -0.1486
15772SOL    HW148757   6.814   2.917   4.230  2.8644 -2.6047  0.2432
15772SOL    HW248758   6.712   2.821   4.289 -0.5365  0.4458 -0.3241
15773SOL     OW48759   6.049   0.393   0.626 -0.3703  0.6565  0.8423
15773SOL    HW148760   6.076   0.432   0.543  0.9444  0.8761  1.3488
15773SOL    HW248761   5.961   0.429   0.641 -1.1465 -0.3305 -1.0151
15774SOL     OW48762   7.350   3.065  11.741 -0.5512 -0.1180  0.0911
15774SOL    HW148763   7.324   3.120  11.815 -0.4448 -0.8281  0.6823
15774SOL    HW248764   7.414   3.004  11.779 -2.9504 -2.7298  0.2748
15775SOL     OW48765   7.404   2.126   1.009 -0.3193 -0.0310  0.5925
15775SOL    HW148766   7.351   2.048   0.998  0.4104 -0.3289 -1.2271
15775SOL    HW248767   7.365   2.190   0.949  0.0505  0.4719  0.8810
15776SOL     OW48768   5.069   4.293  10.526  0.5136  0.1043  0.3904
15776SOL    HW148769   5.061   4.326  10.436 -0.3488 -0.6091  0.1862
15776SOL    HW248770   5.095   4.202  10.515  0.2505 -0.0290  0.8580
15777SOL     OW48771   3.936   5.158   8.881 -0.2989  0.1255  0.2191
15777SOL    HW148772   3.978   5.073   8.895 -0.1813  0.3225  1.1181
15777SOL    HW248773   3.926   5.164   8.786 -0.0748 -0.7789  0.1261
15778SOL     OW48774   0.026   7.051   8.832 -0.7981  0.0157  0.5903
15778SOL    HW148775  -0.069   7.054   8.845 -0.6743  0.0705  1.5910
15778SOL    HW248776   0.060   7.021   8.916  0.1250  0.7717  0.5003
15779SOL     OW48777   4.537   4.631   0.099 -0.0944 -0.6600  0.2986
15779SOL    HW148778   4.612   4.602   0.048 -0.0007 -1.5376  0.9221
15779SOL    HW248779   4.472   4.659   0.034  0.3904 -0.8441 -0.2661
15780SOL     OW48780   3.104   5.163   3.049 -0.6796  0.1467  0.0875
15780SOL    HW148781   3.195   5.190   3.060 -0.8785  0.4975  1.0167
15780SOL    HW248782   3.057   5.210   3.119 -1.7968  1.0833 -1.2458
15781SOL     OW48783   7.067   3.807   2.586  0.4759 -0.0396  0.2550
15781SOL    HW148784   7.117   3.800   2.505  2.1818  0.5742  1.2040
15781SOL    HW248785   7.018   3.889   2.577 -0.5788 -0.7486 -0.7663
15782SOL     OW48786   3.463   2.590   7.179 -0.4654  0.5443  0.1624
15782SOL    HW148787   3.504   2.624   7.100 -1.1725 -2.1138 -1.5044
15782SOL    HW248788   3.536   2.560   7.233 -0.0133 -0.5245 -0.9858
15783SOL     OW48789   0.236   2.584   5.109 -0.2576 -0.1939  0.0486
15783SOL    HW148790   0.321   2.551   5.077 -0.8856 -0.4784 -1.4077
15783SOL    HW248791   0.259   2.646   5.178  1.1050 -0.8519  0.2237
15784SOL     OW48792   4.021   1.285   5.670 -0.4640 -0.2336 -0.7533
15784SOL    HW148793   4.060   1.249   5.591  1.4272 -2.5058  1.0547
15784SOL    HW248794   4.093   1.326   5.716 -0.8934 -1.2883  0.9723
15785SOL     OW48795   6.749   0.908   0.033  0.0536  0.0435 -0.4405
15785SOL    HW148796   6.711   0.831  -0.009  1.3292 -0.3023 -0.9999
15785SOL    HW248797   6.842   0.888   0.040  0.1490  0.8409  0.9412
15786SOL     OW48798   2.152   0.764   9.435 -0.3149 -0.5644  0.2416
15786SOL    HW148799   2.075   0.818   9.451  0.5459  0.8357 -0.2367
15786SOL    HW248800   2.180   0.786   9.346  0.6545 -1.0251  0.4113
15787SOL     OW48801   4.456   6.058   0.772 -0.2553  0.1173 -0.4174
15787SOL    HW148802   4.421   5.989   0.830  1.3101 -0.2734  0.1122
15787SOL    HW248803   4.423   6.139   0.810  1.7937 -0.0288  1.9021
15788SOL     OW48804   2.470   7.438   4.270 -0.0677  0.4329 -0.4036
15788SOL    HW148805   2.412   7.492   4.216 -1.5624 -0.6900  0.0284
15788SOL    HW248806   2.442   7.348   4.254  0.0913  0.0080  1.5058
15789SOL     OW48807   6.223   2.396   6.317  0.0293 -0.2532  0.5256
15789SOL    HW148808   6.241   2.376   6.225  1.8207  1.3877  0.4788
15789SOL    HW248809   6.128   2.412   6.319 -0.3538 -2.0304 -0.6464
15790SOL     OW48810   3.991   3.535   5.762  0.0746  0.4587  0.1241
15790SOL    HW148811   3.904   3.532   5.722  1.2947  1.6475 -3.0042
15790SOL    HW248812   4.012   3.444   5.782 -1.2600 -0.0259 -0.5909
15791SOL     OW48813   0.297   2.263   1.109  0.1252  0.2754  0.5134
15791SOL    HW148814   0.294   2.321   1.034 -1.7000 -0.7955 -0.3014
15791SOL    HW248815   0.285   2.321   1.185 -1.1919  1.0392 -0.2441
15792SOL     OW48816   3.882   5.372  10.391  1.3558  0.0569 -0.0038
15792SOL    HW148817   3.861   5.290  10.346 -0.1058  0.0060  0.7032
15792SOL    HW248818   3.900   5.346  10.481  0.0512  0.5558  0.4287
15793SOL     OW48819   5.885   0.236   2.035 -0.4000 -0.2929 -0.2374
15793SOL    HW148820   5.972   0.239   1.996 -0.4421 -1.4522 -0.4548
15793SOL    HW248821   5.826   0.264   1.965 -0.1992  0.6543 -0.0404
15794SOL     OW48822   1.009   5.785  11.150 -0.3537 -0.2285 -0.1246
15794SOL    HW148823   0.970   5.781  11.063 -0.1650 -0.2683 -0.2066
15794SOL    HW248824   0.949   5.840  11.200  0.2791  1.0272 -0.6786
15795SOL     OW48825   1.331   0.930   4.155 -0.2415  0.4627 -0.6159
15795SOL    HW148826   1.314   1.012   4.108 -0.1996 -0.0277 -1.5215
15795SOL    HW248827   1.309   0.950   4.246 -0.5816  1.3741 -0.8779
15796SOL     OW48828   1.528   5.097  12.054  0.1241 -0.5463  0.4044
15796SOL    HW148829   1.452   5.050  12.018  0.5816 -1.0299  0.0474
15796SOL    HW248830   1.509   5.106  12.147  0.5041 -2.4418  0.7083
15797SOL     OW48831   0.039   3.815   8.941 -0.1390  0.2117  0.1790
15797SOL    HW148832  -0.018   3.745   8.909  0.1633 -0.2227  0.5840
15797SOL    HW248833   0.118   3.770   8.971  0.0363  0.7223  0.4901
15798SOL     OW48834   7.465   2.307   0.175 -0.2707  0.0639 -0.2112
15798SOL    HW148835   7.457   2.389   0.127 -1.2313  0.4617  0.5982
15798SOL    HW248836   7.387   2.258   0.151 -1.7607  1.0291  2.3097
15799SOL     OW48837   6.319   2.639   6.423 -0.4225  0.2804 -0.3646
15799SOL    HW148838   6.302   2.553   6.384  0.2953 -0.5514  1.0626
15799SOL    HW248839   6.238   2.688   6.410 -1.2304 -0.9894 -0.2546
15800SOL     OW48840   6.924   1.139  10.652  0.2546 -0.3517  0.1666
15800SOL    HW148841   6.987   1.134  10.580  0.2317  0.1114  0.1155
15800SOL    HW248842   6.864   1.210  10.628 -0.4312 -0.9315  0.1011
15801SOL     OW48843   3.651   7.384   4.069 -0.0470  0.8611  0.3645
15801SOL    HW148844   3.669   7.314   4.131 -2.4623  1.9281  2.4859
15801SOL    HW248845   3.674   7.348   3.984  2.0538 -1.2095  1.6900
15802SOL     OW48846   2.116   5.242  11.436  0.2189 -0.6005 -0.2096
15802SOL    HW148847   2.112   5.176  11.506  0.1989 -0.7789 -0.3772
15802SOL    HW248848   2.179   5.206  11.374 -0.5736 -0.9696 -0.8194
15803SOL     OW48849   5.495   4.666   9.760 -0.2218 -0.0811  0.3699
15803SOL    HW148850   5.498   4.704   9.848  0.6230  0.1890  0.2313
15803SOL    HW248851   5.586   4.666   9.731 -0.7765  2.8389 -1.7807
15804SOL     OW48852   6.345   2.009   3.254 -0.2902 -0.2991 -0.0848
15804SOL    HW148853   6.440   2.018   3.265  0.0834 -1.5043 -1.8988
15804SOL    HW248854   6.319   1.941   3.316  0.3967 -1.3535 -0.9152
15805SOL     OW48855   1.891   2.329   9.952  0.3039 -1.0440  0.0984
15805SOL    HW148856   1.909   2.337  10.046  2.2531 -0.3516 -0.2811
15805SOL    HW248857   1.923   2.242   9.929  0.8870 -0.7763 -0.1219
15806SOL     OW48858   6.332   4.013   1.863 -0.3248 -0.6197  0.1604
15806SOL    HW148859   6.380   4.094   1.880  1.3051 -1.2174 -1.3197
15806SOL    HW248860   6.362   3.952   1.930 -0.2806 -0.4979  0.2508
15807SOL     OW48861   4.201   2.480   0.620  0.1540 -0.1299  0.2634
15807SOL    HW148862   4.214   2.546   0.688 -2.4026 -0.3392  1.0674
15807SOL    HW248863   4.168   2.530   0.545 -1.0942 -0.3686  0.6329
15808SOL     OW48864   5.992   3.184   2.232 -0.0896  0.0783  0.1219
15808SOL    HW148865   6.041   3.243   2.290 -0.8841 -0.0071  0.9147
15808SOL    HW248866   5.951   3.121   2.291 -0.5717 -0.2808 -0.5808
15809SOL     OW48867   1.566   2.013  11.782 -0.6907  0.5156  0.4547
15809SOL    HW148868   1.624   1.997  11.856  4.2226  0.1131 -3.0030
15809SOL    HW248869   1.572   1.934  11.728  0.0044  2.5038 -2.6398
15810SOL     OW48870   4.422   7.559   7.453 -0.1356  0.7290 -0.3665
15810SOL    HW148871   4.394   7.478   7.496 -0.3848  1.1260  0.2389
15810SOL    HW248872   4.384   7.554   7.365  0.0849  0.0640 -0.4230
15811SOL     OW48873   1.899   1.419   3.641 -0.1272 -0.2276 -0.3733
15811SOL    HW148874   1.808   1.394   3.626  0.4155 -2.0089 -0.9278
15811SOL    HW248875   1.909   1.421   3.736 -0.1514 -2.5428 -0.2698
15812SOL     OW48876   0.624   3.302   7.220  0.3463 -0.2650  0.1436
15812SOL    HW148877   0.606   3.209   7.209 -1.5545 -0.0271  0.8707
15812SOL    HW248878   0.680   3.325   7.146  0.4574 -1.8783 -0.2978
15813SOL     OW48879   3.837   7.628   5.509 -0.0375 -0.1243 -0.2779
15813SOL    HW148880   3.803   7.574   5.438 -0.8670  0.3878 -0.2834
15813SOL    HW248881   3.796   7.591   5.588  0.4295 -0.3316 -0.1308
15814SOL     OW48882   7.127   3.632   6.281  0.5407 -0.3499 -0.2305
15814SOL    HW148883   7.057   3.577   6.315  0.0115 -0.7714 -1.9032
15814SOL    HW248884   7.204   3.574   6.279  0.8387 -0.0393  1.1010
15815SOL     OW48885   5.414   2.427   5.259 -0.0090 -0.2167  0.1925
15815SOL    HW148886   5.356   2.389   5.193 -1.5508 -1.1351  1.9640
15815SOL    HW248887   5.360   2.492   5.303  0.7543 -0.1084  0.9906
15816SOL     OW48888   6.335   0.204   1.724 -0.2042 -0.3493 -0.1594
15816SOL    HW148889   6.316   0.182   1.633 -0.3835 -0.1580 -0.1705
15816SOL    HW248890   6.398   0.139   1.753 -0.8997 -1.0218 -0.1135
15817SOL     OW48891   2.693   3.344   5.438  0.2939  0.4369 -0.0433
15817SOL    HW148892   2.641   3.370   5.361 -0.6556  0.3875  0.5609
15817SOL    HW248893   2.739   3.266   5.410  1.2248  1.3219 -1.0796
15818SOL     OW48894   4.005   5.956   0.852  0.8826 -0.0182 -0.1309
15818SOL    HW148895   3.978   5.930   0.764 -0.7398  1.3482 -0.1105
15818SOL    HW248896   3.927   5.941   0.906  1.1034  1.2599  0.5930
15819SOL     OW48897   5.875   5.736  10.504 -0.2097  0.0593 -0.6618
15819SOL    HW148898   5.834   5.689  10.576 -1.3258 -0.3562 -1.5341
15819SOL    HW248899   5.933   5.799  10.546 -0.0240 -0.8885  0.5661
15820SOL     OW48900   7.468   4.676   0.904  0.0706 -0.2427  0.2038
15820SOL    HW148901   7.425   4.677   0.989  1.2711 -0.4994  0.8311
15820SOL    HW248902   7.546   4.622   0.917 -0.8819 -2.2372 -1.6327
15821SOL     OW48903   1.301   1.743   2.393  0.1778  0.0868 -0.1774
15821SOL    HW148904   1.252   1.662   2.380 -0.2464  0.0919  1.2711
15821SOL    HW248905   1.341   1.760   2.308  0.7789 -1.9602 -0.3528
15822SOL     OW48906   7.860   7.554   0.694  0.0570  0.4481 -0.0262
15822SOL    HW148907   7.819   7.596   0.769 -2.0343 -0.0486 -0.8101
15822SOL    HW248908   7.790   7.503   0.654  1.2574  0.1912 -1.9461
15823SOL     OW48909   6.460   5.208  10.617  0.4323  0.2453 -1.2330
15823SOL    HW148910   6.495   5.128  10.656 -2.4262 -0.2346  0.6744
15823SOL    HW248911   6.475   5.276  10.683 -1.3365  0.1887 -0.7124
15824SOL     OW48912   2.208   7.389   2.529  0.0400 -0.0638  0.1781
15824SOL    HW148913   2.207   7.339   2.447  0.0815  0.2282 -0.0003
15824SOL    HW248914   2.131   7.445   2.523  0.2700  0.2514  0.1577
15825SOL     OW48915   6.648   7.675   5.293  0.8717  0.1295  0.1152
15825SOL    HW148916   6.726   7.625   5.272  0.7595 -1.5522  3.1128
15825SOL    HW248917   6.575   7.620   5.265  0.7756 -0.8210  2.0421
15826SOL     OW48918   1.099   3.166  10.778 -0.2855 -0.4273  0.2796
15826SOL    HW148919   1.182   3.171  10.730 -0.3040  0.0900  0.2926
15826SOL    HW248920   1.032   3.181  10.711 -0.3358 -0.2212  0.3739
15827SOL     OW48921   0.756   0.320  12.189 -0.4795  0.3825 -0.1904
15827SOL    HW148922   0.810   0.350  12.263  3.3906 -2.1127 -1.6476
15827SOL    HW248923   0.775   0.382  12.119 -0.2804  0.0768 -0.4112
15828SOL     OW48924   5.348   6.870   8.036  0.0810 -0.5644 -0.1155
15828SOL    HW148925   5.324   6.797   7.979 -1.1357 -0.1647 -0.1457
15828SOL    HW248926   5.368   6.942   7.976  3.0197 -1.2918 -0.1681
15829SOL     OW48927   5.797   2.947   2.064  0.3306  0.1950 -0.3210
15829SOL    HW148928   5.833   2.924   2.150 -1.3757 -0.1588  0.3189
15829SOL    HW248929   5.723   3.004   2.083 -1.9789 -2.2828 -1.3417
15830SOL     OW48930   7.138   6.416   5.612 -0.5630  0.2001 -0.3441
15830SOL    HW148931   7.190   6.373   5.543 -1.3310 -0.4888 -0.5071
15830SOL    HW248932   7.096   6.489   5.567 -0.0099  0.5630 -0.2878
15831SOL     OW48933   7.736   2.894   4.567  0.1612  0.2424 -0.0320
15831SOL    HW148934   7.645   2.919   4.585  0.0768 -0.7433  1.0263
15831SOL    HW248935   7.782   2.977   4.553  0.0958  1.1951  4.1094
15832SOL     OW48936   3.713   1.374  12.326 -0.7109 -0.2655  0.5763
15832SOL    HW148937   3.648   1.428  12.282  1.7595  0.4982 -2.5983
15832SOL    HW248938   3.769   1.436  12.372  0.3278 -0.3563 -0.5031
15833SOL     OW48939   1.528   4.490   7.136 -0.4013  0.2142 -0.4097
15833SOL    HW148940   1.469   4.416   7.122  0.2840 -0.2292 -1.0737
15833SOL    HW248941   1.514   4.515   7.228 -0.4077 -0.9752 -0.0641
15834SOL     OW48942   5.949   2.476   2.664  0.0423  0.1411  0.0630
15834SOL    HW148943   5.909   2.400   2.622 -0.5815 -0.3247  1.4355
15834SOL    HW248944   6.015   2.506   2.602  0.0301 -1.2845 -0.6690
15835SOL     OW48945   3.998   5.479  10.842  0.5981  0.1224  0.4988
15835SOL    HW148946   3.994   5.403  10.784  0.2482 -0.8366  1.7351
15835SOL    HW248947   4.084   5.516  10.827  0.8103 -0.5762 -0.0607
15836SOL     OW48948   0.189   6.641   5.368 -0.2214  0.2250  0.0591
15836SOL    HW148949   0.113   6.621   5.422 -1.5573  1.7400 -1.1650
15836SOL    HW248950   0.243   6.698   5.423 -0.1539 -0.5115  0.7775
15837SOL     OW48951   7.931   0.041  10.626 -0.1447 -0.6492  0.2893
15837SOL    HW148952   7.895  -0.027  10.682 -0.8901  0.8633  1.7412
15837SOL    HW248953   7.859   0.066  10.568  0.0203 -0.8388 -0.0020
15838SOL     OW48954   6.324   4.680   8.090  0.0761  0.1935 -0.4325
15838SOL    HW148955   6.332   4.655   8.182 -0.0982  2.7298  0.3481
15838SOL    HW248956   6.402   4.643   8.048  1.5564  1.1873  1.2968
15839SOL     OW48957   6.451   3.525  11.059 -0.1055 -0.2207 -0.2223
15839SOL    HW148958   6.520   3.579  11.020  0.6410 -0.1505  1.1264
15839SOL    HW248959   6.372   3.580  11.053 -0.1150 -0.3646 -1.9210
15840SOL     OW48960   7.415   7.509  10.595 -0.0694  0.3347 -0.4155
15840SOL    HW148961   7.496   7.468  10.624 -0.3232 -1.8511 -2.4861
15840SOL    HW248962   7.349   7.480  10.658  0.2834 -0.0798 -0.2376
15841SOL     OW48963   6.939   7.581   8.997  0.2077  0.5102 -0.5104
15841SOL    HW148964   6.948   7.486   8.987 -0.7012  0.4036 -0.3869
15841SOL    HW248965   6.942   7.596   9.091  2.0269  0.8043 -0.5698
15842SOL     OW48966   6.998   3.596   3.081 -0.4329 -0.5819 -0.7823
15842SOL    HW148967   6.924   3.588   3.142  0.0405 -4.1295 -0.4646
15842SOL    HW248968   7.075   3.597   3.137 -0.0996  0.0804 -1.2355
15843SOL     OW48969   6.693   4.525  11.130 -0.5201  0.4314  0.1222
15843SOL    HW148970   6.687   4.608  11.176 -0.3219  0.5333 -0.0355
15843SOL    HW248971   6.769   4.534  11.072 -0.7990  0.3310 -0.2674
15844SOL     OW48972   0.186   6.095  12.453  0.1886 -0.1437  0.1262
15844SOL    HW148973   0.112   6.097  12.392  0.3086 -1.8818 -0.1459
15844SOL    HW248974   0.232   6.013  12.431 -0.1562 -1.2108  2.9902
15845SOL     OW48975   6.546   7.023   5.976 -0.3455  0.0506  0.2441
15845SOL    HW148976   6.638   7.029   5.953 -0.3628  1.5648  0.4541
15845SOL    HW248977   6.545   6.978   6.060 -0.0981 -3.0793 -1.2733
15846SOL     OW48978   0.625   3.532   3.162  0.1353 -0.2363  0.5914
15846SOL    HW148979   0.606   3.606   3.220  1.0461 -0.4427  1.1879
15846SOL    HW248980   0.719   3.540   3.144  0.6385 -2.1858  2.0606
15847SOL     OW48981   1.654   7.081   4.395  0.3706  0.8703  0.2503
15847SOL    HW148982   1.642   7.008   4.334  1.3757 -0.9505  2.0941
15847SOL    HW248983   1.572   7.084   4.445  0.9965 -0.2599  1.3964
15848SOL     OW48984   2.948   4.647  10.139  0.1167 -0.0050  0.1335
15848SOL    HW148985   3.027   4.651  10.084  0.5207 -1.3730  0.5716
15848SOL    HW248986   2.943   4.556  10.167 -1.5417  0.0952  0.2559
15849SOL     OW48987   5.048   2.493   9.396 -0.5855 -0.5871  0.3595
15849SOL    HW148988   5.051   2.453   9.309 -0.0313 -1.3861  0.7290
15849SOL    HW248989   4.959   2.476   9.427 -0.6661 -0.6380  0.1039
15850SOL     OW48990   1.271   1.484   6.280  0.3869  0.4914  0.6276
15850SOL    HW148991   1.282   1.554   6.216 -2.1251  0.3110 -0.1167
15850SOL    HW248992   1.343   1.423   6.262  1.1943  1.6795 -0.3264
15851SOL     OW48993   1.355   2.657  10.228 -0.5695  0.3488  0.1055
15851SOL    HW148994   1.377   2.676  10.319  3.1124 -0.0036 -0.5357
15851SOL    HW248995   1.387   2.568  10.213 -2.6704 -0.2704 -1.1393
15852SOL     OW48996   5.455   7.481   8.196  0.1024 -0.0061 -0.1046
15852SOL    HW148997   5.529   7.539   8.178  1.0007 -1.1253 -0.1140
15852SOL    HW248998   5.487   7.394   8.175 -1.7070 -0.3881 -1.6032
15853SOL     OW48999   6.877   3.940  10.670 -0.4367 -0.1650 -0.5717
15853SOL    HW149000   6.841   4.028  10.678 -1.1183 -0.4260 -0.6288
15853SOL    HW249001   6.966   3.952  10.639 -0.6110  0.4960 -0.8272
15854SOL     OW49002   6.535   4.709   3.737 -0.2634 -0.4536 -0.5027
15854SOL    HW149003   6.610   4.731   3.792 -0.1143 -0.9390 -0.5037
15854SOL    HW249004   6.540   4.614   3.727 -1.0552 -0.5320 -0.2504
15855SOL     OW49005   0.663   1.094  10.591  0.0347 -0.0176  0.0120
15855SOL    HW149006   0.705   1.035  10.528  0.0987 -1.1621  1.0754
15855SOL    HW249007   0.596   1.140  10.541  1.8199  1.0901 -1.4926
15856SOL     OW49008   1.366   0.228   2.891  0.4088  0.8727 -0.9362
15856SOL    HW149009   1.389   0.138   2.869 -2.1739  0.1419 -0.9327
15856SOL    HW249010   1.428   0.252   2.961  1.4609 -0.6868 -1.2846
15857SOL     OW49011   0.534   4.288   7.962 -0.0347  0.0989 -0.4191
15857SOL    HW149012   0.588   4.209   7.953  0.6271  0.6544 -1.4623
15857SOL    HW249013   0.560   4.325   8.046  0.3279 -0.2983 -0.3526
15858SOL     OW49014   0.804   0.167   0.982  0.2526 -0.0669 -0.6505
15858SOL    HW149015   0.823   0.092   0.927 -0.0902  0.1636 -1.0915
15858SOL    HW249016   0.715   0.192   0.958 -0.2325 -0.4910  0.6248
15859SOL     OW49017   4.085   0.396   3.204  0.4631  0.3122  0.1912
15859SOL    HW149018   4.124   0.483   3.197 -0.7755  0.7783 -1.5422
15859SOL    HW249019   4.132   0.343   3.139  1.2464 -0.3588  1.2723
15860SOL     OW49020   7.693   4.897   7.638 -0.1746  0.3165  0.3409
15860SOL    HW149021   7.742   4.825   7.599 -3.8514 -1.2859 -1.8444
15860SOL    HW249022   7.651   4.858   7.715 -2.4970 -0.1326 -1.0717
15861SOL     OW49023   2.344   1.611   7.415  0.2040  0.0511 -0.6901
15861SOL    HW149024   2.401   1.675   7.456  0.1047 -0.8813  1.0080
15861SOL    HW249025   2.388   1.527   7.428 -2.0294 -0.8770  1.8325
15862SOL     OW49026   1.560   7.297   9.162 -0.0309 -0.0853 -0.1673
15862SOL    HW149027   1.623   7.268   9.096 -1.0851 -1.3726 -0.6661
15862SOL    HW249028   1.484   7.240   9.148 -0.0508 -0.8665  2.5974
15863SOL     OW49029   2.159   3.256   4.511  0.3124  0.3372 -0.2961
15863SOL    HW149030   2.205   3.213   4.439 -0.1076 -1.9213  0.7062
15863SOL    HW249031   2.218   3.248   4.585 -0.5461 -0.1861  0.3519
15864SOL     OW49032   2.531   3.544   1.124  0.0962  0.0428 -0.1790
15864SOL    HW149033   2.518   3.468   1.180 -1.9604  1.9857  2.2888
15864SOL    HW249034   2.607   3.589   1.161  0.3355 -0.0103 -0.6054
15865SOL     OW49035   2.932   1.850  10.344  0.1981  0.1893  0.2194
15865SOL    HW149036   2.887   1.926  10.380 -0.7883 -0.0834 -0.4088
15865SOL    HW249037   2.866   1.780  10.345  1.3040 -0.8941  1.5338
15866SOL     OW49038   6.809   1.644   0.500 -0.0567  0.3054 -0.2027
15866SOL    HW149039   6.731   1.610   0.545 -0.9074 -1.0549 -2.5043
15866SOL    HW249040   6.883   1.609   0.549 -0.9191 -3.0338 -1.0060
15867SOL     OW49041   0.033   6.768   9.917 -0.2562 -0.1960  0.2058
15867SOL    HW149042   0.065   6.689   9.872 -0.7493 -0.7296  0.7761
15867SOL    HW249043   0.081   6.769  10.000 -0.1136  0.2080  0.1164
15868SOL     OW49044   1.256   5.435   8.947 -0.1529  0.0556 -0.0096
15868SOL    HW149045   1.274   5.342   8.963  0.6356 -0.0183 -1.1851
15868SOL    HW249046   1.161   5.440   8.938 -0.2240 -0.6002  0.3124
15869SOL     OW49047   0.891   2.711  10.306 -0.7321 -0.6386 -0.6462
15869SOL    HW149048   0.957   2.719  10.237 -1.1144  2.7872 -0.7793
15869SOL    HW249049   0.926   2.762  10.379 -3.0082  1.0420 -0.6245
15870SOL     OW49050   0.379   4.507   0.424  0.1711 -0.5601 -0.1656
15870SOL    HW149051   0.422   4.506   0.510  0.6581 -0.4335 -0.4025
15870SOL    HW249052   0.449   4.487   0.362  0.0834  0.5218 -0.6387
15871SOL     OW49053   2.304   7.290   1.645  0.1111  0.0860  0.4542
15871SOL    HW149054   2.247   7.357   1.683 -0.9491 -1.5194  1.8396
15871SOL    HW249055   2.354   7.256   1.719  0.3118 -0.9372 -0.1345
15872SOL     OW49056   6.063   2.610   8.776  0.0994 -0.4016  0.4052
15872SOL    HW149057   6.007   2.628   8.701 -0.3829 -0.1452  0.8161
15872SOL    HW249058   6.024   2.534   8.818  0.2005 -0.3691  0.5591
15873SOL     OW49059   5.484   1.531   1.239  0.1048  0.5087 -0.0626
15873SOL    HW149060   5.565   1.512   1.286  1.4228  2.2257 -1.5060
15873SOL    HW249061   5.433   1.451   1.246  1.0058  0.0863  2.6786
15874SOL     OW49062   0.575   4.997  11.183 -0.7284 -0.6363 -0.1160
15874SOL    HW149063   0.579   5.087  11.216 -0.3828 -1.4582  2.2243
15874SOL    HW249064   0.521   5.004  11.103 -0.7327  1.6149  0.0114
15875SOL     OW49065   0.736   3.165   3.068  0.2976 -0.3031 -0.2224
15875SOL    HW149066   0.666   3.178   3.004  0.7258 -0.7008 -0.7904
15875SOL    HW249067   0.811   3.214   3.032  0.4629 -0.3125  0.1061
15876SOL     OW49068   7.466   1.383   9.628 -0.3959  0.1711 -0.3995
15876SOL    HW149069   7.550   1.357   9.590 -0.8856 -0.1785 -1.2705
15876SOL    HW249070   7.408   1.308   9.614 -1.2432  0.9293 -1.0712
15877SOL     OW49071   2.438   2.621   2.903 -0.6260  0.1604 -0.2348
15877SOL    HW149072   2.467   2.579   2.983  0.7467 -0.4049 -0.9857
15877SOL    HW249073   2.501   2.693   2.890  0.7153 -1.2298 -2.0216
15878SOL     OW49074   1.608   3.448   8.247  0.0044  0.2632  0.0243
15878SOL    HW149075   1.541   3.513   8.226  0.4742  1.6204  2.3066
15878SOL    HW249076   1.626   3.462   8.340  1.7540 -1.6664  0.0537
15879SOL     OW49077   1.008   4.206   1.335 -0.6528 -0.5787 -0.0227
15879SOL    HW149078   0.936   4.185   1.275 -0.3062 -0.6307 -0.4303
15879SOL    HW249079   1.063   4.127   1.333  0.2628  0.0550 -0.9695
15880SOL     OW49080   4.400   6.325   6.838 -0.4534 -0.1616  0.3928
15880SOL    HW149081   4.409   6.381   6.761  0.3269  0.4140  0.8860
15880SOL    HW249082   4.316   6.280   6.825 -0.6779  0.4636 -0.4367
15881SOL     OW49083   4.083   5.667   0.373  0.3478 -0.0215  0.1030
15881SOL    HW149084   4.044   5.739   0.423  0.0837  0.8396 -1.2974
15881SOL    HW249085   4.076   5.591   0.431  0.2251  0.9758  1.4368
15882SOL     OW49086   6.162   4.758   1.843  0.2265 -0.2706 -0.6835
15882SOL    HW149087   6.069   4.738   1.855 -0.3320  1.5435 -1.5922
15882SOL    HW249088   6.166   4.854   1.842  2.5024 -0.2156  2.0002
15883SOL     OW49089   0.687   3.202   4.954  0.0341  0.4341  0.2543
15883SOL    HW149090   0.703   3.294   4.933  1.6671  0.3844  1.1300
15883SOL    HW249091   0.678   3.201   5.049 -2.4736 -0.0116  0.0968
15884SOL     OW49092   7.607   2.506  10.078 -0.5883 -0.5814 -0.1345
15884SOL    HW149093   7.543   2.523  10.009 -1.0909 -1.0775  0.2073
15884SOL    HW249094   7.630   2.414  10.067 -0.1929 -0.4998 -0.0301
15885SOL     OW49095   4.737   6.695   2.324  0.5297  0.0982  0.2955
15885SOL    HW149096   4.821   6.657   2.350  0.4248  0.8601  1.8094
15885SOL    HW249097   4.692   6.623   2.279  1.3064 -0.8452  0.9718
15886SOL     OW49098   2.678   0.128   3.119 -0.4463  0.0987 -0.1992
15886SOL    HW149099   2.651   0.080   3.041  0.9492 -1.8070  0.4076
15886SOL    HW249100   2.613   0.104   3.185 -0.7109  0.4034 -0.3501
15887SOL     OW49101   7.464   4.209   0.896 -0.7488 -0.0653  0.2928
15887SOL    HW149102   7.408   4.185   0.822 -2.0896 -0.2487  1.3241
15887SOL    HW249103   7.535   4.144   0.894 -0.0821  0.6447 -1.5080
15888SOL     OW49104   2.888   4.234   5.103  0.6461 -0.5593  0.4785
15888SOL    HW149105   2.982   4.217   5.107  0.4399 -1.8324  0.2625
15888SOL    HW249106   2.849   4.150   5.080 -0.5324  0.0069  0.3157
15889SOL     OW49107   5.228   4.657   0.575 -0.4076  0.6427  0.4013
15889SOL    HW149108   5.232   4.595   0.503  0.5033  0.7723  0.3217
15889SOL    HW249109   5.143   4.642   0.616 -1.0292  0.7126 -0.8196
15890SOL     OW49110   1.086   4.454   5.367  1.0964  0.2221  0.1629
15890SOL    HW149111   1.131   4.440   5.450  0.8221  0.4439  0.3511
15890SOL    HW249112   1.010   4.509   5.390  0.1381 -0.9948  0.0421
15891SOL     OW49113   4.964   0.858   1.111  0.6175  0.0887 -0.4640
15891SOL    HW149114   5.034   0.794   1.104 -0.6509 -1.2243 -2.0869
15891SOL    HW249115   4.922   0.839   1.195  0.9250 -0.5166 -0.4427
15892SOL     OW49116   3.419   1.590   4.071  0.3996  0.0626  0.8885
15892SOL    HW149117   3.410   1.684   4.086  0.2171 -0.0407  1.4532
15892SOL    HW249118   3.442   1.554   4.156 -1.1931 -0.6165  1.0585
15893SOL     OW49119   0.947   7.425   7.388 -0.0590 -0.3981  0.4387
15893SOL    HW149120   0.894   7.502   7.366 -1.1115 -1.7457 -2.0857
15893SOL    HW249121   0.884   7.355   7.403  0.9213 -1.0761  1.6485
15894SOL     OW49122   2.222   4.209   7.467  0.5158 -0.8194 -0.0842
15894SOL    HW149123   2.260   4.144   7.526 -0.0623 -0.8545  0.2621
15894SOL    HW249124   2.134   4.175   7.447 -0.5505  0.7229  1.6009
15895SOL     OW49125   2.457   6.580   3.659  0.0632  0.1552  0.0876
15895SOL    HW149126   2.547   6.570   3.689 -0.8462 -0.5027  2.8849
15895SOL    HW249127   2.442   6.503   3.603  1.4659  0.7963 -1.2612
15896SOL     OW49128   5.432   7.485   5.459  0.5050  0.7385 -0.4639
15896SOL    HW149129   5.427   7.463   5.552  0.3638 -0.4393 -0.7334
15896SOL    HW249130   5.525   7.506   5.444  0.4589  1.2882  0.0147
15897SOL     OW49131   0.948   7.753   0.149  0.4054  0.8093 -0.8295
15897SOL    HW149132   0.905   7.686   0.201  1.7715  0.9296  0.5062
15897SOL    HW249133   0.901   7.752   0.065  0.0708 -1.4526 -0.6675
15898SOL     OW49134   1.768   3.551  11.253 -0.7092 -0.4389  0.3039
15898SOL    HW149135   1.836   3.605  11.213 -0.9559 -0.6348 -0.4059
15898SOL    HW249136   1.815   3.492  11.312 -0.2583 -0.6186 -0.2276
15899SOL     OW49137   7.968   7.302  10.547  0.2048  0.4867  0.1043
15899SOL    HW149138   7.906   7.350  10.493 -0.7502  0.0508  0.7888
15899SOL    HW249139   8.006   7.368  10.605  2.3044  1.2429 -1.9846
15900SOL     OW49140   4.153   5.366   1.130  0.1890  1.0365 -0.3987
15900SOL    HW149141   4.066   5.369   1.171  0.4559  0.6660  0.2055
15900SOL    HW249142   4.213   5.389   1.200  0.6344  0.6461 -0.6491
15901SOL     OW49143   3.685   7.960   4.669 -0.3515  0.0584  0.3690
15901SOL    HW149144   3.715   7.902   4.598 -0.0334  0.6180  0.0336
15901SOL    HW249145   3.763   8.010   4.693 -0.5884  0.2450  0.7553
15902SOL     OW49146   3.799   2.878   6.775  0.6671  0.1095  0.0317
15902SOL    HW149147   3.712   2.839   6.789  1.1869 -1.0753  0.0269
15902SOL    HW249148   3.850   2.852   6.851  0.8179  1.4493  0.4142
15903SOL     OW49149   7.137   6.047   6.742 -0.6390  0.1075  0.3146
15903SOL    HW149150   7.057   6.028   6.693 -0.1084 -1.2126 -0.0988
15903SOL    HW249151   7.184   6.111   6.688 -1.4187  0.9240  0.5816
15904SOL     OW49152   2.943   7.485  10.064 -0.4953 -0.8754  0.0240
15904SOL    HW149153   2.934   7.576  10.035 -0.1890 -0.5133  1.0206
15904SOL    HW249154   3.032   7.480  10.099  0.3134 -2.1566 -1.9972
15905SOL     OW49155   4.212   3.306   2.552 -0.1821 -0.4940 -0.1575
15905SOL    HW149156   4.270   3.382   2.557 -0.8379 -0.0305  0.6079
15905SOL    HW249157   4.189   3.286   2.643 -2.7168  0.5295 -0.4957
15906SOL     OW49158   2.039   6.557   8.128  0.0451 -0.1134  0.2319
15906SOL    HW149159   2.093   6.633   8.151 -0.6795  0.9280 -1.3656
15906SOL    HW249160   1.954   6.575   8.171  0.8721 -1.7660  2.7752
15907SOL     OW49161   5.917   0.262   8.169 -0.1487  0.0364  0.6442
15907SOL    HW149162   5.925   0.308   8.252 -1.0125  0.2491  0.6143
15907SOL    HW249163   5.915   0.331   8.103 -1.4691 -0.0204  0.6018
15908SOL     OW49164   2.516   6.909  10.914 -0.6173  0.2137 -0.4692
15908SOL    HW149165   2.540   6.891  10.823 -2.3790 -0.3103 -0.8668
15908SOL    HW249166   2.496   7.003  10.914 -2.4665 -0.1183 -1.1426
15909SOL     OW49167   2.726   7.702   6.301 -0.1267  0.3739  0.3295
15909SOL    HW149168   2.649   7.757   6.299  0.2331  0.8608 -0.2390
15909SOL    HW249169   2.706   7.629   6.242  0.2632  1.0726 -0.6968
15910SOL     OW49170   3.756   7.833   2.851  0.4752 -0.2172  0.0661
15910SOL    HW149171   3.764   7.925   2.875  0.6356 -0.6825  1.9740
15910SOL    HW249172   3.843   7.810   2.818  0.5985  0.1733  0.1140
15911SOL     OW49173   7.185   2.047   4.032 -0.4807  0.0109  0.2462
15911SOL    HW149174   7.250   2.028   4.100 -0.5705 -2.2256 -0.2161
15911SOL    HW249175   7.222   2.120   3.982  3.0600 -2.7781 -1.6319
15912SOL     OW49176   0.318   2.689   7.114 -0.6032  0.7831  0.2768
15912SOL    HW149177   0.408   2.719   7.126  1.0825 -3.6788  0.5832
15912SOL    HW249178   0.309   2.680   7.019 -0.8301  1.4332  0.2330
15913SOL     OW49179   3.484   4.858   4.199  0.0571  0.0422 -0.4424
15913SOL    HW149180   3.414   4.793   4.192  1.1050 -1.0077 -1.8015
15913SOL    HW249181   3.448   4.926   4.257 -1.2173 -1.5510  0.7260
15914SOL     OW49182   0.462   1.666   8.122  0.8151  0.9402  0.5241
15914SOL    HW149183   0.474   1.691   8.214  0.0878 -0.0565  0.9130
15914SOL    HW249184   0.367   1.666   8.109  0.7358 -1.4508  0.5541
15915SOL     OW49185   0.219   0.728   8.946  0.5808 -0.2944 -0.6939
15915SOL    HW149186   0.154   0.658   8.957  0.5581 -0.0961  0.5351
15915SOL    HW249187   0.209   0.755   8.855 -0.8355 -0.5166 -0.6393
15916SOL     OW49188   0.510   1.696   1.084  0.2939 -0.8693  0.4005
15916SOL    HW149189   0.524   1.732   1.172 -3.1987 -1.1273  1.2031
15916SOL    HW249190   0.529   1.603   1.093  1.8031 -0.5925  0.3326
15917SOL     OW49191   5.653   1.200   2.154  0.5066 -0.7105 -0.0463
15917SOL    HW149192   5.698   1.119   2.178  1.8836 -0.0405 -0.2745
15917SOL    HW249193   5.576   1.171   2.104 -0.4527 -1.9532  2.0458
15918SOL     OW49194   0.357   6.628   8.636  0.9661  0.3915 -0.4137
15918SOL    HW149195   0.427   6.565   8.618  0.5630 -0.1504 -0.1029
15918SOL    HW249196   0.402   6.709   8.657  1.5003  0.8355 -2.9522
15919SOL     OW49197   5.787   6.457   9.306  0.5614  0.4424 -0.3273
15919SOL    HW149198   5.853   6.527   9.297 -1.3161  2.1786 -1.4140
15919SOL    HW249199   5.706   6.503   9.325 -1.0078 -1.3282 -2.2754
15920SOL     OW49200   5.873   7.945   3.185  0.4086  0.7238  0.7670
15920SOL    HW149201   5.829   7.894   3.118 -0.6766  2.9114 -0.3067
15920SOL    HW249202   5.912   8.019   3.138  3.5059  0.0516  1.9781
15921SOL     OW49203   6.238   1.747   8.385  0.2438 -0.3937  0.7491
15921SOL    HW149204   6.181   1.796   8.445  0.1412 -1.1597  1.2849
15921SOL    HW249205   6.318   1.733   8.435  0.1005 -1.1746  0.7670
15922SOL     OW49206   1.738   0.821   1.134  0.1717 -0.0201 -0.4234
15922SOL    HW149207   1.800   0.757   1.170  1.2044  1.1564 -0.0525
15922SOL    HW249208   1.688   0.771   1.069 -1.3136 -2.0716  2.0670
15923SOL     OW49209   3.347   3.261  11.471 -0.2599  0.3246 -0.5716
15923SOL    HW149210   3.312   3.198  11.534  0.2776  0.7617  0.1811
15923SOL    HW249211   3.430   3.222  11.443 -0.2074  0.4165 -0.5441
15924SOL     OW49212   7.931   2.261   8.559 -0.3312 -0.1233 -0.2636
15924SOL    HW149213   7.882   2.324   8.507 -2.1036 -0.9084  0.3978
15924SOL    HW249214   7.985   2.315   8.617 -0.9821  0.7721 -0.4748
15925SOL     OW49215   1.384   1.682   7.435  0.3411 -0.0603  0.5275
15925SOL    HW149216   1.347   1.766   7.461 -1.0295 -1.0660  1.9667
15925SOL    HW249217   1.310   1.634   7.396  1.7643  0.4855 -3.3089
15926SOL     OW49218   2.427   7.537   6.552 -0.2359  0.0472  0.1570
15926SOL    HW149219   2.474   7.453   6.555  0.0654  0.2228  0.4172
15926SOL    HW249220   2.405   7.550   6.460 -0.0521 -0.1899  0.0798
15927SOL     OW49221   1.644   1.078   7.988 -0.4040 -0.1364  0.0066
15927SOL    HW149222   1.587   1.143   7.948 -0.0638  1.0377  1.3538
15927SOL    HW249223   1.731   1.097   7.952 -0.4164 -0.2266 -0.0685
15928SOL     OW49224   6.165   7.502   6.272 -0.0167 -0.2306  0.1078
15928SOL    HW149225   6.251   7.471   6.240  0.7644  2.4278 -0.6202
15928SOL    HW249226   6.111   7.506   6.193  0.4799  1.8870 -0.1883
15929SOL     OW49227   4.561   3.583   2.932  0.4517  0.1474  0.3862
15929SOL    HW149228   4.492   3.520   2.914 -0.9918  1.7312  0.1842
15929SOL    HW249229   4.562   3.591   3.027  1.2956 -0.8402  0.4836
15930SOL     OW49230   2.168   5.671   8.800  0.4410  0.7184  0.5085
15930SOL    HW149231   2.096   5.731   8.819  0.7234  0.8066  1.3511
15930SOL    HW249232   2.150   5.595   8.856  0.1165  0.0289 -0.5043
15931SOL     OW49233   7.305   1.641   2.224 -0.7884 -0.1750  0.0420
15931SOL    HW149234   7.300   1.598   2.309  1.4644  0.5528  0.6133
15931SOL    HW249235   7.231   1.702   2.223 -1.0979 -0.5085  1.2962
15932SOL     OW49236   7.357   0.396  10.550 -0.1537  0.6832  0.1656
15932SOL    HW149237   7.407   0.366  10.626 -2.1362 -1.4975  0.7070
15932SOL    HW249238   7.418   0.386  10.476  1.1181  0.8712  1.1558
15933SOL     OW49239   1.800   3.072   9.943  0.4969  0.3688 -0.3965
15933SOL    HW149240   1.838   3.149   9.901  0.6759 -0.3057 -1.5238
15933SOL    HW249241   1.865   3.003   9.929 -0.2634 -0.3230 -0.6013
15934SOL     OW49242   5.133   2.112  11.898 -0.1984 -0.1151  0.1615
15934SOL    HW149243   5.098   2.175  11.962  1.0529  0.2314  0.5335
15934SOL    HW249244   5.061   2.097  11.838 -1.5495 -0.7029  1.8355
15935SOL     OW49245   1.646   6.268  10.341 -0.0150  0.1298 -0.1319
15935SOL    HW149246   1.665   6.301  10.253 -0.1994  0.4304 -0.0627
15935SOL    HW249247   1.698   6.188  10.350  0.4253  0.3946 -0.3124
15936SOL     OW49248   2.270   7.211   0.415 -0.1271  0.3662 -0.1892
15936SOL    HW149249   2.278   7.116   0.406 -0.9650  0.1993  0.7222
15936SOL    HW249250   2.286   7.244   0.327  1.1958 -0.5372 -0.3183
15937SOL     OW49251   5.875   4.915   2.550 -0.0440 -0.2385  0.0424
15937SOL    HW149252   5.862   4.850   2.620 -3.1819 -0.4715 -0.6154
15937SOL    HW249253   5.877   4.863   2.470  1.3188  0.2172 -0.2398
15938SOL     OW49254   7.033   7.309  11.202  0.3650 -0.6850  0.1362
15938SOL    HW149255   6.969   7.243  11.174  0.3463 -0.1782 -1.0611
15938SOL    HW249256   6.988   7.393  11.190  0.9885 -0.3607  0.0172
15939SOL     OW49257   4.874   5.305   1.449 -0.0893 -0.3128 -0.2783
15939SOL    HW149258   4.930   5.358   1.506 -0.5103  0.9753 -1.0031
15939SOL    HW249259   4.887   5.215   1.479  1.0836  0.1299  0.6457
15940SOL     OW49260   4.099   1.682   9.393  0.3733  0.6241 -0.4057
15940SOL    HW149261   4.017   1.670   9.440  1.7010 -2.7024  1.4089
15940SOL    HW249262   4.160   1.715   9.459  1.4291 -0.7848 -0.6368
15941SOL     OW49263   5.720   1.966  11.231  0.2410 -0.3799  0.2383
15941SOL    HW149264   5.729   1.888  11.285 -1.5348 -1.9421 -1.5464
15941SOL    HW249265   5.646   2.013  11.269 -0.2435 -0.8666 -0.0746
15942SOL     OW49266   4.333   3.212  10.646 -0.5911 -0.5634 -0.3476
15942SOL    HW149267   4.379   3.256  10.575  0.0503 -0.4654  0.1292
15942SOL    HW249268   4.401   3.163  10.693 -0.8100  0.3087  0.9107
15943SOL     OW49269   4.114   5.428   8.800 -0.2974  0.0225 -0.7136
15943SOL    HW149270   4.031   5.455   8.760  0.3437 -0.3893 -2.4149
15943SOL    HW249271   4.100   5.336   8.824 -0.7339  0.3129  0.1907
15944SOL     OW49272   1.004   3.529  11.918  0.6599  0.0386  0.0549
15944SOL    HW149273   1.021   3.623  11.921  0.3211  0.0770  1.7614
15944SOL    HW249274   0.979   3.513  11.827  0.2841  1.6812 -0.1769
15945SOL     OW49275   3.648   6.823   2.313 -1.0971  0.1815  0.2496
15945SOL    HW149276   3.659   6.882   2.239 -0.6298  0.1618  0.2956
15945SOL    HW249277   3.585   6.757   2.284 -0.0302 -0.5099 -0.5592
15946SOL     OW49278   3.044   2.193  11.369 -0.1361  0.3752  0.0660
15946SOL    HW149279   2.976   2.150  11.317 -0.7172  0.8968  0.3857
15946SOL    HW249280   3.075   2.264  11.313 -1.5653  1.6660  0.8322
15947SOL     OW49281   3.653   3.635   0.924  0.3170  0.0335 -0.1683
15947SOL    HW149282   3.695   3.626   0.838  0.3602  1.9470 -0.4070
15947SOL    HW249283   3.655   3.730   0.941  0.0821 -0.2852  1.8359
15948SOL     OW49284   2.058   6.505   7.655  0.1690 -0.0555  0.7079
15948SOL    HW149285   2.087   6.543   7.572 -0.6025  0.7144  0.7743
15948SOL    HW249286   2.018   6.578   7.702 -2.0044 -1.0610  0.5488
15949SOL     OW49287   0.510   6.535   1.736 -0.2121 -0.1069  0.1031
15949SOL    HW149288   0.435   6.593   1.721  0.1843 -0.0401 -1.8932
15949SOL    HW249289   0.560   6.578   1.806 -1.0655  0.8048  0.1746
15950SOL     OW49290   0.757   4.017   8.210  0.3187 -0.2480 -0.1249
15950SOL    HW149291   0.708   4.011   8.293 -0.4068  1.2834 -0.4036
15950SOL    HW249292   0.847   3.995   8.234  0.2973  0.9994  1.2737
15951SOL     OW49293   5.946   0.338   1.184  0.0407  0.5467 -0.1275
15951SOL    HW149294   6.002   0.326   1.261 -0.9030  0.8097  0.6267
15951SOL    HW249295   6.004   0.375   1.118  0.4649  2.1852  1.0951
15952SOL     OW49296   6.563   7.247   7.643 -0.0001  0.1524  0.1784
15952SOL    HW149297   6.505   7.194   7.588  0.5346  0.3295 -0.5765
15952SOL    HW249298   6.646   7.250   7.595  1.1355 -1.3262  1.9311
15953SOL     OW49299   6.682   4.496   0.906  0.2264  0.4937 -0.3087
15953SOL    HW149300   6.634   4.566   0.861 -1.0377 -0.3345 -0.2802
15953SOL    HW249301   6.642   4.491   0.993 -0.0946 -0.6613 -0.5144
15954SOL     OW49302   7.841   4.043   9.640  0.6435 -0.2011  0.7600
15954SOL    HW149303   7.934   4.039   9.619  0.6119 -0.0078  0.5860
15954SOL    HW249304   7.797   4.054   9.556  0.4627 -0.2969  0.8409
15955SOL     OW49305   6.420   7.240   0.551  0.1798 -0.0246 -0.1248
15955SOL    HW149306   6.391   7.298   0.621  2.2977 -0.6496  1.3905
15955SOL    HW249307   6.480   7.293   0.499  0.4079 -0.2213 -0.0630
15956SOL     OW49308   3.104   2.005  10.062  0.1941  0.5216 -0.4219
15956SOL    HW149309   3.016   2.038  10.046 -0.0804 -0.3048 -0.6918
15956SOL    HW249310   3.094   1.942  10.133  0.0731 -1.5541 -2.1651
15957SOL     OW49311   0.376   4.421   4.196  0.3738 -0.6967  0.0121
15957SOL    HW149312   0.465   4.407   4.167  0.5216  0.5878 -0.2021
15957SOL    HW249313   0.368   4.368   4.276  1.4187 -0.5752  0.2065
15958SOL     OW49314   4.461   7.068   8.959  0.1752  0.3507  0.5037
15958SOL    HW149315   4.404   7.081   8.883  0.5995 -0.7032 -0.0058
15958SOL    HW249316   4.533   7.129   8.945 -0.0525  0.5954  0.3778
15959SOL     OW49317   7.195   7.444  10.264 -0.1133  0.0771 -0.2708
15959SOL    HW149318   7.238   7.366  10.299 -1.1934 -0.6145 -0.4403
15959SOL    HW249319   7.255   7.516  10.285  0.6231 -0.7134  0.4097
15960SOL     OW49320   1.686   2.700   2.668 -0.0290  0.2660 -0.1153
15960SOL    HW149321   1.653   2.666   2.751 -0.3569  1.5251  0.2951
15960SOL    HW249322   1.761   2.754   2.692 -1.1097  1.9774 -0.4138
15961SOL     OW49323   7.862   3.938   0.542  0.6778 -0.2355  0.1293
15961SOL    HW149324   7.889   4.018   0.586  0.4117  0.2319 -0.5434
15961SOL    HW249325   7.856   3.873   0.612 -1.4206  0.8954  1.1087
15962SOL     OW49326   1.470   0.646   0.207  0.2158 -0.0584 -0.6673
15962SOL    HW149327   1.398   0.585   0.194 -0.7729  0.6967  0.9797
15962SOL    HW249328   1.500   0.629   0.296  1.1027  0.6621 -0.8131
15963SOL     OW49329   0.597   4.956   2.499  0.0116 -0.1896  0.5736
15963SOL    HW149330   0.553   5.018   2.557 -0.8520 -0.4589  0.2209
15963SOL    HW249331   0.663   4.915   2.553  0.0332  0.4381  1.0360
15964SOL     OW49332   2.080   0.983   3.621 -0.0388  0.2275  0.3864
15964SOL    HW149333   2.068   1.052   3.686  1.0099 -1.0137  1.9704
15964SOL    HW249334   1.993   0.943   3.613 -0.0977  0.1358  1.3427
15965SOL     OW49335   3.758   4.154   3.491 -0.3270  0.2325  0.0035
15965SOL    HW149336   3.813   4.218   3.447  0.3751  0.2118  0.8326
15965SOL    HW249337   3.672   4.166   3.452  0.0916  0.7838 -0.7749
15966SOL     OW49338   1.386   7.558   2.956  0.1927 -0.4826  0.0466
15966SOL    HW149339   1.305   7.591   2.917  0.2965  2.0871  1.7295
15966SOL    HW249340   1.429   7.636   2.992  1.2202 -2.2861  3.1392
15967SOL     OW49341   1.121   7.728   4.551  0.3556  0.4645  0.0502
15967SOL    HW149342   1.064   7.772   4.488  1.0094 -0.4644 -1.2474
15967SOL    HW249343   1.209   7.742   4.517  0.6863 -0.4214  0.5053
15968SOL     OW49344   7.749   1.031   1.808  0.5645 -0.4361  0.7444
15968SOL    HW149345   7.698   0.961   1.851  0.9588 -1.6267 -0.6396
15968SOL    HW249346   7.840   1.005   1.821  0.7778  0.5803  1.4000
15969SOL     OW49347   7.767   3.723   1.002 -0.0843  0.2641 -0.2772
15969SOL    HW149348   7.684   3.712   1.049  0.1401  0.4965  0.1734
15969SOL    HW249349   7.834   3.717   1.069  0.2214  1.0217 -0.4982
15970SOL     OW49350   2.668   1.999   7.523 -0.2563 -0.0964  0.2583
15970SOL    HW149351   2.686   2.049   7.444  1.0857 -0.2047  0.4677
15970SOL    HW249352   2.715   2.046   7.592  0.8906 -1.5191  0.4850
15971SOL     OW49353   5.232   2.435   0.571  0.7553  0.1868  0.1432
15971SOL    HW149354   5.240   2.340   0.570 -2.9885 -0.2976  0.0293
15971SOL    HW249355   5.261   2.463   0.484 -2.2736 -1.5105 -1.6023
15972SOL     OW49356   7.093   4.030   2.802  0.0483 -0.3794  0.5819
15972SOL    HW149357   7.016   4.050   2.855  0.9186  0.0374  1.7046
15972SOL    HW249358   7.069   4.059   2.714  0.0550  2.7523  1.4957
15973SOL     OW49359   5.150   7.313   8.872 -0.0919  0.2247 -0.5184
15973SOL    HW149360   5.094   7.297   8.949  0.1087 -0.8915 -0.5921
15973SOL    HW249361   5.222   7.251   8.882 -0.1745 -0.0853 -1.7253
15974SOL     OW49362   6.961   4.887   7.405 -0.1411 -0.2300 -0.3556
15974SOL    HW149363   6.999   4.819   7.349  1.6150  1.8830 -1.9248
15974SOL    HW249364   7.028   4.903   7.471  0.3108  1.2039 -1.1186
15975SOL     OW49365   0.676   2.530   0.119  1.0609 -0.5323  0.2375
15975SOL    HW149366   0.670   2.575   0.204  1.2684  1.2418 -0.6269
15975SOL    HW249367   0.615   2.579   0.063  2.7066 -0.1115 -1.2619
15976SOL     OW49368   2.045   4.206  11.039 -0.0282  0.1438  0.5598
15976SOL    HW149369   2.114   4.145  11.014 -0.4611 -0.8017  1.5973
15976SOL    HW249370   2.088   4.268  11.098  0.2551  0.4408  0.0492
15977SOL     OW49371   0.375   6.834   2.505  0.2051 -0.3005  0.0208
15977SOL    HW149372   0.429   6.870   2.575 -0.1632  0.3512 -0.0202
15977SOL    HW249373   0.287   6.864   2.525  0.1575  0.2096 -0.9294
15978SOL     OW49374   1.363   2.685   9.180  1.0109 -0.0306  0.1873
15978SOL    HW149375   1.300   2.626   9.221  0.7371 -0.1491 -0.4020
15978SOL    HW249376   1.335   2.772   9.205 -0.7115  0.0655 -1.8749
15979SOL     OW49377   2.097   6.358   3.567 -0.4809  0.4207 -0.2192
15979SOL    HW149378   2.078   6.441   3.611  0.3397  0.9556 -0.8581
15979SOL    HW249379   2.081   6.375   3.474 -0.0082 -0.0488 -0.3956
15980SOL     OW49380   3.873   0.208   7.456 -0.2878  0.2089 -0.3245
15980SOL    HW149381   3.959   0.176   7.484  0.1494  0.8161 -0.9254
15980SOL    HW249382   3.834   0.135   7.408  0.7550  0.5802 -1.8107
15981SOL     OW49383   0.915   7.923   4.435 -0.7458 -0.1786  0.0496
15981SOL    HW149384   0.830   7.920   4.391 -0.4957  0.6828 -0.5081
15981SOL    HW249385   0.950   8.010   4.415 -0.1819 -0.1406  1.1210
15982SOL     OW49386   4.393   1.066  11.964 -0.1648 -0.5512  0.0368
15982SOL    HW149387   4.362   1.003  12.029  1.1457 -0.2560  0.9729
15982SOL    HW249388   4.386   1.151  12.007  0.3494 -0.3135 -0.3349
15983SOL     OW49389   4.241   7.794   5.119  0.6664 -0.0643 -0.3042
15983SOL    HW149390   4.181   7.723   5.096  1.0259 -0.8285  1.0005
15983SOL    HW249391   4.293   7.758   5.191 -0.0454  1.9557  1.3184
15984SOL     OW49392   5.535   1.749   1.053  0.4642  0.2517  0.4338
15984SOL    HW149393   5.630   1.746   1.044  0.4533 -1.4085  0.6202
15984SOL    HW249394   5.514   1.675   1.110 -0.9421  0.6695  0.4908
15985SOL     OW49395   1.966   3.611   2.497 -0.2764  0.3798  0.5865
15985SOL    HW149396   1.876   3.591   2.470  0.2285  0.4886 -1.3221
15985SOL    HW249397   2.020   3.579   2.425  1.3089 -0.5766  2.1478
15986SOL     OW49398   1.030   6.399   8.062  0.2613 -0.2795 -0.1183
15986SOL    HW149399   1.083   6.465   8.106  0.8225 -0.6989 -0.1579
15986SOL    HW249400   1.041   6.418   7.969  0.0635 -0.1596 -0.1194
15987SOL     OW49401   0.680   4.787   9.354  0.1176  0.4394 -0.9658
15987SOL    HW149402   0.591   4.777   9.320 -0.7774 -0.0944  1.3136
15987SOL    HW249403   0.681   4.873   9.395 -0.0373 -0.2956  0.7020
15988SOL     OW49404   4.166   6.458  11.393 -0.8837 -0.0586  0.2965
15988SOL    HW149405   4.237   6.504  11.349 -0.1071 -0.1395  1.4170
15988SOL    HW249406   4.137   6.392  11.330 -1.4964  1.4102 -1.0400
15989SOL     OW49407   4.710   3.797  10.092 -0.3503 -0.4601 -0.5348
15989SOL    HW149408   4.689   3.854  10.166 -1.5244 -1.1128 -0.3243
15989SOL    HW249409   4.803   3.776  10.103 -0.6783 -1.1740  1.2421
15990SOL     OW49410   0.954   3.252   2.918 -0.0603 -0.4936 -0.1712
15990SOL    HW149411   1.004   3.170   2.920  0.4035 -0.2984 -1.8546
15990SOL    HW249412   0.899   3.244   2.840 -1.5863 -0.0563  0.8052
15991SOL     OW49413   7.364   4.980   4.707  0.0449  0.2967 -0.3981
15991SOL    HW149414   7.280   5.019   4.681 -0.6609 -1.7899 -1.5809
15991SOL    HW249415   7.367   4.898   4.657  1.9019 -0.6132  1.1179
15992SOL     OW49416   1.567   5.399   7.315  1.0019  0.3750  0.7436
15992SOL    HW149417   1.570   5.323   7.373 -0.7945 -0.1208  0.2369
15992SOL    HW249418   1.653   5.402   7.274  0.4865 -2.6060 -0.7543
15993SOL     OW49419   4.256   1.322   9.612 -0.2040 -0.0642  0.4857
15993SOL    HW149420   4.193   1.344   9.681 -0.9511 -0.4966 -0.0438
15993SOL    HW249421   4.202   1.299   9.537  0.4760  3.5960 -1.3840
15994SOL     OW49422   3.655   7.594   4.310  0.4623  0.0596 -0.1122
15994SOL    HW149423   3.738   7.552   4.333  0.3967 -0.1471 -0.2541
15994SOL    HW249424   3.612   7.532   4.252 -0.3062 -0.3433  0.8653
15995SOL     OW49425   5.022   5.627   1.651 -0.3482 -0.0778  0.4781
15995SOL    HW149426   4.989   5.544   1.684 -0.4034  0.2340  1.2310
15995SOL    HW249427   5.113   5.609   1.627 -1.1476 -1.0852 -2.1548
15996SOL     OW49428   6.129   2.246   0.281 -1.1509 -0.6193 -0.1324
15996SOL    HW149429   6.217   2.262   0.315 -0.4292 -1.2104 -1.6601
15996SOL    HW249430   6.121   2.304   0.206 -1.6112 -1.3984 -0.6982
15997SOL     OW49431   5.096   7.602   8.285  0.6028  0.2416  0.4085
15997SOL    HW149432   5.126   7.671   8.343  1.2608  0.9811 -0.7678
15997SOL    HW249433   5.096   7.642   8.198 -1.2484 -0.5338 -0.0144
15998SOL     OW49434   6.546   1.219   6.575 -0.2137 -0.2168  0.5581
15998SOL    HW149435   6.541   1.123   6.568 -1.1746 -0.1499  0.0948
15998SOL    HW249436   6.621   1.235   6.632  1.4019 -1.1501 -1.2018
15999SOL     OW49437   1.647   2.647   9.281  0.3813 -0.1232  0.1451
15999SOL    HW149438   1.701   2.662   9.204  0.2792 -0.7918 -0.0645
15999SOL    HW249439   1.557   2.661   9.251  0.3036 -0.8854  0.0073
16000SOL     OW49440   0.090   4.454   3.456  0.3316 -0.1159 -0.7668
16000SOL    HW149441   0.105   4.399   3.379  1.4352  1.2231 -1.5512
16000SOL    HW249442   0.014   4.507   3.433  0.0437 -0.4137 -0.5161
16001SOL     OW49443   6.406   2.924  10.689  0.1746 -0.4176 -0.0399
16001SOL    HW149444   6.385   2.945  10.780  0.1726  0.2785 -0.1977
16001SOL    HW249445   6.458   2.843  10.694  1.2296  0.2791  0.6691
16002SOL     OW49446   1.081   1.111   7.991  0.4049 -0.1594 -0.6872
16002SOL    HW149447   0.989   1.104   8.013  0.6199 -0.0131  0.2807
16002SOL    HW249448   1.104   1.202   8.009  0.8695 -0.3266 -0.4191
16003SOL     OW49449   0.888   7.594   9.457  0.0246 -0.2921 -0.1152
16003SOL    HW149450   0.956   7.527   9.449  0.6040 -0.1352  2.5751
16003SOL    HW249451   0.935   7.672   9.485 -1.0544  0.2480  0.2477
16004SOL     OW49452   4.806   1.143   2.969 -0.1829 -0.6546  0.3074
16004SOL    HW149453   4.758   1.165   3.049 -0.6687  0.1502 -0.2003
16004SOL    HW249454   4.878   1.206   2.967  0.0878 -0.9598  0.3314
16005SOL     OW49455   1.503   5.521   2.561  0.6677 -0.0144  0.0322
16005SOL    HW149456   1.503   5.443   2.505 -1.2932 -0.7632  0.9710
16005SOL    HW249457   1.412   5.529   2.590  1.7357 -0.2851  3.9457
16006SOL     OW49458   3.391   3.987   9.341 -0.0188 -0.2458 -0.0069
16006SOL    HW149459   3.447   3.921   9.300 -1.8937 -1.0722 -1.3229
16006SOL    HW249460   3.334   4.017   9.271 -1.7425  0.0266  1.4544
16007SOL     OW49461   4.936   1.467   0.325 -0.5302  0.7282  0.5014
16007SOL    HW149462   4.957   1.425   0.241 -2.6015  0.4817  0.0578
16007SOL    HW249463   4.946   1.561   0.308  0.3660  0.6182  0.3835
16008SOL     OW49464   3.046   1.431   3.369  0.5066  0.4080  0.5480
16008SOL    HW149465   2.998   1.460   3.447  0.0434 -1.4239  0.9918
16008SOL    HW249466   3.017   1.491   3.300 -0.9420  0.5677  1.2468
16009SOL     OW49467   1.618   0.096   6.603  0.1120  0.2855 -0.2398
16009SOL    HW149468   1.585   0.022   6.552 -1.0171 -0.7798  1.8967
16009SOL    HW249469   1.544   0.156   6.608  0.0185  0.0981  0.6401
16010SOL     OW49470   7.826   4.767   8.136 -0.4765 -0.0273 -0.4251
16010SOL    HW149471   7.903   4.727   8.097 -0.8004 -0.4931 -0.5876
16010SOL    HW249472   7.820   4.728   8.224  0.9854  1.9423  0.6309
16011SOL     OW49473   4.027   5.348   9.666  0.3661 -0.0309 -0.0924
16011SOL    HW149474   4.065   5.436   9.660  0.2501 -0.0028 -0.4813
16011SOL    HW249475   3.960   5.347   9.597  0.1971 -0.3411  0.0765
16012SOL     OW49476   4.310   1.883   7.099  0.3926 -0.0631  0.0769
16012SOL    HW149477   4.290   1.811   7.160  0.9200 -0.0504  0.2629
16012SOL    HW249478   4.267   1.857   7.017  0.5832 -0.5896  0.1419
16013SOL     OW49479   7.465   7.901   1.268 -0.1827 -0.6491 -0.7535
16013SOL    HW149480   7.392   7.940   1.220 -0.6420  0.2386  0.6246
16013SOL    HW249481   7.517   7.975   1.298  1.1120 -1.2651 -1.4221
16014SOL     OW49482   4.000   6.664   6.780 -0.9259  0.3618 -0.0377
16014SOL    HW149483   4.023   6.629   6.694 -1.6086  0.6003 -0.3248
16014SOL    HW249484   4.071   6.725   6.801 -0.4385 -0.1656 -0.1526
16015SOL     OW49485   1.642   2.875   2.918  0.1455  0.3141 -0.2117
16015SOL    HW149486   1.615   2.784   2.908  1.2748 -0.0363 -0.1890
16015SOL    HW249487   1.728   2.879   2.878  1.3661  0.6915  2.2511
16016SOL     OW49488   6.145   3.129   3.648 -0.2689  0.0401 -0.4912
16016SOL    HW149489   6.098   3.132   3.732  2.7908 -2.7021  1.5848
16016SOL    HW249490   6.161   3.036   3.632  4.1530  0.6262 -0.9784
16017SOL     OW49491   2.832   4.363  10.219 -0.4531 -0.4323 -0.2893
16017SOL    HW149492   2.776   4.384  10.295  0.1942  2.3067 -0.4827
16017SOL    HW249493   2.911   4.326  10.257 -0.7871 -0.5969  0.2581
16018SOL     OW49494   1.394   4.059  11.842  0.1531  0.7860 -0.3224
16018SOL    HW149495   1.469   4.047  11.900 -2.3087 -2.8204  2.6195
16018SOL    HW249496   1.428   4.045  11.754  3.0243  0.0768  0.8156
16019SOL     OW49497   7.114   0.657   5.143 -0.2204 -0.2399 -0.1084
16019SOL    HW149498   7.031   0.618   5.171  0.2617 -1.9420 -0.9124
16019SOL    HW249499   7.168   0.658   5.222 -0.5973 -0.2038  0.1521
16020SOL     OW49500   1.230   0.318  10.468  0.6687 -0.7518  0.0915
16020SOL    HW149501   1.232   0.335  10.374  1.2064 -2.0246 -0.1576
16020SOL    HW249502   1.322   0.313  10.493  0.5357  0.3348  0.8517
16021SOL     OW49503   4.885   2.194   3.087 -0.2110  0.0127 -0.2552
16021SOL    HW149504   4.957   2.248   3.120  0.8321 -0.4328 -1.6883
16021SOL    HW249505   4.823   2.189   3.160  0.7018  1.2940  0.6561
16022SOL     OW49506   1.006   7.398   9.796 -0.0675  0.2485  0.5515
16022SOL    HW149507   1.081   7.450   9.768 -1.1995  0.5662 -2.2027
16022SOL    HW249508   0.936   7.462   9.809 -0.5000 -0.2656  0.8045
16023SOL     OW49509   6.787   5.038   0.788  0.0144 -0.0541  0.5223
16023SOL    HW149510   6.878   5.051   0.764  0.4096  0.7554  2.2969
16023SOL    HW249511   6.748   5.126   0.785 -0.8812 -0.4549 -0.7465
16024SOL     OW49512   4.601   7.931   5.267  0.1088  0.1791  0.2971
16024SOL    HW149513   4.659   7.923   5.191 -0.3805  0.6796 -0.1437
16024SOL    HW249514   4.540   7.857   5.258 -0.1607  0.4334  0.0095
16025SOL     OW49515   6.278   3.030   7.785 -0.0145  0.0261 -0.3414
16025SOL    HW149516   6.229   3.093   7.838 -0.0550  1.0750 -1.5808
16025SOL    HW249517   6.222   3.014   7.709  0.8382 -0.0321 -0.9727
16026SOL     OW49518   1.047   4.760   6.015 -0.0983 -0.5940  0.3631
16026SOL    HW149519   1.084   4.706   6.085  0.1709 -1.5781 -0.5102
16026SOL    HW249520   0.978   4.706   5.976  0.1360 -0.2927 -0.5014
16027SOL     OW49521   5.191   6.245  11.070 -0.1506 -0.0735  0.1301
16027SOL    HW149522   5.166   6.305  11.140  0.8784  0.8189 -0.2463
16027SOL    HW249523   5.222   6.301  11.000  1.0079 -1.0511 -0.1730
16028SOL     OW49524   4.758   6.999   1.754  0.0611 -0.1065  0.2400
16028SOL    HW149525   4.773   6.905   1.755  0.3592 -0.0555  0.8018
16028SOL    HW249526   4.662   7.008   1.756  0.0233 -0.3960 -0.1568
16029SOL     OW49527   6.747   6.846   3.754  0.2686 -0.0327 -0.7401
16029SOL    HW149528   6.672   6.854   3.814  1.4705  1.2960  0.6762
16029SOL    HW249529   6.818   6.812   3.809  1.2788  0.7394 -1.5289
16030SOL     OW49530   7.845   2.418   3.679  0.2541  0.2328 -0.1321
16030SOL    HW149531   7.812   2.382   3.761  3.9277  1.1151  1.9510
16030SOL    HW249532   7.842   2.513   3.690 -1.5146  0.4994 -2.1569
16031SOL     OW49533   7.762   2.909   9.271 -0.6007 -0.5393  0.0378
16031SOL    HW149534   7.711   2.898   9.192 -0.2754  1.0155 -0.4181
16031SOL    HW249535   7.702   2.889   9.342 -1.6386  0.5246 -0.5168
16032SOL     OW49536   4.385   7.773   0.557  0.0654 -0.2134  0.6985
16032SOL    HW149537   4.322   7.733   0.497  0.3926 -0.2240  0.3600
16032SOL    HW249538   4.380   7.719   0.636  1.1418 -1.5120 -0.0639
16033SOL     OW49539   0.718   2.076   2.730  0.1991  0.3323  0.1766
16033SOL    HW149540   0.659   2.144   2.763  0.0074  0.8098 -1.0618
16033SOL    HW249541   0.806   2.113   2.743  0.2817 -0.4709  2.2203
16034SOL     OW49542   0.034   1.010   9.036 -0.0909  0.7511 -0.5846
16034SOL    HW149543   0.116   1.055   9.055 -0.9040  3.1998 -2.2920
16034SOL    HW249544   0.018   0.955   9.113  2.1325  1.6838  0.6461
16035SOL     OW49545   0.075   4.670   8.046  0.2902  0.0364  0.3649
16035SOL    HW149546   0.133   4.621   8.103 -0.6223  0.2532  1.5190
16035SOL    HW249547   0.120   4.671   7.961  1.4305 -0.7300  0.9326
16036SOL     OW49548   2.258   0.274   5.479 -0.0905 -0.3294  0.4960
16036SOL    HW149549   2.334   0.215   5.481 -0.0368 -0.3512 -1.2184
16036SOL    HW249550   2.263   0.317   5.394 -1.7392  0.0478  0.5641
16037SOL     OW49551   7.835   2.035  12.232 -0.2926 -0.0477 -0.4015
16037SOL    HW149552   7.757   2.000  12.274  1.0187  1.2331  3.4896
16037SOL    HW249553   7.903   1.969  12.247 -0.1788 -0.4773 -2.4412
16038SOL     OW49554   5.081   4.952  10.133 -0.2411  0.4493 -0.3601
16038SOL    HW149555   5.056   5.027  10.078 -0.9508 -0.4847 -1.3700
16038SOL    HW249556   5.162   4.980  10.176  0.3772  1.2233 -1.9302
16039SOL     OW49557   1.096   2.780   3.389  0.4345  0.0569  0.2210
16039SOL    HW149558   1.023   2.740   3.341  0.9506 -0.7432  0.0768
16039SOL    HW249559   1.148   2.823   3.321  1.3406 -1.3480 -0.0286
16040SOL     OW49560   2.007   2.413   1.691  0.2127  0.0654  0.1171
16040SOL    HW149561   1.942   2.452   1.631 -0.3064 -2.2161 -0.9008
16040SOL    HW249562   1.966   2.419   1.777 -0.5482  0.3173 -0.2506
16041SOL     OW49563   6.277   4.103  10.224  0.6340  0.5788 -0.3361
16041SOL    HW149564   6.252   4.029  10.279  1.7211  0.0587 -0.5044
16041SOL    HW249565   6.210   4.105  10.155  0.0568  0.3579  0.2134
16042SOL     OW49566   1.437   6.810   3.449  0.4987  0.4815  0.6577
16042SOL    HW149567   1.446   6.904   3.429  0.8003  0.5081  0.9022
16042SOL    HW249568   1.466   6.803   3.541  1.0469  0.0568  0.4570
16043SOL     OW49569   5.520   5.911  10.026  0.2441 -0.2026  0.0894
16043SOL    HW149570   5.538   5.963   9.948  1.6598 -1.2305 -0.2965
16043SOL    HW249571   5.429   5.933  10.049  0.0015  0.5506 -1.4869
16044SOL     OW49572   4.360   0.809   0.234 -0.0562 -0.4251 -0.5102
16044SOL    HW149573   4.455   0.819   0.232 -0.1019 -0.0522 -1.0560
16044SOL    HW249574   4.339   0.788   0.325  0.3293  1.6828  0.1069
16045SOL     OW49575   6.258   7.393  11.212  0.1251 -0.0629 -0.0579
16045SOL    HW149576   6.301   7.308  11.226 -0.9477 -0.8995 -1.6297
16045SOL    HW249577   6.173   7.371  11.175 -0.2773  1.6984 -0.2353
16046SOL     OW49578   0.974   6.008   3.615  0.0463  0.3743 -0.3528
16046SOL    HW149579   1.005   5.917   3.619 -0.3542  0.2176 -0.8021
16046SOL    HW249580   0.889   6.007   3.659  0.6143  0.7909  0.8051
16047SOL     OW49581   5.515   0.478   7.868 -0.2890 -0.5721  0.0565
16047SOL    HW149582   5.602   0.442   7.850 -0.3493 -0.8700  0.3417
16047SOL    HW249583   5.455   0.404   7.857 -0.5163 -0.3465 -0.2238
16048SOL     OW49584   4.360   5.952   1.508  0.6499  0.2525  0.4032
16048SOL    HW149585   4.337   6.041   1.532 -0.1696 -0.3557  2.0323
16048SOL    HW249586   4.444   5.960   1.463  0.7100  1.8177  0.7446
16049SOL     OW49587   2.708   3.572   1.695  0.5582  0.0980 -0.3255
16049SOL    HW149588   2.707   3.641   1.762  0.8800 -1.1184  0.9796
16049SOL    HW249589   2.780   3.597   1.637  4.4741 -1.7835  3.1444
16050SOL     OW49590   6.510   6.354   3.595 -0.2627 -0.4463  0.2971
16050SOL    HW149591   6.501   6.312   3.509  0.2445 -0.9516  0.4866
16050SOL    HW249592   6.420   6.378   3.619 -0.2833  1.0143 -1.0086
16051SOL     OW49593   6.135   4.843   3.039 -0.1405 -0.3293  0.3955
16051SOL    HW149594   6.159   4.765   2.989 -0.0027  0.2828 -0.5071
16051SOL    HW249595   6.088   4.899   2.976 -0.8313  0.0256  1.2075
16052SOL     OW49596   7.334   7.852  10.831 -0.0474 -0.2265 -0.4403
16052SOL    HW149597   7.355   7.806  10.913  1.0306  0.0027 -0.5755
16052SOL    HW249598   7.296   7.935  10.859 -0.9602 -0.7199 -0.1875
16053SOL     OW49599   6.050   5.707   7.505 -0.0256  0.6104  0.1069
16053SOL    HW149600   5.979   5.759   7.465 -1.0361  0.0308  1.0831
16053SOL    HW249601   6.015   5.618   7.507  0.8813  0.2551  0.2955
16054SOL     OW49602   4.941   5.734   9.107  0.3038 -0.0324 -0.4191
16054SOL    HW149603   4.988   5.731   9.191 -1.9696  1.5841  1.0203
16054SOL    HW249604   4.920   5.643   9.088  0.8812 -0.4291  0.7414
16055SOL     OW49605   3.493   4.490   8.531 -0.8998 -0.7062 -0.9377
16055SOL    HW149606   3.430   4.433   8.488 -0.2812 -0.9419 -1.5585
16055SOL    HW249607   3.579   4.452   8.509 -0.5575 -0.6170  0.2041
16056SOL     OW49608   5.580   5.148   4.602 -0.0358  0.0544 -0.2902
16056SOL    HW149609   5.493   5.177   4.574 -0.0047  0.7770  0.3306
16056SOL    HW249610   5.563   5.078   4.665 -0.2341  1.2121  0.9867
16057SOL     OW49611   1.950   6.705   7.774  0.2244 -0.2716 -0.7443
16057SOL    HW149612   1.930   6.795   7.749  0.9320 -0.5868 -2.5084
16057SOL    HW249613   1.881   6.683   7.838 -1.0592  0.8999 -1.6671
16058SOL     OW49614   1.619   7.955   3.805  0.1263 -0.2321  0.2178
16058SOL    HW149615   1.628   7.883   3.741  0.9155 -0.2711  0.3579
16058SOL    HW249616   1.693   7.942   3.865  0.1854  0.6091  0.3314
16059SOL     OW49617   7.977   6.811  11.201 -0.0419 -0.5092 -0.4696
16059SOL    HW149618   8.067   6.842  11.207 -0.9962  2.2810  0.9519
16059SOL    HW249619   7.960   6.805  11.107  1.4636 -0.7364 -0.7598
16060SOL     OW49620   5.536   7.217   8.166  0.0121 -0.2571  0.3685
16060SOL    HW149621   5.569   7.178   8.247 -0.7170 -0.2130  0.6953
16060SOL    HW249622   5.584   7.172   8.096 -1.3040 -2.2843  0.6902
16061SOL     OW49623   3.771   2.701   6.283  0.3913 -0.1516 -0.0161
16061SOL    HW149624   3.850   2.722   6.234  0.8634  1.5690  1.3539
16061SOL    HW249625   3.699   2.731   6.227  0.8918  1.2830  0.0573
16062SOL     OW49626   5.078   2.355   5.985 -0.7773 -0.5233  0.2863
16062SOL    HW149627   4.983   2.360   5.996 -0.4623  2.1931  2.8014
16062SOL    HW249628   5.114   2.397   6.063  2.4623  0.8569 -1.7463
16063SOL     OW49629   1.477   0.466   2.000  0.2570  0.3362 -0.7850
16063SOL    HW149630   1.419   0.471   2.076  0.3019 -0.1071 -0.7155
16063SOL    HW249631   1.461   0.379   1.964  0.6856  0.3115 -0.9185
16064SOL     OW49632   6.443   7.222   9.023  0.1333  0.4721 -0.1262
16064SOL    HW149633   6.444   7.308   9.065 -2.0882  0.2248  0.5623
16064SOL    HW249634   6.397   7.236   8.940  0.0303  0.0168 -0.1505
16065SOL     OW49635   6.189   2.002   8.924  0.0902  0.3495 -0.4480
16065SOL    HW149636   6.185   1.912   8.892 -0.9752 -0.4359  1.6791
16065SOL    HW249637   6.105   2.040   8.900 -0.3426  0.0473  0.5274
16066SOL     OW49638   7.595   2.398   7.106 -0.4803  0.1299  0.2863
16066SOL    HW149639   7.546   2.318   7.124  1.6168 -1.5114 -0.7832
16066SOL    HW249640   7.645   2.414   7.186  0.3441 -0.6434 -0.0504
16067SOL     OW49641   7.147   3.758   7.791  0.6436  0.5313  0.4201
16067SOL    HW149642   7.211   3.687   7.801 -0.5999 -0.6988 -0.0096
16067SOL    HW249643   7.069   3.726   7.836 -0.0974  1.4464 -0.1913
16068SOL     OW49644   5.841   2.318   4.140 -0.4885 -1.0231 -0.0750
16068SOL    HW149645   5.799   2.401   4.161  2.4428  0.6794 -0.2535
16068SOL    HW249646   5.791   2.252   4.187 -2.8156  0.8490  0.2400
16069SOL     OW49647   0.487   4.107   0.970 -0.0263  0.4474 -0.3188
16069SOL    HW149648   0.429   4.177   0.938  0.6946  0.5324 -1.5091
16069SOL    HW249649   0.486   4.042   0.900  1.8046  0.7539 -0.6713
16070SOL     OW49650   4.995   0.742   6.616 -0.5685 -0.2708 -0.1624
16070SOL    HW149651   5.003   0.681   6.543  1.2942 -1.1860  0.7213
16070SOL    HW249652   5.019   0.690   6.693  1.3621  1.5690  0.5920
16071SOL     OW49653   5.009   5.743   6.395 -0.2587  0.3945 -0.1341
16071SOL    HW149654   5.030   5.663   6.443  1.2777  1.6667  1.4180
16071SOL    HW249655   5.093   5.775   6.363 -0.9142  1.1518 -1.1427
16072SOL     OW49656   4.877   2.757   5.744  0.6149 -0.6693  0.2478
16072SOL    HW149657   4.808   2.756   5.810 -0.1672 -0.1044 -0.5246
16072SOL    HW249658   4.951   2.714   5.785  0.6399  0.9379  2.0027
16073SOL     OW49659   1.245   5.633   9.508 -0.0691  0.1073  0.7887
16073SOL    HW149660   1.167   5.683   9.485  0.0441  0.8998  2.0355
16073SOL    HW249661   1.247   5.634   9.604  1.1793 -0.3562  0.7848
16074SOL     OW49662   2.295   1.825   2.799 -0.1508  0.3150 -0.2160
16074SOL    HW149663   2.378   1.874   2.799  0.1230 -0.1470 -0.4612
16074SOL    HW249664   2.317   1.740   2.762 -0.2120 -0.7087  1.9316
16075SOL     OW49665   7.797   7.071   1.000  0.1826 -0.2988  0.8341
16075SOL    HW149666   7.875   7.127   0.996  1.4869 -2.1027 -0.8791
16075SOL    HW249667   7.736   7.112   0.938  1.0679 -0.6488 -0.3024
16076SOL     OW49668   2.641   4.360  10.023  0.6970 -0.3923  0.3864
16076SOL    HW149669   2.694   4.385   9.948  0.5104 -0.4028  0.2493
16076SOL    HW249670   2.700   4.365  10.097  0.6756  0.3976  0.3549
16077SOL     OW49671   1.065   1.682  12.253 -0.3074  0.7836 -0.2382
16077SOL    HW149672   1.156   1.688  12.281 -0.5048 -0.4326  0.7052
16077SOL    HW249673   1.030   1.606  12.299 -1.8364  1.2966 -0.5011
16078SOL     OW49674   5.913   5.006   6.432 -0.5963 -0.5685 -0.1133
16078SOL    HW149675   5.985   4.962   6.478 -0.2939  0.3352  0.3002
16078SOL    HW249676   5.871   4.937   6.381  0.6306 -1.0884 -0.4433
16079SOL     OW49677   5.408   5.830   7.309 -0.5404 -0.3596  0.2327
16079SOL    HW149678   5.375   5.791   7.228 -1.0379  0.2031  0.1503
16079SOL    HW249679   5.437   5.756   7.361 -0.2226 -0.7298 -0.4589
16080SOL     OW49680   4.910   5.895   4.026  0.5707 -0.3509  0.5194
16080SOL    HW149681   4.932   5.834   3.955  0.3003  1.1368 -0.9163
16080SOL    HW249682   4.865   5.841   4.091  0.0362 -1.6300 -0.8494
16081SOL     OW49683   5.014   0.110   8.219  0.2844  0.0277  0.1409
16081SOL    HW149684   4.959   0.187   8.228  1.7358  1.6610 -3.2160
16081SOL    HW249685   5.077   0.117   8.291 -0.3579  1.2853  0.6098
16082SOL     OW49686   7.233   1.984  12.399 -0.3855  0.2529 -0.1652
16082SOL    HW149687   7.299   2.028  12.346 -0.8791 -0.2542 -1.2247
16082SOL    HW249688   7.242   2.023  12.486 -0.5480  2.1646 -0.9720
16083SOL     OW49689   0.470   5.232   1.283 -0.2098  0.0031  0.1535
16083SOL    HW149690   0.486   5.158   1.343 -0.6387 -0.5195 -0.3730
16083SOL    HW249691   0.382   5.217   1.249 -0.5193  1.0613  0.4580
16084SOL     OW49692   4.842   4.877   0.658  0.6747 -0.0637 -0.5005
16084SOL    HW149693   4.850   4.968   0.685  1.3637 -0.0002 -0.9123
16084SOL    HW249694   4.748   4.857   0.669  0.0381  1.4143 -2.7103
16085SOL     OW49695   6.092   1.786   3.042  0.3882  0.0922  0.1764
16085SOL    HW149696   6.016   1.822   3.087 -0.3452 -0.4406 -0.5980
16085SOL    HW249697   6.071   1.693   3.030  1.3343 -0.1488  0.2995
16086SOL     OW49698   3.854   3.915   3.142  0.1189 -0.3322 -0.2327
16086SOL    HW149699   3.917   3.849   3.171  0.0426  0.2305  1.3257
16086SOL    HW249700   3.895   3.999   3.165 -1.6900  0.0319  2.0561
16087SOL     OW49701   0.551   3.839   1.118  0.5393 -0.0419 -0.2995
16087SOL    HW149702   0.530   3.933   1.119  2.7567  0.5055  0.5456
16087SOL    HW249703   0.614   3.830   1.046  1.5042 -0.5820  0.6007
16088SOL     OW49704   2.636   1.791   8.067 -0.8596 -1.1858  0.1240
16088SOL    HW149705   2.609   1.728   8.001 -0.6463 -1.0481 -0.0947
16088SOL    HW249706   2.639   1.741   8.149 -0.5651 -1.4918 -0.0737
16089SOL     OW49707   7.883   6.771  11.706  0.0517  0.1141 -0.2761
16089SOL    HW149708   7.924   6.688  11.731  2.8238  1.2813 -0.5036
16089SOL    HW249709   7.806   6.746  11.656 -0.0666 -2.2943  0.9850
16090SOL     OW49710   2.418   1.645   6.128 -0.5866 -0.1302 -0.0358
16090SOL    HW149711   2.426   1.740   6.120 -2.1349 -0.1169 -2.2876
16090SOL    HW249712   2.355   1.631   6.198  1.6964  0.3284  2.2750
16091SOL     OW49713   3.572   6.863  10.112  0.3485  0.4804  0.8136
16091SOL    HW149714   3.493   6.810  10.103  1.0582 -0.7731  1.5030
16091SOL    HW249715   3.562   6.908  10.196  0.5387 -0.0332  1.1216
16092SOL     OW49716   7.973   5.629   4.579  0.6766  1.0939 -0.6173
16092SOL    HW149717   7.941   5.602   4.665  1.6836  0.0709 -0.5409
16092SOL    HW249718   7.894   5.636   4.526  0.1944 -0.2340 -0.1279
16093SOL     OW49719   5.577   1.630   3.523 -0.2478 -0.3783  0.1146
16093SOL    HW149720   5.528   1.605   3.445  1.7392  0.2488 -1.4112
16093SOL    HW249721   5.636   1.699   3.493  1.0353 -0.5778  2.0131
16094SOL     OW49722   1.403   2.903   3.522 -0.2295  0.5088  0.3661
16094SOL    HW149723   1.367   2.972   3.466  3.3605  0.6046 -2.1717
16094SOL    HW249724   1.497   2.921   3.524  0.3542 -2.0834  2.9378
16095SOL     OW49725   0.649   3.382   3.572 -0.3834  0.4277  0.0087
16095SOL    HW149726   0.720   3.381   3.507 -0.4257  0.2676 -0.0336
16095SOL    HW249727   0.597   3.305   3.553  1.9490 -2.1074  2.8249
16096SOL     OW49728   5.439   6.261  11.295  0.0886  0.5694 -0.1446
16096SOL    HW149729   5.375   6.198  11.263 -0.1570  1.1712 -0.8595
16096SOL    HW249730   5.458   6.232  11.385 -0.6529 -0.0223 -0.1659
16097SOL     OW49731   7.323   7.637  10.365  0.2844 -0.4625 -0.7677
16097SOL    HW149732   7.346   7.594  10.448 -0.9881 -0.3928 -0.3457
16097SOL    HW249733   7.376   7.716  10.363 -0.5383  0.1648  0.6080
16098SOL     OW49734   7.420   0.783  11.680  0.3604 -0.0100  0.0618
16098SOL    HW149735   7.487   0.850  11.691  1.0978 -0.7308  0.1222
16098SOL    HW249736   7.406   0.778  11.585  2.8059 -2.0673 -0.3189
16099SOL     OW49737   1.400   6.801   9.798  0.2094  0.1467 -0.4108
16099SOL    HW149738   1.365   6.747   9.727  0.9979  0.6869 -1.2338
16099SOL    HW249739   1.457   6.742   9.846  0.7545  0.1236 -1.0670
16100SOL     OW49740   0.942   5.356   4.146 -0.7417 -0.2359 -0.9133
16100SOL    HW149741   0.885   5.433   4.147 -0.4600 -0.0217 -0.6981
16100SOL    HW249742   0.932   5.318   4.233 -1.3042 -0.7671 -1.2076
16101SOL     OW49743   0.958   3.133   3.365  0.4833  0.1929  0.0170
16101SOL    HW149744   0.981   3.104   3.453  1.3828  0.1564 -0.2151
16101SOL    HW249745   1.041   3.133   3.317  0.0869  0.6718 -0.7006
16102SOL     OW49746   0.088   5.460   7.782  0.3346 -0.3213 -0.1755
16102SOL    HW149747   0.131   5.381   7.814  0.3089 -0.0978  0.4255
16102SOL    HW249748   0.008   5.429   7.741 -0.7101 -0.4549  1.8753
16103SOL     OW49749   2.463   7.366  10.429  0.5359 -0.0833 -0.3458
16103SOL    HW149750   2.491   7.399  10.515 -2.1193 -0.1128  0.6159
16103SOL    HW249751   2.432   7.444  10.383 -1.0259 -0.4643 -0.0037
16104SOL     OW49752   0.029   2.753   5.680 -0.2762  0.2833  0.3691
16104SOL    HW149753   0.060   2.828   5.630 -0.2108 -0.3963 -0.6404
16104SOL    HW249754  -0.054   2.730   5.639  0.7024 -1.4842 -0.7503
16105SOL     OW49755   2.556   0.248  12.378 -0.2533 -0.2916  0.0953
16105SOL    HW149756   2.543   0.179  12.312 -2.2045  1.5466 -1.6146
16105SOL    HW249757   2.480   0.306  12.367 -0.1459  0.6732  3.3405
16106SOL     OW49758   7.698   4.303  10.094 -0.3413 -0.0247  0.1114
16106SOL    HW149759   7.612   4.304  10.052  0.4251 -0.7801 -1.5807
16106SOL    HW249760   7.756   4.265  10.028  1.6547  2.1070  0.5161
16107SOL     OW49761   6.544   4.559   3.340  0.1353  0.2276 -0.2415
16107SOL    HW149762   6.491   4.519   3.271 -1.5610  1.3633  0.3296
16107SOL    HW249763   6.544   4.495   3.411  1.0987 -0.5483 -0.9118
16108SOL     OW49764   6.657   3.032   5.766  0.4434  0.3505 -0.0637
16108SOL    HW149765   6.728   3.095   5.775  0.8079 -0.0204 -0.3194
16108SOL    HW249766   6.648   3.019   5.671  1.1800 -0.8785  0.0068
16109SOL     OW49767   5.126   6.027   0.834 -0.3741  0.1238 -0.1892
16109SOL    HW149768   5.156   6.109   0.872  0.0697  1.2340 -2.7322
16109SOL    HW249769   5.190   5.962   0.864 -1.1246  0.5009  2.4281
16110SOL     OW49770   2.157   6.230  11.587  0.2692  0.2345  0.8968
16110SOL    HW149771   2.241   6.199  11.553 -0.9135 -2.3864  0.0814
16110SOL    HW249772   2.152   6.194  11.675 -0.4779 -0.7157  0.4901
16111SOL     OW49773   1.200   0.344   2.674  0.1359  0.2269  0.1965
16111SOL    HW149774   1.152   0.419   2.708  0.4748  0.8080 -0.6035
16111SOL    HW249775   1.238   0.303   2.752 -1.9838 -0.5052  0.9172
16112SOL     OW49776   3.438   6.586   1.240  0.5425 -0.4234 -0.8737
16112SOL    HW149777   3.350   6.579   1.277 -0.1629 -0.4201 -2.4873
16112SOL    HW249778   3.490   6.626   1.310 -0.9967  0.6938 -0.3180
16113SOL     OW49779   3.689   1.107  11.385 -0.0009  0.1111 -0.4007
16113SOL    HW149780   3.661   1.066  11.303 -0.7937 -0.3204  0.0618
16113SOL    HW249781   3.619   1.169  11.405  1.5667  2.3312 -1.4952
16114SOL     OW49782   0.712   7.051   6.526 -0.0718 -0.1493 -0.0793
16114SOL    HW149783   0.750   7.133   6.493  1.5797 -0.3160  1.2700
16114SOL    HW249784   0.756   7.036   6.610  1.0606 -3.3482 -1.0880
16115SOL     OW49785   5.252   5.366   1.513  0.5728 -0.7324 -0.1183
16115SOL    HW149786   5.346   5.387   1.520  0.1545  1.5755 -0.4828
16115SOL    HW249787   5.236   5.359   1.419  0.3529 -1.0776 -0.0589
16116SOL     OW49788   1.719   3.809  11.277 -0.6591 -0.4859 -0.2582
16116SOL    HW149789   1.706   3.717  11.301 -0.6229 -0.5404 -0.4414
16116SOL    HW249790   1.810   3.812  11.245 -0.4729 -0.2677  0.2900
16117SOL     OW49791   0.574   6.830   0.727  0.3891 -0.0086  0.2381
16117SOL    HW149792   0.588   6.891   0.799  1.1221  0.2680 -0.1236
16117SOL    HW249793   0.510   6.873   0.671  1.5939  0.9009 -0.5085
16118SOL     OW49794   0.019   3.239   9.680  0.4026 -0.0794 -0.3240
16118SOL    HW149795  -0.063   3.263   9.725  0.4393 -0.9765  0.2522
16118SOL    HW249796  -0.009   3.188   9.605  0.3976  0.3185 -0.5922
16119SOL     OW49797   7.700   4.336  11.679 -0.5356 -0.3433 -0.0422
16119SOL    HW149798   7.659   4.386  11.750  2.8423 -0.6329  2.3111
16119SOL    HW249799   7.680   4.245  11.699  1.4410 -0.5255  1.4059
16120SOL     OW49800   7.937   5.651  10.777  0.2407  0.5391  0.0948
16120SOL    HW149801   7.973   5.646  10.866  0.0629 -1.7331  0.1031
16120SOL    HW249802   7.990   5.589  10.727 -1.1837 -0.0307 -0.7820
16121SOL     OW49803   6.741   6.832   0.142 -0.3397 -0.0144  0.3562
16121SOL    HW149804   6.753   6.826   0.047 -1.0450  0.5818  0.2184
16121SOL    HW249805   6.712   6.745   0.168 -2.6334  0.4714 -0.3790
16122SOL     OW49806   1.755   5.357   6.841  0.1584 -0.1166  0.2121
16122SOL    HW149807   1.793   5.361   6.753 -1.3873  1.0484 -0.4488
16122SOL    HW249808   1.685   5.292   6.835  1.1378 -1.2881  1.0693
16123SOL     OW49809   3.972   1.734  11.560  0.1551 -0.2234 -0.2409
16123SOL    HW149810   3.991   1.816  11.607 -0.4742 -0.3345  0.2183
16123SOL    HW249811   3.963   1.668  11.629 -2.7512 -0.0177 -0.3131
16124SOL     OW49812   5.064   4.836   1.281 -0.4153 -0.5704 -0.0471
16124SOL    HW149813   5.135   4.860   1.340 -0.4828  2.2450 -0.9525
16124SOL    HW249814   4.990   4.816   1.338 -0.0217  0.4902  0.8610
16125SOL     OW49815   5.911   1.382  10.336  0.1035 -0.6358  0.2686
16125SOL    HW149816   5.877   1.440  10.268 -0.1512 -1.2063 -0.0986
16125SOL    HW249817   5.926   1.439  10.411  0.7867  0.0767 -0.3940
16126SOL     OW49818   6.743   1.388   1.879  0.1839 -0.2715 -0.3729
16126SOL    HW149819   6.766   1.460   1.820 -0.0741  0.5314  0.4760
16126SOL    HW249820   6.817   1.383   1.940  0.8031 -1.5869 -1.1738
16127SOL     OW49821   5.602   3.193   9.813  0.0314  0.4058  0.2352
16127SOL    HW149822   5.603   3.228   9.902  0.5517  0.0133  0.3917
16127SOL    HW249823   5.539   3.121   9.816  1.4212 -0.8539  0.8011
16128SOL     OW49824   4.764   2.558   1.503 -0.5382  0.3701 -0.0131
16128SOL    HW149825   4.785   2.483   1.558  1.4112  0.3493 -0.7178
16128SOL    HW249826   4.669   2.567   1.510 -0.5979 -1.0063  1.5464
16129SOL     OW49827   4.146   6.728  10.688  0.1735  0.0685 -0.2111
16129SOL    HW149828   4.144   6.771  10.602 -1.5980  0.3896 -0.0496
16129SOL    HW249829   4.132   6.798  10.751 -2.5103 -0.5981  0.0693
16130SOL     OW49830   0.405   4.235   2.475  0.2130  0.2768 -0.6915
16130SOL    HW149831   0.362   4.155   2.444  0.6005 -0.4376  0.5795
16130SOL    HW249832   0.451   4.269   2.398  0.2896 -0.8817 -1.1667
16131SOL     OW49833   1.021   7.289   0.946 -0.3874  0.0380 -0.2667
16131SOL    HW149834   1.075   7.367   0.957  1.3753 -0.9831 -1.3432
16131SOL    HW249835   0.958   7.314   0.879 -2.0003  1.5539  1.6630
16132SOL     OW49836   3.655   6.744   0.564  0.0809  0.2445 -0.3652
16132SOL    HW149837   3.560   6.751   0.564  0.1299  2.2661  1.7204
16132SOL    HW249838   3.680   6.755   0.472 -1.6721  0.1494 -0.8821
16133SOL     OW49839   0.312   1.550   1.969 -0.0447 -0.0045  0.0463
16133SOL    HW149840   0.384   1.609   1.992 -0.7775  1.4437 -1.1592
16133SOL    HW249841   0.277   1.521   2.053  2.2506 -1.1783  0.6601
16134SOL     OW49842   1.558   1.078  11.970 -0.0951 -0.8343 -0.0987
16134SOL    HW149843   1.502   1.150  11.997  0.6396 -0.5063  0.5917
16134SOL    HW249844   1.500   1.019  11.921 -0.7876  0.0188 -0.3293
16135SOL     OW49845   2.335   1.983   6.781  0.1966 -0.4146 -0.3433
16135SOL    HW149846   2.378   1.997   6.866 -0.9900 -0.6131  0.3088
16135SOL    HW249847   2.291   2.065   6.762 -1.6774 -1.1616  0.5140
16136SOL     OW49848   1.637   0.784   9.234  0.1417 -0.0192 -0.8174
16136SOL    HW149849   1.656   0.691   9.219  1.4864 -0.8988  4.2236
16136SOL    HW249850   1.543   0.788   9.249  0.2721 -0.9710  0.4402
16137SOL     OW49851   3.447   3.607   1.455  0.2897 -0.3443  0.3146
16137SOL    HW149852   3.463   3.610   1.360  3.0640  0.6064  0.7313
16137SOL    HW249853   3.430   3.515   1.473  0.5961 -0.6827 -1.0097
16138SOL     OW49854   6.817   2.673   6.390  0.0131 -0.2069 -0.0941
16138SOL    HW149855   6.746   2.653   6.451  0.8371 -2.0440  0.3019
16138SOL    HW249856   6.803   2.614   6.316  1.2385 -0.7638  0.0899
16139SOL     OW49857   5.957   3.542   7.285  0.4861 -0.5023  0.1810
16139SOL    HW149858   5.951   3.617   7.226 -0.5727 -0.7322 -0.0354
16139SOL    HW249859   6.022   3.567   7.350 -0.3579  0.9116  0.5313
16140SOL     OW49860   2.018   3.101  10.384 -0.3629  0.0693 -0.1837
16140SOL    HW149861   2.077   3.116  10.310 -0.0861  0.6085  0.1412
16140SOL    HW249862   1.945   3.161  10.370 -0.4236  0.0071 -0.1387
16141SOL     OW49863   5.627   0.380   9.229  0.2781 -0.5388 -0.5024
16141SOL    HW149864   5.689   0.309   9.216  0.5808 -0.6723  1.3801
16141SOL    HW249865   5.608   0.379   9.323 -0.1794  1.4631 -0.5166
16142SOL     OW49866   7.375   3.299   8.247 -0.0517 -0.0197 -0.2528
16142SOL    HW149867   7.395   3.374   8.191  0.2133  1.7441  2.0816
16142SOL    HW249868   7.451   3.292   8.306 -1.0191 -0.7938  0.9457
16143SOL     OW49869   2.632   6.155   4.641 -0.1685 -0.3629  0.1692
16143SOL    HW149870   2.601   6.067   4.623 -0.5646 -0.4187  1.0434
16143SOL    HW249871   2.711   6.143   4.694 -0.5005 -0.1978  0.7118
16144SOL     OW49872   5.848   5.589   3.242  0.4135 -0.0646  0.1753
16144SOL    HW149873   5.890   5.510   3.207  1.7058  0.8320 -0.3382
16144SOL    HW249874   5.824   5.565   3.332  0.8720 -1.0078  0.0564
16145SOL     OW49875   2.853   6.223  10.248 -0.3199  0.2464  0.1114
16145SOL    HW149876   2.869   6.284  10.177  0.4322  0.0866  0.1374
16145SOL    HW249877   2.939   6.187  10.269 -0.7578 -0.8850  0.0354
16146SOL     OW49878   4.607   4.423  11.815 -0.2845 -0.1675  0.6895
16146SOL    HW149879   4.681   4.367  11.791 -0.0865 -0.4592  1.8888
16146SOL    HW249880   4.610   4.495  11.753  1.4444  0.1919  1.1300
16147SOL     OW49881   1.662   4.191   9.381  0.0713  0.1203 -0.2018
16147SOL    HW149882   1.635   4.281   9.396 -1.7376 -0.5364  0.7526
16147SOL    HW249883   1.611   4.163   9.305 -0.7114 -0.6189  0.5743
16148SOL     OW49884   3.297   6.470   6.690 -0.2575  0.3687 -1.0634
16148SOL    HW149885   3.352   6.437   6.761 -1.1684  1.3397  0.1280
16148SOL    HW249886   3.231   6.402   6.677 -1.3434  1.0745  0.4877
16149SOL     OW49887   6.852   6.190  11.864 -0.0831 -0.0491  0.5433
16149SOL    HW149888   6.877   6.120  11.804  0.1160  0.8704 -0.4802
16149SOL    HW249889   6.935   6.219  11.904  0.1123  0.8394 -0.4477
16150SOL     OW49890   7.795   0.577   1.550 -0.6399  0.6283  0.1349
16150SOL    HW149891   7.851   0.655   1.554 -2.5117  1.9920  1.9826
16150SOL    HW249892   7.829   0.520   1.619  1.2114 -0.6291 -1.7169
16151SOL     OW49893   1.064   1.667   4.666  0.4577  0.4677 -0.0037
16151SOL    HW149894   1.041   1.668   4.759  0.0234  1.3463 -0.1101
16151SOL    HW249895   1.072   1.759   4.642  2.8214  0.2448 -0.3124
16152SOL     OW49896   6.919   3.279   1.976  0.2339 -0.2275 -0.3897
16152SOL    HW149897   6.833   3.310   1.947  0.6846  0.8904 -0.5601
16152SOL    HW249898   6.945   3.340   2.045 -0.4481 -2.3494  1.8848
16153SOL     OW49899   2.003   3.693  11.180  0.0604 -0.4466 -0.1112
16153SOL    HW149900   2.084   3.687  11.230 -0.7825  1.4269  1.6431
16153SOL    HW249901   2.028   3.735  11.098  0.7760  0.9901  0.7941
16154SOL     OW49902   2.492   3.245  10.854  0.5053 -0.3517 -0.3104
16154SOL    HW149903   2.506   3.233  10.948 -0.8306  0.6821  0.0515
16154SOL    HW249904   2.417   3.188  10.834  0.9828 -0.8166 -0.8400
16155SOL     OW49905   7.752   3.031   6.053 -0.9198  0.0566  0.2046
16155SOL    HW149906   7.781   2.940   6.061 -0.4536  0.0286 -1.3381
16155SOL    HW249907   7.789   3.059   5.969 -1.2355  1.6048  0.5695
16156SOL     OW49908   1.173   0.412   5.882  0.1013 -0.3822  0.1993
16156SOL    HW149909   1.200   0.355   5.810 -0.6634 -1.4583  0.7291
16156SOL    HW249910   1.083   0.384   5.902 -0.2713  0.9784  0.5262
16157SOL     OW49911   2.986   0.890   8.429  0.6896 -0.0201 -0.0736
16157SOL    HW149912   2.960   0.915   8.340  2.1562 -0.2594 -0.6007
16157SOL    HW249913   2.940   0.808   8.445 -1.7690  1.3678  0.4973
16158SOL     OW49914   0.856   1.798   8.645  0.0626  0.4112 -0.2526
16158SOL    HW149915   0.929   1.815   8.585 -0.0406  0.2283 -0.4306
16158SOL    HW249916   0.890   1.733   8.706 -0.2601 -0.3846 -0.9164
16159SOL     OW49917   0.526   0.005   4.473  0.2044 -0.1929  0.2510
16159SOL    HW149918   0.570   0.011   4.558  0.0412 -2.2689  0.5100
16159SOL    HW249919   0.591  -0.037   4.416 -0.5057 -0.9016 -0.0448
16160SOL     OW49920   1.157   7.033   3.487  0.1631  0.2661  0.2656
16160SOL    HW149921   1.199   7.119   3.486 -0.2345  0.4542 -0.6355
16160SOL    HW249922   1.143   7.014   3.580  2.1026  0.2653  0.5983
16161SOL     OW49923   7.028   7.903  11.082 -0.7751 -0.1556 -0.2984
16161SOL    HW149924   7.020   7.981  11.028  0.9714  0.5657  0.3986
16161SOL    HW249925   7.028   7.936  11.172  1.1864 -0.7896 -0.0140
16162SOL     OW49926   2.675   3.160   9.292 -0.3369 -0.2675  0.6105
16162SOL    HW149927   2.609   3.210   9.244  0.8501  0.9557  0.1780
16162SOL    HW249928   2.655   3.176   9.385  0.6462  1.9893  0.5013
16163SOL     OW49929   6.361   2.302   7.722 -0.1018 -0.1488 -0.5623
16163SOL    HW149930   6.335   2.394   7.716 -0.6178 -0.1098  1.4753
16163SOL    HW249931   6.430   2.293   7.656 -0.5193  1.5026 -1.3013
16164SOL     OW49932   4.721   5.314   2.090  0.0464  0.1223  0.0237
16164SOL    HW149933   4.643   5.286   2.043  1.1764  0.1546 -1.9651
16164SOL    HW249934   4.712   5.408   2.101  0.6828  0.4496 -1.9957
16165SOL     OW49935   6.047   0.974  11.600 -0.9209 -0.1155 -0.3525
16165SOL    HW149936   5.972   1.028  11.572 -0.6091 -0.8051 -2.7088
16165SOL    HW249937   6.047   0.900  11.540  1.5868 -0.2120 -0.3393
16166SOL     OW49938   5.093   3.281   0.464  0.2158  0.0523  0.0311
16166SOL    HW149939   5.183   3.313   0.459 -0.5956  2.4639 -0.4631
16166SOL    HW249940   5.079   3.234   0.382  0.2177  2.0997 -1.2004
16167SOL     OW49941   5.171   2.816   6.087 -0.1431 -0.0350  0.1946
16167SOL    HW149942   5.227   2.806   6.163 -0.8623 -0.2679  0.7091
16167SOL    HW249943   5.175   2.910   6.066 -0.1827  0.0836  0.7075
16168SOL     OW49944   5.983   3.780   7.167  0.2795 -0.4432  0.3048
16168SOL    HW149945   6.042   3.798   7.094 -0.9831 -0.6052 -0.8052
16168SOL    HW249946   5.901   3.823   7.142 -0.8735 -2.3905  0.5510
16169SOL     OW49947   6.894   0.223   1.850  0.6598  0.2885 -0.2882
16169SOL    HW149948   6.961   0.209   1.784  0.0035 -0.1473 -0.8781
16169SOL    HW249949   6.832   0.283   1.809  1.0189  1.2196  0.4940
16170SOL     OW49950   2.456   5.476   8.849 -0.1582  0.4121 -0.2419
16170SOL    HW149951   2.365   5.470   8.877 -0.1845 -0.7303 -0.5183
16170SOL    HW249952   2.507   5.462   8.929 -0.2246 -0.1323 -0.2965
16171SOL     OW49953   7.429   3.270  10.196 -0.0899 -0.1734  0.2215
16171SOL    HW149954   7.501   3.305  10.249 -1.4461 -0.0425  2.0724
16171SOL    HW249955   7.395   3.345  10.147 -1.4366  0.6857  2.3483
16172SOL     OW49956   3.451   7.414   7.221 -0.0073 -0.3351  0.0116
16172SOL    HW149957   3.442   7.322   7.195 -1.0220 -0.5567  1.1138
16172SOL    HW249958   3.372   7.457   7.187  0.0531 -0.0398  0.2414
16173SOL     OW49959   7.643   6.425   9.287  0.1999 -0.1646  0.0551
16173SOL    HW149960   7.588   6.347   9.280 -0.0970  0.1535 -1.4939
16173SOL    HW249961   7.731   6.395   9.265  0.0684 -0.0523 -0.6375
16174SOL     OW49962   3.201   4.692   4.675  0.2207  0.7425 -0.0714
16174SOL    HW149963   3.161   4.745   4.605  0.4636  1.4806  0.3376
16174SOL    HW249964   3.149   4.611   4.676 -0.7612  1.3525 -0.0865
16175SOL     OW49965   4.902   1.593   2.817  0.8082  0.0044  0.2013
16175SOL    HW149966   4.867   1.543   2.890 -0.8402 -2.2687 -1.9949
16175SOL    HW249967   4.996   1.594   2.832  0.7412 -2.3553  1.2348
16176SOL     OW49968   7.757   6.027  12.190 -0.1283  0.1630 -0.7790
16176SOL    HW149969   7.740   6.102  12.247  2.9356  0.3372  0.0603
16176SOL    HW249970   7.774   6.067  12.104 -0.2874  0.2863 -0.7533
16177SOL     OW49971   2.098   0.572   0.488  0.1447 -0.7345 -0.3993
16177SOL    HW149972   2.135   0.548   0.403 -1.0813  1.5271 -1.6553
16177SOL    HW249973   2.169   0.620   0.532  1.3315 -3.2029  0.6324
16178SOL     OW49974   2.188   3.930   5.057  0.2975  0.0620 -0.2778
16178SOL    HW149975   2.144   3.889   4.982  0.3111  0.2173 -0.3721
16178SOL    HW249976   2.178   4.024   5.042  0.5848  0.0977 -0.2538
16179SOL     OW49977   6.513   0.807   7.156  0.4770  1.0945  0.4776
16179SOL    HW149978   6.539   0.781   7.068 -0.8769  0.3104  0.2808
16179SOL    HW249979   6.580   0.870   7.183  0.7910  1.5208 -1.1800
16180SOL     OW49980   6.414   4.562   9.723  0.1153  0.0589  0.2607
16180SOL    HW149981   6.510   4.560   9.720  0.1272  1.0562 -0.4453
16180SOL    HW249982   6.392   4.653   9.706 -0.9304  0.1501  1.8887
16181SOL     OW49983   5.732   7.647   7.227 -0.2606  0.0597 -0.0123
16181SOL    HW149984   5.744   7.691   7.143  1.5801  1.4214  0.8919
16181SOL    HW249985   5.677   7.706   7.278  0.9928  0.6439  0.6980
16182SOL     OW49986   0.765   6.636  11.684  0.1351 -0.2202 -0.2607
16182SOL    HW149987   0.782   6.675  11.770 -1.3730  0.2636 -0.1458
16182SOL    HW249988   0.673   6.611  11.687  0.2487 -0.8627 -1.4918
16183SOL     OW49989   6.300   2.052  10.046  0.4569  0.0300 -0.0309
16183SOL    HW149990   6.359   2.069   9.972 -0.6345  1.2740 -0.6494
16183SOL    HW249991   6.357   2.015  10.114  2.4416  3.2137  0.2207
16184SOL     OW49992   1.883   2.079  12.448 -0.1854  0.6664  0.0645
16184SOL    HW149993   1.911   1.991  12.474 -0.7865  0.7359  0.9832
16184SOL    HW249994   1.875   2.127  12.530  2.0956  2.2244 -0.5107
16185SOL     OW49995   4.999   5.857  10.729  0.2487 -0.3431 -0.0785
16185SOL    HW149996   4.965   5.947  10.724  1.7587  0.2556 -0.0452
16185SOL    HW249997   5.004   5.838  10.822  0.4073 -0.2644 -0.0699
16186SOL     OW49998   7.684   7.100   4.325  0.6808 -0.7617  0.3718
16186SOL    HW149999   7.627   7.044   4.271  1.1826  0.7164 -1.8538
16186SOL    HW250000   7.623   7.153   4.376  0.1349 -1.2668  0.2650
16187SOL     OW50001   1.652   0.249  11.376 -0.2382 -0.6513  0.3668
16187SOL    HW150002   1.575   0.303  11.360  0.4452  0.0302 -0.7498
16187SOL    HW250003   1.683   0.224  11.289  0.3421 -1.6022  0.8223
16188SOL     OW50004   4.706   5.506   1.368 -0.2510 -0.2673 -0.2009
16188SOL    HW150005   4.640   5.457   1.319  1.7507 -1.2019 -2.0871
16188SOL    HW250006   4.782   5.448   1.372  0.8381  1.1571  1.0103
16189SOL     OW50007   7.808   5.525   0.112 -0.2524  0.4690  0.3879
16189SOL    HW150008   7.776   5.462   0.048 -0.5551  0.7915  0.2189
16189SOL    HW250009   7.768   5.608   0.087  1.5254  1.1235 -0.4809
16190SOL     OW50010   3.625   7.503   0.712  0.2443 -0.8126  0.1502
16190SOL    HW150011   3.558   7.435   0.717  0.4283 -1.1971 -1.8975
16190SOL    HW250012   3.578   7.583   0.688  0.4017 -0.9088 -0.4998
16191SOL     OW50013   1.995   2.612  10.179 -0.3824  0.1159 -0.3288
16191SOL    HW150014   1.905   2.635  10.157 -0.3062  0.3722 -0.3794
16191SOL    HW250015   1.990   2.521  10.208 -0.5389 -0.1090 -1.0389
16192SOL     OW50016   1.676   3.725   2.640 -0.4172 -0.3183  0.3364
16192SOL    HW150017   1.638   3.658   2.583  0.3316 -0.4096 -0.0693
16192SOL    HW250018   1.734   3.676   2.698  1.0963  0.0889 -0.7712
16193SOL     OW50019   5.946   7.088  11.170  0.1932  0.4192 -0.1023
16193SOL    HW150020   5.897   7.079  11.088  1.4059 -0.9177 -0.7310
16193SOL    HW250021   5.987   7.175  11.164  1.8115 -0.3839 -1.8616
16194SOL     OW50022   0.805   7.681  10.684  0.4408 -0.1654 -0.1550
16194SOL    HW150023   0.839   7.768  10.702 -0.8974  0.2268  0.6071
16194SOL    HW250024   0.875   7.622  10.712  0.3323  0.5889  1.8719
16195SOL     OW50025   0.181   7.917   5.713 -0.4002 -0.4494  0.3007
16195SOL    HW150026   0.167   7.920   5.618  0.2546  1.2916  0.2208
16195SOL    HW250027   0.140   7.997   5.745  0.0717 -0.6304  1.3819
16196SOL     OW50028   0.402   3.103  10.140  0.3682  0.2490 -0.1363
16196SOL    HW150029   0.362   3.040  10.080 -3.3101  0.6975  1.5660
16196SOL    HW250030   0.412   3.182  10.088 -2.5012  0.5545 -0.3742
16197SOL     OW50031   3.125   3.774   3.689 -0.2653 -0.1006  0.0293
16197SOL    HW150032   3.111   3.786   3.783  1.1143 -0.0996  0.2467
16197SOL    HW250033   3.199   3.832   3.668 -0.1697 -0.5523 -0.9398
16198SOL     OW50034   0.226   4.949   2.189 -0.0429 -0.0092 -0.0676
16198SOL    HW150035   0.196   5.039   2.178 -0.1899 -0.2239 -1.6281
16198SOL    HW250036   0.310   4.946   2.143 -0.7564 -1.0289 -1.3697
16199SOL     OW50037   4.876   3.799   3.940 -0.7685 -0.6381  0.2434
16199SOL    HW150038   4.857   3.808   4.034 -1.2883  2.0511 -0.0419
16199SOL    HW250039   4.967   3.826   3.931 -1.1985  0.7414 -0.1953
16200SOL     OW50040   1.827   4.350   2.117 -0.0405 -0.1820 -0.5125
16200SOL    HW150041   1.850   4.257   2.124  1.2233  0.1801  0.4028
16200SOL    HW250042   1.850   4.388   2.202 -1.3008  0.8260 -0.5905
16201SOL     OW50043   2.934   7.855   9.079  0.2658 -0.1869  0.3132
16201SOL    HW150044   2.880   7.934   9.073  2.9409  1.6731 -1.8626
16201SOL    HW250045   2.969   7.843   8.991  0.8502 -3.2333  0.8470
16202SOL     OW50046   6.455   0.702   8.744  0.1751 -0.3988  0.2106
16202SOL    HW150047   6.528   0.671   8.690 -1.1184 -0.9122 -1.3236
16202SOL    HW250048   6.381   0.646   8.720 -1.5969  2.1570 -0.7804
16203SOL     OW50049   7.091   4.416   2.643  0.3143 -0.2497  0.0362
16203SOL    HW150050   7.019   4.462   2.600  0.1577 -0.2973  0.2481
16203SOL    HW250051   7.053   4.378   2.722  0.1059 -1.8705 -0.7870
16204SOL     OW50052   7.251   5.439   7.499 -0.3521  0.1041  0.0261
16204SOL    HW150053   7.294   5.377   7.557 -1.5077  0.0831  0.8861
16204SOL    HW250054   7.297   5.429   7.415  0.8870 -0.3486  0.7319
16205SOL     OW50055   2.797   3.556  11.989  0.2038 -0.1922  0.0528
16205SOL    HW150056   2.767   3.469  12.014 -0.7509  0.1441  0.1282
16205SOL    HW250057   2.790   3.558  11.894  0.3691 -0.2426  0.0383
16206SOL     OW50058   1.260   7.244  10.145  0.4965 -0.2652  0.0602
16206SOL    HW150059   1.186   7.196  10.110  1.0439 -0.3427 -1.0355
16206SOL    HW250060   1.249   7.334  10.113  0.6956 -0.1971  0.1756
16207SOL     OW50061   7.636   0.349   0.694 -0.8424  0.0713  0.0748
16207SOL    HW150062   7.643   0.302   0.777  1.4038  2.0295  1.0922
16207SOL    HW250063   7.616   0.439   0.718 -1.5268  0.4225 -1.6223
16208SOL     OW50064   1.136   4.441   5.702 -0.0268 -0.3069  0.1341
16208SOL    HW150065   1.200   4.505   5.672 -1.3136 -0.3756 -3.0786
16208SOL    HW250066   1.054   4.490   5.706 -0.4427 -1.0366  0.7868
16209SOL     OW50067   2.776   5.529   0.495  0.4008  0.4926 -0.4846
16209SOL    HW150068   2.820   5.525   0.410  0.0989  1.6919 -0.7150
16209SOL    HW250069   2.741   5.440   0.508  1.9725 -0.2068 -0.7582
16210SOL     OW50070   3.462   3.774   5.249 -0.2881  0.2104 -0.0073
16210SOL    HW150071   3.462   3.716   5.173 -0.7158  1.1254 -0.7215
16210SOL    HW250072   3.432   3.719   5.322  0.5967 -0.8039 -0.3845
16211SOL     OW50073   2.838   0.396   6.076 -0.2213  0.4906 -0.0747
16211SOL    HW150074   2.749   0.366   6.091 -0.1404  0.5862  0.6277
16211SOL    HW250075   2.832   0.492   6.075  0.3881  0.6997  3.7578
16212SOL     OW50076   7.055   7.575   6.249  0.3559 -0.5157 -0.4188
16212SOL    HW150077   6.960   7.583   6.245  0.3639  0.9397  1.1034
16212SOL    HW250078   7.088   7.655   6.208  0.8114  0.5062  1.7976
16213SOL     OW50079   5.294   6.475   6.318  0.1902  0.0350  0.6229
16213SOL    HW150080   5.280   6.473   6.223  0.2879  0.9035  0.5735
16213SOL    HW250081   5.277   6.566   6.342 -0.7040 -0.3708  1.5822
16214SOL     OW50082   5.971   1.922   5.535 -0.0537 -0.0263  0.0204
16214SOL    HW150083   5.940   1.890   5.620  1.0842  0.5491  0.6638
16214SOL    HW250084   6.004   1.844   5.491  0.3553 -0.1531  0.5479
16215SOL     OW50085   6.176   1.246   6.799 -0.1116  0.4519  0.6108
16215SOL    HW150086   6.100   1.281   6.753 -0.8429 -1.7252  0.0411
16215SOL    HW250087   6.148   1.160   6.831  1.7208  0.1144  1.4862
16216SOL     OW50088   3.723   6.264   9.984 -0.7760 -0.0184  0.3327
16216SOL    HW150089   3.765   6.251  10.069 -1.5807 -0.7895  0.6202
16216SOL    HW250090   3.755   6.192   9.930  2.3751  2.2335 -1.1369
16217SOL     OW50091   1.182   5.036   3.136 -0.1569  0.6324  0.7169
16217SOL    HW150092   1.104   4.987   3.111 -1.6451  2.5073  1.3909
16217SOL    HW250093   1.226   5.056   3.053  0.9113 -2.3025  0.4494
16218SOL     OW50094   6.279   4.715   5.253 -0.0732 -0.3056 -0.2739
16218SOL    HW150095   6.269   4.741   5.161 -0.8485  0.8102  0.1085
16218SOL    HW250096   6.197   4.742   5.295  0.8802  0.6547  1.0606
16219SOL     OW50097   3.329   3.980   7.453  0.0863  0.2764 -0.0294
16219SOL    HW150098   3.329   3.906   7.513 -1.7567  0.5001  0.3080
16219SOL    HW250099   3.403   4.034   7.481  2.0032 -1.7868 -0.8053
16220SOL     OW50100   0.598   2.655   5.096 -0.5217  0.3285  0.2175
16220SOL    HW150101   0.563   2.569   5.120 -0.8988  0.5937  0.6402
16220SOL    HW250102   0.669   2.670   5.157 -1.2991  0.8803  1.0104
16221SOL     OW50103   1.733   1.304   5.271  0.1657  0.6727 -0.3238
16221SOL    HW150104   1.777   1.378   5.229 -1.2233  0.6886 -1.9005
16221SOL    HW250105   1.699   1.339   5.353  2.8527  0.6877  0.8923
16222SOL     OW50106   2.030   4.361   3.986 -0.1832 -0.0483  0.0389
16222SOL    HW150107   2.121   4.341   4.009 -0.0920 -0.7787 -0.8952
16222SOL    HW250108   2.005   4.431   4.047  1.3424  0.9029 -0.3667
16223SOL     OW50109   4.374   2.895   3.223  0.7564  0.3421  0.8595
16223SOL    HW150110   4.356   2.877   3.131  0.9032 -0.0251  0.9027
16223SOL    HW250111   4.466   2.922   3.224  0.8821 -0.0892  0.9592
16224SOL     OW50112   4.725   4.297   3.697  0.0100 -0.0250 -0.2110
16224SOL    HW150113   4.676   4.377   3.678  0.5352  0.1161 -1.0365
16224SOL    HW250114   4.739   4.298   3.791  2.8014  2.5203 -0.5349
16225SOL     OW50115   4.379   1.140  10.813  0.0867  0.2288  0.2447
16225SOL    HW150116   4.372   1.235  10.821  3.0055  0.7645 -1.7918
16225SOL    HW250117   4.472   1.125  10.794 -0.4760 -2.9568 -0.5197
16226SOL     OW50118   0.559   3.059   0.016 -1.0009  0.0769 -0.1354
16226SOL    HW150119   0.480   3.062  -0.038 -0.4614 -0.4461 -0.9707
16226SOL    HW250120   0.583   2.966   0.019  0.6258  0.3914 -1.4798
16227SOL     OW50121   6.267   3.592   1.771 -0.2394  0.1914  0.5416
16227SOL    HW150122   6.235   3.649   1.701  0.4240  0.4711  0.4550
16227SOL    HW250123   6.362   3.589   1.757 -0.3293 -1.5987  0.0419
16228SOL     OW50124   6.646   5.444   9.168 -0.5325  0.1722 -0.3531
16228SOL    HW150125   6.601   5.529   9.168 -1.4833 -0.3024 -1.1399
16228SOL    HW250126   6.590   5.388   9.221  1.5833  0.7003  2.7275
16229SOL     OW50127   4.755   1.812  10.322 -0.1615 -0.1975  0.4205
16229SOL    HW150128   4.750   1.773  10.235  0.8489 -2.1268  1.1579
16229SOL    HW250129   4.685   1.877  10.324  0.5306  0.7564 -2.2118
16230SOL     OW50130   2.111   4.378  10.094 -0.1300  0.1688  0.1430
16230SOL    HW150131   2.126   4.289  10.127 -0.8581 -0.2930 -0.7164
16230SOL    HW250132   2.183   4.394  10.034 -0.4658 -0.1909 -0.3644
16231SOL     OW50133   5.203   5.238   8.768 -0.5091  0.2544 -0.3370
16231SOL    HW150134   5.144   5.165   8.752 -1.3260  0.5098  1.2978
16231SOL    HW250135   5.290   5.205   8.746 -0.5275 -2.0024  2.4919
16232SOL     OW50136   6.409   0.368   5.091  1.0050 -0.1230  0.3940
16232SOL    HW150137   6.411   0.446   5.036  0.4347 -1.1911 -1.2279
16232SOL    HW250138   6.459   0.303   5.041 -0.0358 -1.3041  0.8493
16233SOL     OW50139   4.386   2.993   2.228  0.3140 -0.1366  0.3075
16233SOL    HW150140   4.313   2.933   2.215 -0.9052  1.1851  0.7888
16233SOL    HW250141   4.398   3.035   2.143  0.8214 -0.6670  0.1108
16234SOL     OW50142   2.166   2.630   6.270 -0.1163  0.0981  0.1994
16234SOL    HW150143   2.105   2.663   6.205  0.9937  2.6814  0.3537
16234SOL    HW250144   2.209   2.556   6.227 -2.7376 -1.3285 -0.1584
16235SOL     OW50145   3.028   2.851   4.709  0.1128  0.0540  0.4164
16235SOL    HW150146   3.041   2.823   4.618 -2.0476 -0.1363  0.1186
16235SOL    HW250147   3.053   2.775   4.761 -0.9635 -0.7264 -0.1588
16236SOL     OW50148   3.538   1.393   0.467 -0.0339 -0.1516  0.4249
16236SOL    HW150149   3.607   1.332   0.493 -0.5019 -0.8649  0.0170
16236SOL    HW250150   3.502   1.424   0.550 -0.4688 -1.2189  0.6614
16237SOL     OW50151   7.418   4.848   8.973  0.1119 -0.1882 -0.0802
16237SOL    HW150152   7.426   4.901   8.893 -0.2281  0.0755  0.0577
16237SOL    HW250153   7.331   4.868   9.007  0.5105  0.2431  0.7334
16238SOL     OW50154   0.097   1.661  12.078 -0.2323  0.5742 -0.0235
16238SOL    HW150155   0.052   1.605  12.016 -0.2240 -1.2198  1.5051
16238SOL    HW250156   0.190   1.639  12.068 -0.2550  0.0769  0.7712
16239SOL     OW50157   4.468   0.021   3.584  0.1286  0.7541  0.3674
16239SOL    HW150158   4.513  -0.015   3.508  0.9052  1.4369  0.4877
16239SOL    HW250159   4.482   0.116   3.579  0.6025  0.7746  1.5993
16240SOL     OW50160   3.564   3.802   9.218 -0.4730 -0.1410  0.2449
16240SOL    HW150161   3.594   3.800   9.127 -0.8587  1.5042  0.0507
16240SOL    HW250162   3.507   3.726   9.226  1.0093 -1.3745 -0.3388
16241SOL     OW50163   4.923   7.545   1.508  0.0783  0.3872 -0.6387
16241SOL    HW150164   4.888   7.461   1.537 -0.7409  1.2778  1.0911
16241SOL    HW250165   4.855   7.581   1.451 -0.1011  0.4058 -0.4129
16242SOL     OW50166   0.700   2.283  10.248  0.3529 -0.2002  0.0119
16242SOL    HW150167   0.773   2.238  10.290  1.0966  1.6337  0.7953
16242SOL    HW250168   0.626   2.271  10.308  0.5633 -0.2831  0.2554
16243SOL     OW50169   7.677   6.840   1.992  0.7172 -0.9780  0.8149
16243SOL    HW150170   7.772   6.840   2.005  0.6496  1.6922  2.1046
16243SOL    HW250171   7.664   6.888   1.910  0.4947  0.9444  1.8975
16244SOL     OW50172   1.346   5.386   8.474  0.2060  0.1676  0.0853
16244SOL    HW150173   1.397   5.395   8.393  0.6882  0.5001  0.4143
16244SOL    HW250174   1.392   5.318   8.523 -0.6178 -0.6900 -0.3052
16245SOL     OW50175   5.393   7.916  11.031 -0.1031 -0.2082  0.3974
16245SOL    HW150176   5.344   7.926  11.112 -1.6461 -1.5662 -0.3049
16245SOL    HW250177   5.356   7.981  10.972  1.5044  1.2713  0.9353
16246SOL     OW50178   7.404   1.130   2.844  0.0920 -0.1137  0.1968
16246SOL    HW150179   7.315   1.160   2.863  0.1482  1.0601 -1.2149
16246SOL    HW250180   7.405   1.039   2.874 -1.1340  0.2667  1.5232
16247SOL     OW50181   5.993   4.376   2.705 -0.0726 -0.3813  0.2136
16247SOL    HW150182   5.940   4.363   2.784 -0.0345 -2.8167 -0.0868
16247SOL    HW250183   5.969   4.464   2.674 -2.0654 -0.4290  1.4500
16248SOL     OW50184   2.679   4.717   2.529 -0.1975  0.4549 -0.1475
16248SOL    HW150185   2.585   4.698   2.529  0.1001 -1.1280 -0.0414
16248SOL    HW250186   2.686   4.801   2.484 -1.4075 -0.9122 -3.2063
16249SOL     OW50187   6.295   6.028   8.592  0.2859  0.2766  0.4034
16249SOL    HW150188   6.306   5.965   8.520  0.2029  0.2127  0.4466
16249SOL    HW250189   6.201   6.045   8.594 -0.0017 -1.2225  1.7693
16250SOL     OW50190   4.911   7.777  10.682  0.4185 -0.2026 -0.2518
16250SOL    HW150191   4.993   7.730  10.700  0.0985  0.0911  2.2977
16250SOL    HW250192   4.939   7.862  10.649  1.1014 -0.5083 -0.4826
16251SOL     OW50193   3.361   7.442   2.476 -0.1645  0.1443  0.6118
16251SOL    HW150194   3.338   7.437   2.569 -2.4317  2.4003  0.2832
16251SOL    HW250195   3.326   7.362   2.438  0.4374 -0.6123  1.5965
16252SOL     OW50196   7.034   6.667   4.389 -0.8250 -0.7978  0.1601
16252SOL    HW150197   7.010   6.735   4.326 -2.2104 -1.3620  0.0411
16252SOL    HW250198   7.015   6.706   4.475  0.2647 -0.3344  0.2041
16253SOL     OW50199   1.850   4.798   7.198 -0.2100 -0.2966 -0.1417
16253SOL    HW150200   1.787   4.756   7.138 -0.6269 -0.6790  0.5474
16253SOL    HW250201   1.904   4.725   7.230  1.2056  0.1441 -1.4200
16254SOL     OW50202   7.581   0.556   2.813 -0.1055 -0.7711  0.4801
16254SOL    HW150203   7.523   0.629   2.792  0.3713 -0.0016  1.7762
16254SOL    HW250204   7.567   0.494   2.741 -0.1266  0.7980 -0.9426
16255SOL     OW50205   0.496   5.377   4.955  0.3817  0.3677 -0.1184
16255SOL    HW150206   0.569   5.332   4.914  0.4004  0.1345  0.1726
16255SOL    HW250207   0.535   5.427   5.027  0.3216  0.6281 -0.2623
16256SOL     OW50208   7.730   1.726   9.455 -0.1922 -0.8037 -0.2249
16256SOL    HW150209   7.705   1.703   9.366  0.6653 -2.6471 -0.0204
16256SOL    HW250210   7.654   1.703   9.508 -0.4577 -0.3061 -0.3773
16257SOL     OW50211   1.259   1.113   4.326  0.1119 -0.0967 -0.2202
16257SOL    HW150212   1.173   1.072   4.337  0.5594 -0.9191  0.3236
16257SOL    HW250213   1.243   1.185   4.265 -1.0996  0.2153  0.4253
16258SOL     OW50214   2.804   0.872   4.254 -0.1370 -0.5109 -0.3566
16258SOL    HW150215   2.753   0.943   4.214  0.6731 -0.5420 -1.4857
16258SOL    HW250216   2.762   0.857   4.339  0.0667  1.7798  0.2129
16259SOL     OW50217   6.043   6.941   1.430  0.0584 -0.2541  0.0088
16259SOL    HW150218   6.107   6.995   1.382 -1.1313  1.6648  0.4769
16259SOL    HW250219   5.993   6.896   1.361 -0.2370  0.8096 -0.4921
16260SOL     OW50220   2.308   0.574   4.745 -0.0924 -0.5320  0.2325
16260SOL    HW150221   2.252   0.616   4.680 -0.3652 -1.4162 -0.1088
16260SOL    HW250222   2.247   0.538   4.809  0.1803  0.5253  1.1147
16261SOL     OW50223   3.451   7.556  10.248 -0.4625  0.1718  0.0371
16261SOL    HW150224   3.513   7.597  10.189 -1.0537 -0.2512 -0.9029
16261SOL    HW250225   3.505   7.504  10.308  0.1944  1.2609  0.4109
16262SOL     OW50226   3.393   1.113   8.325  0.0923  0.1706 -0.0661
16262SOL    HW150227   3.345   1.062   8.390  0.0775 -0.6645 -0.7067
16262SOL    HW250228   3.369   1.204   8.341 -0.2718 -0.0753  0.7860
16263SOL     OW50229   3.631   4.212   5.724  0.1733 -0.9542 -0.1355
16263SOL    HW150230   3.613   4.298   5.761 -3.6895 -1.1852 -0.9889
16263SOL    HW250231   3.726   4.211   5.709  0.3781  3.1938 -0.2731
16264SOL     OW50232   4.988   4.786   9.528 -0.5830  0.3577  0.3026
16264SOL    HW150233   4.914   4.732   9.502 -1.3500  1.7696 -0.6142
16264SOL    HW250234   5.063   4.726   9.529 -1.3183 -0.6428 -1.0581
16265SOL     OW50235   5.757   5.112   9.264  0.1267  0.4815 -0.2847
16265SOL    HW150236   5.785   5.203   9.270  1.4575 -0.0162  1.9812
16265SOL    HW250237   5.726   5.090   9.352 -0.2490 -1.2327 -0.8008
16266SOL     OW50238   1.040   6.081   6.448 -0.1880 -0.5604 -0.6572
16266SOL    HW150239   0.967   6.042   6.400 -0.3619 -1.4586  0.3011
16266SOL    HW250240   1.065   6.015   6.512 -1.1136  1.2080  1.6854
16267SOL     OW50241   3.846   1.710   2.850 -0.4495  0.1759  0.1855
16267SOL    HW150242   3.938   1.692   2.828  0.0291  1.7094  0.7709
16267SOL    HW250243   3.802   1.719   2.766 -0.1459 -0.8454 -0.1038
16268SOL     OW50244   0.078   1.813   1.873  0.1824 -0.5843 -0.1299
16268SOL    HW150245   0.040   1.893   1.909 -1.6528 -1.4916  0.0446
16268SOL    HW250246   0.107   1.764   1.950  0.8347 -0.3440 -0.2110
16269SOL     OW50247   6.877   0.552   5.257  0.0083 -0.5324 -0.2867
16269SOL    HW150248   6.866   0.470   5.209 -0.3097 -1.6842  1.6257
16269SOL    HW250249   6.791   0.569   5.295  0.0211  0.8176 -0.8187
16270SOL     OW50250   0.004   4.779   2.171 -0.3479  0.3116  0.4681
16270SOL    HW150251  -0.010   4.730   2.252 -0.1958  0.5996  0.6718
16270SOL    HW250252   0.083   4.830   2.187  0.8825 -1.1791 -0.6257
16271SOL     OW50253   7.791   0.899   8.346  0.3156 -0.2213  0.1722
16271SOL    HW150254   7.748   0.978   8.379 -1.0440 -0.3795 -1.0918
16271SOL    HW250255   7.854   0.931   8.281 -0.8716 -0.1775 -1.0029
16272SOL     OW50256   6.527   4.613   7.580 -0.0187 -0.4823  0.0436
16272SOL    HW150257   6.466   4.575   7.643  1.4439 -1.3162  1.0066
16272SOL    HW250258   6.488   4.593   7.495 -0.9019 -1.3346  0.6155
16273SOL     OW50259   2.154   3.839   2.149 -0.8429  0.5452  0.1177
16273SOL    HW150260   2.225   3.810   2.091 -1.1987 -0.9994  0.4062
16273SOL    HW250261   2.096   3.890   2.092 -1.4488 -1.3511 -1.0613
16274SOL     OW50262   4.831   1.231  10.642  0.6739  0.5991  0.5758
16274SOL    HW150263   4.813   1.318  10.609 -1.1751 -0.1759 -0.5749
16274SOL    HW250264   4.757   1.178  10.614  1.4662 -1.2310  1.7311
16275SOL     OW50265   6.001   4.103   2.309 -0.2811  0.0208 -0.3393
16275SOL    HW150266   6.024   4.196   2.317  0.2070  0.0113 -1.4592
16275SOL    HW250267   6.079   4.062   2.272 -1.1832 -0.4689 -1.7849
16276SOL     OW50268   3.341   2.713   0.968  0.6825 -0.0606 -0.2971
16276SOL    HW150269   3.345   2.782   0.901  0.6251 -0.6585 -0.9315
16276SOL    HW250270   3.315   2.634   0.919  0.2970 -0.4310  0.4959
16277SOL     OW50271   6.439   7.861   5.291 -0.1070  0.8155  0.4261
16277SOL    HW150272   6.466   7.809   5.215  1.0568 -0.8627  1.9146
16277SOL    HW250273   6.513   7.919   5.309  0.5009 -0.2207  1.4438
16278SOL     OW50274   7.312   3.265   3.939  0.1541 -0.0813  0.2527
16278SOL    HW150275   7.342   3.247   4.029  1.2705  0.5607  0.0329
16278SOL    HW250276   7.269   3.184   3.912  0.0806 -0.4003  1.2587
16279SOL     OW50277   0.077   3.310  11.076 -0.2014  0.4479 -0.0987
16279SOL    HW150278   0.161   3.270  11.053 -0.4884  1.0377 -2.4050
16279SOL    HW250279   0.014   3.239  11.071 -0.7633  0.9701 -4.4740
16280SOL     OW50280   5.950   1.210   8.514 -0.3177  0.4202 -0.2615
16280SOL    HW150281   6.002   1.133   8.489  0.4162  1.5039 -2.3674
16280SOL    HW250282   6.015   1.271   8.550 -0.1877  1.4425 -2.0926
16281SOL     OW50283   3.019   5.517   6.736 -0.4147 -0.4056  0.7619
16281SOL    HW150284   3.089   5.452   6.745  0.1473 -0.3509 -2.3676
16281SOL    HW250285   2.945   5.469   6.699 -0.5144  0.4010 -0.1184
16282SOL     OW50286   1.509   7.230   6.114  0.2837 -0.1146 -0.6685
16282SOL    HW150287   1.458   7.198   6.040  0.6212 -0.9904 -0.5329
16282SOL    HW250288   1.502   7.162   6.180 -0.8503  1.1028  0.5233
16283SOL     OW50289   0.539   4.485  11.174 -0.1773  0.1838 -0.0757
16283SOL    HW150290   0.605   4.438  11.226 -1.3906  0.0159  1.3666
16283SOL    HW250291   0.457   4.441  11.194 -1.0223  1.5840 -0.3340
16284SOL     OW50292   6.737   2.159   8.553 -0.2797  0.1520  0.1884
16284SOL    HW150293   6.803   2.091   8.565 -0.8977 -0.1836  2.1391
16284SOL    HW250294   6.664   2.114   8.511 -0.6420 -0.3929  1.3637
16285SOL     OW50295   3.748   1.352  10.808 -0.0631 -0.3541  0.2112
16285SOL    HW150296   3.654   1.367  10.795 -0.2909 -1.7528  0.1556
16285SOL    HW250297   3.757   1.343  10.903  0.0514 -0.0393  0.2320
16286SOL     OW50298   1.178   2.186   9.235  0.2724  0.1258 -0.1998
16286SOL    HW150299   1.133   2.128   9.297  1.2669 -0.1531  0.2763
16286SOL    HW250300   1.269   2.157   9.236  0.6503  1.2463 -0.4906
16287SOL     OW50301   3.056   2.363   8.863  0.2570 -0.5693  0.0727
16287SOL    HW150302   3.014   2.380   8.779 -0.8945 -0.3341  0.6651
16287SOL    HW250303   3.059   2.268   8.869  0.5151 -0.5875 -0.3124
16288SOL     OW50304   0.019   3.913   8.666  0.3776 -0.6595 -0.0731
16288SOL    HW150305   0.073   3.836   8.647  0.9101 -0.1286 -0.7598
16288SOL    HW250306   0.018   3.918   8.761  2.5379 -0.0133 -0.0319
16289SOL     OW50307   0.092   3.545   5.292  0.0776  0.2203 -0.6700
16289SOL    HW150308   0.144   3.525   5.369  0.0108 -1.3848 -0.9990
16289SOL    HW250309   0.014   3.490   5.301 -0.7239  1.2635 -1.0603
16290SOL     OW50310   5.273   6.465   3.417  0.7619 -0.1957  0.1195
16290SOL    HW150311   5.336   6.519   3.370  1.5412 -0.7783  0.4725
16290SOL    HW250312   5.237   6.523   3.485  3.4574 -0.7146  2.1884
16291SOL     OW50313   3.873   1.783   5.424 -0.2586 -0.4126  0.3785
16291SOL    HW150314   3.837   1.732   5.496  1.2218 -1.3907  0.4607
16291SOL    HW250315   3.859   1.874   5.450 -1.0081 -0.7527  1.2197
16292SOL     OW50316   3.785   2.189   3.885  0.2141 -0.1674  0.0604
16292SOL    HW150317   3.837   2.128   3.937  0.6175 -1.1202 -1.3890
16292SOL    HW250318   3.844   2.216   3.814 -1.2528 -1.3982 -1.7220
16293SOL     OW50319   0.257   2.084   5.763 -0.5458 -0.1204  0.2020
16293SOL    HW150320   0.238   2.108   5.672 -0.7828 -5.5835 -1.5263
16293SOL    HW250321   0.210   2.002   5.777  1.0321 -0.5385  4.6890
16294SOL     OW50322   2.909   3.271   7.954 -0.6786  0.0425 -0.6768
16294SOL    HW150323   2.985   3.292   7.899 -0.8879  3.3518  0.1427
16294SOL    HW250324   2.946   3.261   8.042 -0.7454 -2.3564 -0.8545
16295SOL     OW50325   3.766   5.004   4.838  0.1774  0.7483  0.0511
16295SOL    HW150326   3.760   4.924   4.889  4.1702  0.6472  0.6821
16295SOL    HW250327   3.770   4.974   4.747  0.5955  0.2818  0.2156
16296SOL     OW50328   6.664   2.078  10.167 -0.4952 -0.1703  0.4415
16296SOL    HW150329   6.684   2.090  10.074 -2.0898  0.7721  0.1867
16296SOL    HW250330   6.585   2.025  10.168 -0.3063 -0.4472  1.2757
16297SOL     OW50331   6.269   1.752  11.592 -0.0748 -0.0466 -0.7724
16297SOL    HW150332   6.178   1.767  11.567  0.2113 -0.0142 -1.8455
16297SOL    HW250333   6.282   1.658  11.578 -0.3971 -0.3705  0.9534
16298SOL     OW50334   6.487   5.182   2.554 -0.3636  0.4891 -0.7795
16298SOL    HW150335   6.545   5.129   2.608 -0.6136  1.1255  0.1215
16298SOL    HW250336   6.441   5.118   2.499 -0.5534 -0.2145  0.1783
16299SOL     OW50337   4.235   6.248   5.442 -0.4812 -0.2978 -0.0619
16299SOL    HW150338   4.254   6.235   5.350 -0.7033 -1.6184  0.0520
16299SOL    HW250339   4.162   6.188   5.460  0.4007 -1.0356  1.2471
16300SOL     OW50340   0.133   1.615   9.032 -0.3912 -0.7305  0.2681
16300SOL    HW150341   0.221   1.601   9.067 -0.1821  2.5801  1.4580
16300SOL    HW250342   0.148   1.651   8.944 -0.5925 -1.1113  0.0776
16301SOL     OW50343   5.061   5.525   6.528 -0.5962  0.3439 -0.2663
16301SOL    HW150344   5.062   5.429   6.538 -0.5431  0.2894 -0.8078
16301SOL    HW250345   5.072   5.557   6.618 -1.2194 -0.1557  0.0096
16302SOL     OW50346   6.143   4.485   1.341 -0.0323 -0.0078  0.7247
16302SOL    HW150347   6.071   4.541   1.310 -1.0661 -1.2018  0.8836
16302SOL    HW250348   6.114   4.454   1.427  1.0598  0.1533  1.1586
16303SOL     OW50349   5.497   2.220  10.001 -0.5126  0.1220  0.0086
16303SOL    HW150350   5.449   2.281  10.058  0.5545  0.7429  0.2584
16303SOL    HW250351   5.429   2.183   9.945 -1.2661  1.1452  0.2026
16304SOL     OW50352   6.718   2.139   4.905  0.4813  0.4911  0.1290
16304SOL    HW150353   6.736   2.106   4.817  1.1423 -0.4004  0.5778
16304SOL    HW250354   6.706   2.060   4.958  0.3230  1.0109  0.8814
16305SOL     OW50355   7.119   0.856  11.834 -0.0271  0.0273  0.0359
16305SOL    HW150356   7.115   0.951  11.824  0.3920  0.1701  1.1454
16305SOL    HW250357   7.199   0.831  11.788 -0.7679  0.0516 -1.3052
16306SOL     OW50358   5.270   1.615  11.454  0.5422 -0.1279  0.1391
16306SOL    HW150359   5.294   1.611  11.361  0.7575 -0.7298  0.2160
16306SOL    HW250360   5.210   1.541  11.466  0.9286 -0.3682  0.5968
16307SOL     OW50361   6.298   1.910   2.891  0.0543 -0.3676 -0.5584
16307SOL    HW150362   6.223   1.853   2.912  0.4591 -1.4283 -1.8181
16307SOL    HW250363   6.366   1.883   2.952 -0.5609  0.6082  0.6011
16308SOL     OW50364   2.959   3.172   1.831 -0.2327  0.1665  0.3794
16308SOL    HW150365   3.040   3.224   1.828 -0.7256  1.1130  1.9344
16308SOL    HW250366   2.891   3.235   1.854 -0.8561 -1.1176  2.3874
16309SOL     OW50367   5.054   7.780   3.931  0.0465 -0.0293 -0.7597
16309SOL    HW150368   5.022   7.866   3.905 -0.7776  0.1006  0.5927
16309SOL    HW250369   5.030   7.772   4.023  3.4957 -0.0980  0.2947
16310SOL     OW50370   1.151   2.410  10.301  0.4295  0.4459  0.0530
16310SOL    HW150371   1.097   2.421  10.380 -0.3232  1.0488 -0.5329
16310SOL    HW250372   1.116   2.332  10.259  0.4765  0.4323  0.0393
16311SOL     OW50373   3.805   3.125   4.067 -0.0930  0.1844  0.2329
16311SOL    HW150374   3.759   3.049   4.101 -0.1242  1.9352  4.8682
16311SOL    HW250375   3.736   3.187   4.044 -0.0443 -0.3873 -1.5469
16312SOL     OW50376   2.274   5.103  11.254  0.6096  0.2592  0.0246
16312SOL    HW150377   2.198   5.045  11.249  0.3275  0.7021 -1.2084
16312SOL    HW250378   2.296   5.123  11.163  2.0822  0.3166  0.3568
16313SOL     OW50379   1.125   7.701  11.740  0.1535 -0.2607  0.9571
16313SOL    HW150380   1.039   7.690  11.781 -0.3933 -0.6591 -0.2240
16313SOL    HW250381   1.146   7.613  11.707 -0.2817  0.3700 -1.1405
16314SOL     OW50382   3.334   2.821   7.948 -0.3845 -0.1705 -0.0152
16314SOL    HW150383   3.366   2.750   8.003  1.2864 -1.4997 -2.5432
16314SOL    HW250384   3.378   2.899   7.982  0.4077 -0.9087  0.6954
16315SOL     OW50385   7.643   2.395   4.398 -0.0458 -0.2267 -0.4076
16315SOL    HW150386   7.691   2.341   4.461  0.5709 -0.9694 -1.4814
16315SOL    HW250387   7.679   2.483   4.410  1.5095 -0.7332 -1.0704
16316SOL     OW50388   3.614   4.717  12.202 -0.1483  0.0913 -0.2046
16316SOL    HW150389   3.665   4.756  12.131 -0.2873  0.0544 -0.3253
16316SOL    HW250390   3.636   4.624  12.199  1.5487  0.3902  1.2046
16317SOL     OW50391   4.897   0.283   5.169 -0.4876 -0.2990  0.0713
16317SOL    HW150392   4.954   0.275   5.245 -1.5371  0.6976  0.9880
16317SOL    HW250393   4.899   0.376   5.146 -1.8265 -0.2233  0.1963
16318SOL     OW50394   1.600   2.101  12.402  0.0739  0.0155 -0.7816
16318SOL    HW150395   1.589   2.176  12.344  1.3439  0.2641 -0.7417
16318SOL    HW250396   1.695   2.094  12.414 -0.0718 -1.0748 -0.0986
16319SOL     OW50397   3.518   2.931  11.048  0.0014 -0.4625 -0.1208
16319SOL    HW150398   3.577   2.916  11.122 -1.9177  1.6722  2.0236
16319SOL    HW250399   3.471   3.011  11.071 -2.0830 -0.7679 -2.7997
16320SOL     OW50400   3.795   2.321   9.510 -0.4710  0.5187  0.1921
16320SOL    HW150401   3.818   2.245   9.564  1.2650  0.7450 -0.1691
16320SOL    HW250402   3.701   2.330   9.521 -0.4852 -0.7531  1.4660
16321SOL     OW50403   4.935   5.325  11.209  0.5247 -0.3611  0.2822
16321SOL    HW150404   4.985   5.322  11.291  0.6926 -1.6931  0.1604
16321SOL    HW250405   4.882   5.245  11.211  0.6542 -0.4936 -0.9779
16322SOL     OW50406   4.092   3.484   3.362 -0.8844  0.3847 -0.5192
16322SOL    HW150407   4.012   3.454   3.318 -2.1485  0.6149  1.4619
16322SOL    HW250408   4.089   3.579   3.355 -2.2468  0.5906  1.7474
16323SOL     OW50409   4.831   1.226   4.725  0.2636  0.0110  0.4508
16323SOL    HW150410   4.806   1.140   4.692 -0.7574  0.3200  0.3891
16323SOL    HW250411   4.811   1.286   4.653  1.5824  0.2388  0.2474
16324SOL     OW50412   4.110   3.228   9.584  0.1778 -0.1408  0.2275
16324SOL    HW150413   4.038   3.279   9.622  1.4202  1.8464  0.0226
16324SOL    HW250414   4.168   3.293   9.545  0.2273 -1.8938 -2.9969
16325SOL     OW50415   2.196   2.933   2.313  0.1201  0.1491 -0.8925
16325SOL    HW150416   2.192   2.993   2.239  2.3594  2.0770  0.4239
16325SOL    HW250417   2.155   2.981   2.385  0.3100 -0.6506 -0.2331
16326SOL     OW50418   5.911   6.211   8.017  0.0374 -0.0213 -0.2160
16326SOL    HW150419   5.986   6.161   7.985  0.1729 -0.1162  0.2355
16326SOL    HW250420   5.850   6.144   8.049 -0.2803  0.0508 -0.6575
16327SOL     OW50421   4.516   3.850   7.834 -0.2533 -0.1887 -0.5371
16327SOL    HW150422   4.593   3.806   7.870 -0.5231  0.4442  0.8759
16327SOL    HW250423   4.541   3.870   7.743  0.7238 -1.1958 -0.5156
16328SOL     OW50424   5.351   0.963   3.471 -0.5841  0.2428  0.3995
16328SOL    HW150425   5.350   0.894   3.537 -0.8218 -0.4126 -0.2778
16328SOL    HW250426   5.438   1.003   3.480 -0.0275 -0.8630  0.0613
16329SOL     OW50427   2.410   5.523  10.619 -0.1155 -0.0330 -0.2779
16329SOL    HW150428   2.487   5.487  10.662 -1.0217 -0.2153  1.3024
16329SOL    HW250429   2.381   5.594  10.678 -1.4115 -0.2969 -0.5600
16330SOL     OW50430   4.321   4.919   0.566  0.2444 -0.1634  0.1487
16330SOL    HW150431   4.332   4.853   0.497  1.1220 -0.7079  0.7876
16330SOL    HW250432   4.292   4.998   0.520  0.0754 -0.7368 -0.7411
16331SOL     OW50433   4.367   4.920   2.790 -0.4178 -0.6412  0.4152
16331SOL    HW150434   4.337   4.844   2.740 -0.5496 -0.1863 -0.2120
16331SOL    HW250435   4.305   4.926   2.863 -1.0049 -0.5496 -0.0830
16332SOL     OW50436   4.647   0.153   6.441  0.2507 -0.0131  0.5193
16332SOL    HW150437   4.614   0.166   6.353  0.9098 -0.3507  0.2146
16332SOL    HW250438   4.608   0.223   6.493  0.2006  0.4401 -0.1290
16333SOL     OW50439   0.262   7.679   9.476 -0.2812 -0.2048 -1.2363
16333SOL    HW150440   0.204   7.697   9.550 -0.1276 -1.9641 -0.6443
16333SOL    HW250441   0.331   7.745   9.483  0.3701 -1.0303  0.9104
16334SOL     OW50442   4.300   2.747   6.798  0.3028 -0.7477  0.0342
16334SOL    HW150443   4.307   2.654   6.779  0.2107 -0.8693  0.5954
16334SOL    HW250444   4.223   2.754   6.855 -0.6182 -0.1542 -1.2228
16335SOL     OW50445   6.418   4.004   0.299 -0.4495  0.5882  0.1975
16335SOL    HW150446   6.393   4.086   0.341 -1.1976 -0.3220  1.5853
16335SOL    HW250447   6.498   4.025   0.251 -0.2048  1.9370  1.1569
16336SOL     OW50448   6.731   7.449   2.502  0.1719  0.7096 -0.3129
16336SOL    HW150449   6.694   7.364   2.480 -2.2471  0.6265  3.3671
16336SOL    HW250450   6.667   7.513   2.469  1.8353  1.2754 -2.8025
16337SOL     OW50451   2.461   6.212   5.488  0.2870 -0.1516 -0.2895
16337SOL    HW150452   2.503   6.162   5.557  1.1561  0.0356 -0.6710
16337SOL    HW250453   2.392   6.261   5.533  0.9200  0.0678  0.4639
16338SOL     OW50454   5.693   4.792  11.583  0.4872 -0.2078 -0.2437
16338SOL    HW150455   5.649   4.710  11.560 -2.9418  1.1088  0.8828
16338SOL    HW250456   5.705   4.836  11.499 -0.3457 -0.6894 -0.6360
16339SOL     OW50457   0.414   5.508  10.540 -0.0217 -0.5944 -0.3388
16339SOL    HW150458   0.466   5.432  10.569  0.4312 -0.1917 -0.0768
16339SOL    HW250459   0.467   5.548  10.471  1.1406  1.1295  1.4541
16340SOL     OW50460   5.954   0.484   8.403 -0.0984  0.0967 -0.5117
16340SOL    HW150461   5.899   0.550   8.360  2.1685  1.7366 -1.0557
16340SOL    HW250462   5.939   0.499   8.496 -1.5163 -0.3600 -0.6392
16341SOL     OW50463   3.712   7.672   9.114  0.2422  0.2068  0.5346
16341SOL    HW150464   3.805   7.660   9.093 -0.0554  1.5396 -1.9924
16341SOL    HW250465   3.690   7.597   9.170  1.9854 -2.2333 -1.7565
16342SOL     OW50466   2.825   3.982   6.950 -0.5006 -0.1933  0.3324
16342SOL    HW150467   2.762   4.000   7.019 -0.2103  0.3648  0.4610
16342SOL    HW250468   2.773   3.948   6.877 -0.8132 -0.7266  0.7964
16343SOL     OW50469   7.007   7.717   5.386 -0.1393 -0.7618  0.4224
16343SOL    HW150470   7.093   7.702   5.426  0.6293  0.6482 -0.5951
16343SOL    HW250471   6.949   7.735   5.460  0.5619 -1.1796  1.0921
16344SOL     OW50472   5.711   0.899   9.986  0.1632  0.0675 -0.0788
16344SOL    HW150473   5.710   0.989  10.020  2.7069  0.1081  0.0892
16344SOL    HW250474   5.735   0.845  10.061  3.4197 -0.1224 -1.0945
16345SOL     OW50475   2.910   6.928   5.042  0.3963 -0.0989  0.2873
16345SOL    HW150476   2.910   6.975   4.959 -1.1247  1.4341  1.0689
16345SOL    HW250477   2.857   6.850   5.027  0.6526 -0.1555 -0.3279
16346SOL     OW50478   0.892   6.925   6.707  0.1470  0.3758 -0.4809
16346SOL    HW150479   0.884   6.963   6.794  0.5138  1.6461 -0.9662
16346SOL    HW250480   0.849   6.840   6.713  1.7530 -0.3825  1.4117
16347SOL     OW50481   6.105   3.933   9.411 -0.0198 -0.8117  0.2368
16347SOL    HW150482   6.099   3.842   9.441  1.1655 -1.8066 -2.2419
16347SOL    HW250483   6.185   3.966   9.453  0.4145 -1.4523 -0.0585
16348SOL     OW50484   3.116   3.860   5.254 -0.1406 -0.2192 -0.1394
16348SOL    HW150485   3.180   3.853   5.326 -0.1433 -2.2055 -0.2790
16348SOL    HW250486   3.052   3.924   5.286  0.3947 -0.3092  1.2090
16349SOL     OW50487   4.403   0.860  11.627  0.1738  0.8028  0.7183
16349SOL    HW150488   4.384   0.789  11.566  1.1471  1.3692 -0.2807
16349SOL    HW250489   4.346   0.843  11.702 -2.6617  1.2181 -1.1771
16350SOL     OW50490   5.328   4.609  12.288 -0.0394  0.1386 -0.6251
16350SOL    HW150491   5.344   4.515  12.298  1.7209  0.5049  0.3861
16350SOL    HW250492   5.232   4.617  12.287 -0.2244 -1.5855  0.1127
16351SOL     OW50493   1.982   4.503   6.135  0.6597 -0.2997  0.1231
16351SOL    HW150494   1.890   4.529   6.147  0.8766  0.1648  0.8068
16351SOL    HW250495   2.020   4.572   6.081  0.5834 -0.5516 -0.2575
16352SOL     OW50496   3.456   3.487   7.625 -0.2302 -0.1999 -0.6254
16352SOL    HW150497   3.459   3.433   7.704 -1.7407 -1.4150 -1.3538
16352SOL    HW250498   3.366   3.479   7.593 -0.3480  2.2976 -1.1107
16353SOL     OW50499   1.329   6.237   6.849  0.1335  0.0609  0.3047
16353SOL    HW150500   1.277   6.317   6.833  1.5932  1.0089  0.1537
16353SOL    HW250501   1.412   6.269   6.883  0.3974 -1.4798  1.1608
16354SOL     OW50502   0.502   7.494   2.579 -0.7675  0.8628 -1.0012
16354SOL    HW150503   0.409   7.475   2.595 -0.1351 -0.9488  0.9784
16354SOL    HW250504   0.526   7.433   2.508 -0.2579 -1.6026  1.1237
16355SOL     OW50505   3.084   0.873   6.700  0.1080 -0.1398 -0.0288
16355SOL    HW150506   3.102   0.842   6.612 -2.7454 -0.1498 -0.6824
16355SOL    HW250507   3.050   0.962   6.688  0.2551  0.0850  1.1131
16356SOL     OW50508   2.833   2.149   3.385 -0.1763  0.0939 -0.2915
16356SOL    HW150509   2.847   2.143   3.479  1.2395 -1.0795 -0.5350
16356SOL    HW250510   2.920   2.165   3.349 -0.4756 -0.7948 -1.4863
16357SOL     OW50511   2.900   5.229   5.549  0.3116  0.5674  0.4025
16357SOL    HW150512   2.831   5.179   5.506  1.4348 -0.9432  0.2683
16357SOL    HW250513   2.947   5.271   5.477  2.5454 -2.4179 -0.0531
16358SOL     OW50514   7.944   6.969   7.256  0.1468 -0.0629  0.1090
16358SOL    HW150515   7.921   7.060   7.276  0.5279  0.1421 -0.3824
16358SOL    HW250516   8.034   6.959   7.286 -0.1667 -0.5197  0.9176
16359SOL     OW50517   3.965   1.912   3.657  0.2150  0.2022  0.0956
16359SOL    HW150518   3.949   1.868   3.741  1.0182 -0.7043 -0.2107
16359SOL    HW250519   3.940   2.003   3.673  1.3233  0.2751  1.6320
16360SOL     OW50520   1.739   5.534   8.713 -0.3383 -0.2806 -0.2102
16360SOL    HW150521   1.749   5.558   8.806 -0.0787 -0.7949 -0.1024
16360SOL    HW250522   1.649   5.559   8.692  0.0711  1.2548 -0.2477
16361SOL     OW50523   5.247   6.287   3.218  0.2989  0.1725  0.0576
16361SOL    HW150524   5.271   6.347   3.289  0.8588 -1.0904  0.9772
16361SOL    HW250525   5.305   6.312   3.146  1.1039  0.2174  0.7017
16362SOL     OW50526   1.610   0.483   9.233 -0.1277 -0.3765 -0.2870
16362SOL    HW150527   1.576   0.440   9.155  0.2900 -2.0913  0.4394
16362SOL    HW250528   1.571   0.436   9.306  0.6877  0.1978  0.5423
16363SOL     OW50529   5.953   4.901   9.703  0.6120 -0.0793 -0.5745
16363SOL    HW150530   6.027   4.947   9.743 -0.2391  1.1562 -0.3392
16363SOL    HW250531   5.992   4.828   9.656  2.2270  1.6995 -2.1900
16364SOL     OW50532   6.301   1.711  10.330 -0.1490  0.1783  0.5169
16364SOL    HW150533   6.375   1.675  10.380 -1.1428 -1.8157  0.6543
16364SOL    HW250534   6.265   1.780  10.386 -0.2247 -0.9027  1.8431
16365SOL     OW50535   0.128   7.526  11.509  0.2991  0.1957  0.3757
16365SOL    HW150536   0.055   7.503  11.567  1.6459 -2.4517  1.1540
16365SOL    HW250537   0.105   7.487  11.424  0.7386 -0.5769  0.6023
16366SOL     OW50538   6.041   6.600   5.767 -0.1520  0.9767  0.2811
16366SOL    HW150539   5.975   6.541   5.729  1.5757 -0.0339 -1.2831
16366SOL    HW250540   5.995   6.643   5.838 -2.2417 -0.3910 -0.1396
16367SOL     OW50541   3.264   5.061   9.225 -0.4722  0.4134  0.6142
16367SOL    HW150542   3.289   5.070   9.133  0.8753 -0.6734  0.8409
16367SOL    HW250543   3.311   4.983   9.255 -1.1943  0.5287  2.1270
16368SOL     OW50544   7.922   4.470   7.779  0.4355 -0.2824 -0.0266
16368SOL    HW150545   8.009   4.509   7.773 -0.0619  0.9806  0.5313
16368SOL    HW250546   7.906   4.461   7.873 -0.9651  1.7754  0.0021
16369SOL     OW50547   0.495   3.420   8.742 -0.1877  0.6500  0.2223
16369SOL    HW150548   0.504   3.503   8.789  0.1659  0.5704  0.2963
16369SOL    HW250549   0.460   3.445   8.657  0.9418  1.0027 -0.1588
16370SOL     OW50550   0.281   2.887   2.318 -0.1029 -0.5787  0.2839
16370SOL    HW150551   0.337   2.961   2.297  0.4584 -1.1208 -0.1745
16370SOL    HW250552   0.196   2.909   2.279  0.2659 -0.5036 -0.4992
16371SOL     OW50553   7.542   2.903  11.827  0.4490  0.5334  0.0240
16371SOL    HW150554   7.556   2.819  11.872 -1.3115 -1.1571 -2.3123
16371SOL    HW250555   7.611   2.907  11.761  0.1550  0.5791 -0.2875
16372SOL     OW50556   0.946   4.224   9.020  0.8795  0.4745 -0.1680
16372SOL    HW150557   0.983   4.192   9.102  2.0130  2.0373 -0.0209
16372SOL    HW250558   1.000   4.184   8.952  0.7824  0.2258 -0.0999
16373SOL     OW50559   4.882   0.002   9.387 -0.4445  0.4341  0.5741
16373SOL    HW150560   4.897  -0.027   9.297  0.2345 -0.8403  1.0728
16373SOL    HW250561   4.831  -0.068   9.427 -0.2644  0.7276  1.3369
16374SOL     OW50562   4.277   6.453  11.763 -0.0821 -0.7296 -0.0201
16374SOL    HW150563   4.349   6.409  11.718  0.3825  0.0548 -0.0642
16374SOL    HW250564   4.198   6.411  11.729  0.2489 -0.1942 -1.5799
16375SOL     OW50565   7.321   7.695   1.938  0.1566  0.8027  0.3816
16375SOL    HW150566   7.352   7.605   1.948 -3.3997 -0.5930  0.0875
16375SOL    HW250567   7.281   7.716   2.023  0.5467  2.0090  0.2945
16376SOL     OW50568   2.146   2.450   8.761 -0.2192  0.1260  0.3579
16376SOL    HW150569   2.110   2.489   8.841  0.6450  1.1401  0.2689
16376SOL    HW250570   2.239   2.472   8.763 -0.4130  1.3209 -1.5740
16377SOL     OW50571   2.482   2.055   3.863  0.2211  0.0834 -0.1935
16377SOL    HW150572   2.569   2.095   3.871 -0.3080  1.0352  1.3332
16377SOL    HW250573   2.447   2.057   3.952 -2.2764  1.9023 -1.0897
16378SOL     OW50574   3.182   5.858   0.563 -0.2796 -0.7966 -0.0262
16378SOL    HW150575   3.133   5.916   0.505  0.0895 -0.0114  0.4191
16378SOL    HW250576   3.191   5.776   0.514 -0.2693 -0.2652 -0.9357
16379SOL     OW50577   5.885   4.352   6.983  0.3648 -0.0341  0.2253
16379SOL    HW150578   5.980   4.352   6.985  0.3532 -0.5067  1.2194
16379SOL    HW250579   5.861   4.443   6.964  0.9998  0.4788  1.7606
16380SOL     OW50580   6.271   1.695   3.973  0.4871  0.2671  0.0445
16380SOL    HW150581   6.196   1.753   3.962 -0.5886 -0.7354  1.6839
16380SOL    HW250582   6.235   1.607   3.968  1.8142 -0.2668 -0.6452
16381SOL     OW50583   0.705   6.871   0.231  0.0193 -0.1197 -0.4831
16381SOL    HW150584   0.631   6.917   0.191 -2.1159  0.0040  3.1560
16381SOL    HW250585   0.667   6.791   0.267  1.9633 -0.7891  0.2053
16382SOL     OW50586   3.838   0.283   6.261 -0.2223 -0.2617  0.2712
16382SOL    HW150587   3.763   0.227   6.240  0.1843 -0.9726  0.6912
16382SOL    HW250588   3.835   0.352   6.195 -1.6803  0.1438  0.7135
16383SOL     OW50589   2.080   6.431   0.398  0.4176 -0.6679 -0.2080
16383SOL    HW150590   2.066   6.385   0.315  0.8673 -0.8197 -0.2020
16383SOL    HW250591   2.175   6.446   0.402  0.6001 -1.9719  0.9658
16384SOL     OW50592   1.032   2.326   2.397  0.4377  0.4136 -0.2535
16384SOL    HW150593   0.997   2.329   2.486 -0.2213 -1.4717 -0.4136
16384SOL    HW250594   1.000   2.243   2.361  1.1211  0.8912 -2.0771
16385SOL     OW50595   1.709   4.314   4.616 -0.3859 -0.5279  0.5685
16385SOL    HW150596   1.622   4.289   4.647 -1.1612  0.5420 -0.6160
16385SOL    HW250597   1.693   4.390   4.560  1.2985 -0.4239  0.1811
16386SOL     OW50598   7.436   5.333  12.217  0.4544  0.1349  0.9263
16386SOL    HW150599   7.357   5.280  12.222 -0.3682  1.1890 -0.3480
16386SOL    HW250600   7.413   5.405  12.159  1.9929  1.1132  1.4823
16387SOL     OW50601   6.967   4.477   2.269 -0.1813  0.4697 -0.3548
16387SOL    HW150602   6.976   4.551   2.209 -0.6321  0.6124 -0.2482
16387SOL    HW250603   7.054   4.437   2.270  0.6355  2.1684  1.1464
16388SOL     OW50604   2.257   0.599  10.979  0.6204  0.1490  0.4966
16388SOL    HW150605   2.206   0.521  11.001  0.6198 -0.4051 -1.3160
16388SOL    HW250606   2.207   0.641  10.909  2.4391 -0.2202 -1.0863
16389SOL     OW50607   0.342   2.620   1.282  0.1496 -0.4207  0.2262
16389SOL    HW150608   0.248   2.636   1.287  0.5339  2.0867  0.8536
16389SOL    HW250609   0.363   2.628   1.189 -0.1324 -0.0462  0.1934
16390SOL     OW50610   6.051   0.652   2.964  0.1383 -0.5173  0.1303
16390SOL    HW150611   6.130   0.681   3.008  1.1396 -1.9457 -0.6108
16390SOL    HW250612   5.983   0.713   2.991  1.0404 -0.4356  2.3765
16391SOL     OW50613   1.680   2.743   2.112 -0.6305 -0.0519 -0.2583
16391SOL    HW150614   1.650   2.701   2.193  0.0629 -0.3452 -0.1420
16391SOL    HW250615   1.771   2.714   2.102 -1.0029 -0.8563 -1.6873
16392SOL     OW50616   3.500   5.534   6.686  0.5023  0.0192  0.4242
16392SOL    HW150617   3.442   5.544   6.610  3.0034 -1.3832 -1.8378
16392SOL    HW250618   3.506   5.439   6.699  0.9445  0.2055  1.7295
16393SOL     OW50619   6.850   7.503  11.136 -0.0806 -0.2698  0.0427
16393SOL    HW150620   6.776   7.512  11.075  0.9326  0.3019 -1.1384
16393SOL    HW250621   6.810   7.505  11.223 -1.1845  4.1367 -0.3481
16394SOL     OW50622   5.604   0.233   7.654 -0.2795 -0.0746 -0.2674
16394SOL    HW150623   5.519   0.204   7.620 -0.7300  1.1225 -0.2152
16394SOL    HW250624   5.668   0.200   7.590 -0.9609  0.5999 -1.3330
16395SOL     OW50625   1.004   4.838   2.373 -0.2017  0.1855 -0.0587
16395SOL    HW150626   0.956   4.825   2.454 -1.8202 -0.8629 -1.1478
16395SOL    HW250627   1.022   4.750   2.341  0.5302  0.5853 -0.7867
16396SOL     OW50628   1.918   5.012  12.167 -0.0081  0.0448  0.0954
16396SOL    HW150629   1.922   5.061  12.085  0.2331  0.4111  0.3227
16396SOL    HW250630   1.996   4.957  12.166 -0.1442 -0.1473 -0.0419
16397SOL     OW50631   5.763   3.708   5.668 -0.0260 -0.1583  0.0246
16397SOL    HW150632   5.684   3.732   5.716  0.1453  0.0416  0.2113
16397SOL    HW250633   5.812   3.652   5.728  0.7033  0.9687  0.5240
16398SOL     OW50634   6.718   6.698   1.879  0.6377  0.0469  0.8074
16398SOL    HW150635   6.636   6.704   1.830  0.9482  0.7007  0.3470
16398SOL    HW250636   6.692   6.696   1.971  0.1073  0.2273  0.6628
16399SOL     OW50637   7.214   2.210  11.844 -0.2005  0.0463  0.0026
16399SOL    HW150638   7.308   2.191  11.836 -0.4267 -0.4272 -2.3923
16399SOL    HW250639   7.207   2.303  11.825 -0.3521 -0.2712 -1.6027
16400SOL     OW50640   1.759   7.637   2.489 -0.2946  0.3259 -0.1009
16400SOL    HW150641   1.703   7.573   2.444 -2.8177  0.8261  2.1044
16400SOL    HW250642   1.706   7.717   2.491  0.1791  0.6441  2.6105
16401SOL     OW50643   2.869   3.284  10.594  0.0536 -0.4505 -0.0247
16401SOL    HW150644   2.939   3.345  10.616  1.5654 -2.1832  0.2333
16401SOL    HW250645   2.877   3.213  10.658 -2.4954 -0.3479  0.5370
16402SOL     OW50646   5.220   7.225   7.540  0.3220 -0.6116 -0.4933
16402SOL    HW150647   5.296   7.191   7.493 -0.4933 -0.5119 -1.9277
16402SOL    HW250648   5.222   7.179   7.624  2.6203  0.2630  0.0022
16403SOL     OW50649   5.569   0.431   0.103  0.3486 -0.2656 -0.2124
16403SOL    HW150650   5.665   0.428   0.097  0.3772  0.6044 -0.3069
16403SOL    HW250651   5.552   0.479   0.184 -0.0166 -1.0251  0.1672
16404SOL     OW50652   2.580   0.253   1.488  0.0277 -0.0862 -0.0504
16404SOL    HW150653   2.559   0.307   1.412 -0.4634  0.3231  0.3647
16404SOL    HW250654   2.586   0.164   1.454  0.4892  0.1812 -0.6809
16405SOL     OW50655   7.316   5.486   0.017  0.6769  0.3251 -0.7713
16405SOL    HW150656   7.374   5.539   0.073 -1.6481  0.8586  1.3031
16405SOL    HW250657   7.308   5.403   0.063  0.7576 -0.2013 -1.6935
16406SOL     OW50658   4.058   6.036   2.407  0.1566 -0.4160  0.2351
16406SOL    HW150659   4.092   6.023   2.495 -0.3917  1.0268  0.6954
16406SOL    HW250660   4.042   6.130   2.401  0.5338 -0.4281 -1.5457
16407SOL     OW50661   1.708   4.838  10.257 -0.2710 -0.0960  0.5778
16407SOL    HW150662   1.701   4.893  10.179  1.1991  0.5735  0.8758
16407SOL    HW250663   1.631   4.860  10.309  0.3729  1.8718  0.7756
16408SOL     OW50664   6.827   2.585   3.214 -0.1350  0.2261 -0.3075
16408SOL    HW150665   6.790   2.620   3.133  0.1212 -1.6906 -1.3323
16408SOL    HW250666   6.758   2.529   3.249 -1.5592  3.5675  2.7069
16409SOL     OW50667   6.354   7.503   8.361  0.4622  0.2038  0.3620
16409SOL    HW150668   6.337   7.476   8.271 -0.5081  0.0908  0.5689
16409SOL    HW250669   6.399   7.429   8.401  0.9309  0.2703 -0.0386
16410SOL     OW50670   0.962   6.893  11.021 -0.1495  0.3071 -0.1347
16410SOL    HW150671   0.971   6.987  11.037  1.3045  0.0332  0.9369
16410SOL    HW250672   0.943   6.856  11.107  0.0102 -0.4491 -0.4167
16411SOL     OW50673   7.770   5.208  11.048  0.4059 -0.3451  0.3448
16411SOL    HW150674   7.854   5.242  11.018  1.2870 -1.5824  1.2887
16411SOL    HW250675   7.754   5.254  11.131  0.3889 -0.4571  0.4036
16412SOL     OW50676   6.730   5.466   6.428 -0.5962 -0.5040  0.4169
16412SOL    HW150677   6.638   5.493   6.421 -0.5034 -0.1865  0.3789
16412SOL    HW250678   6.745   5.411   6.351 -1.0114 -1.3376  0.9263
16413SOL     OW50679   3.120   1.528   5.758  0.3219  0.4110  0.3635
16413SOL    HW150680   3.144   1.585   5.831 -0.5215  0.4535  0.6141
16413SOL    HW250681   3.169   1.447   5.774  0.5539  0.6116  0.6837
16414SOL     OW50682   6.285   5.701   3.675 -0.0204  0.4247 -0.1051
16414SOL    HW150683   6.248   5.724   3.761  1.4167  1.3037  0.3108
16414SOL    HW250684   6.225   5.634   3.641 -1.9673  1.7623  0.5083
16415SOL     OW50685   3.688   3.269   6.061 -0.0213 -0.2373 -0.3608
16415SOL    HW150686   3.655   3.194   6.111 -0.2898 -0.9085 -1.4963
16415SOL    HW250687   3.609   3.319   6.038 -0.0664 -0.7348 -1.3428
16416SOL     OW50688   1.891   2.410  10.701  1.0571  0.4424 -0.0650
16416SOL    HW150689   1.904   2.417  10.795  1.3285 -1.2774  0.0522
16416SOL    HW250690   1.798   2.428  10.688  0.2727 -2.4266  0.9584
16417SOL     OW50691   6.321   3.545  10.644  0.4099  0.3665 -0.0018
16417SOL    HW150692   6.269   3.623  10.657 -0.5859 -0.2127 -0.4089
16417SOL    HW250693   6.257   3.476  10.626  1.3237  0.3738 -4.4874
16418SOL     OW50694   7.447   3.076   5.625  0.1110  0.2648 -0.0859
16418SOL    HW150695   7.499   3.001   5.654  2.5031  2.3358  1.3965
16418SOL    HW250696   7.368   3.073   5.680  0.8204 -0.4178  0.9429
16419SOL     OW50697   6.330   5.956   5.277 -0.6572  0.3166  0.2126
16419SOL    HW150698   6.333   5.880   5.220  0.3258  0.1728  0.4247
16419SOL    HW250699   6.283   5.926   5.355 -1.6557  0.4015 -0.3472
16420SOL     OW50700   4.308   2.951   0.367 -0.1667  0.2151 -0.6091
16420SOL    HW150701   4.310   2.981   0.276  1.1696 -0.2047 -0.7386
16420SOL    HW250702   4.365   3.012   0.413  1.1482 -1.0264 -0.5422
16421SOL     OW50703   4.141   4.392  12.394  0.1820  0.7689 -0.6170
16421SOL    HW150704   4.224   4.367  12.355 -0.4880 -1.1954 -0.8641
16421SOL    HW250705   4.085   4.413  12.319  0.4753  2.2741 -0.4460
16422SOL     OW50706   4.391   7.635   0.104  0.1091  0.0259  0.4427
16422SOL    HW150707   4.415   7.590   0.023 -2.0439  1.2123 -0.9412
16422SOL    HW250708   4.323   7.580   0.143  1.1097 -0.5205  1.4845
16423SOL     OW50709   2.622   0.488   4.154 -0.1958 -0.0061  0.2918
16423SOL    HW150710   2.663   0.403   4.172 -2.8901 -0.9736  2.5349
16423SOL    HW250711   2.618   0.493   4.059  0.1403 -2.3536  0.0990
16424SOL     OW50712   6.400   5.725   5.179  0.3446  0.2962 -0.2380
16424SOL    HW150713   6.330   5.661   5.182  0.9056 -0.3085  0.3495
16424SOL    HW250714   6.480   5.673   5.186  0.8428  0.9917 -0.6462
16425SOL     OW50715   4.334   2.036  10.675 -0.5113 -0.0589 -0.2182
16425SOL    HW150716   4.365   1.946  10.685  0.0451  0.0868 -0.5780
16425SOL    HW250717   4.371   2.083  10.750  1.8983  0.5666 -1.6995
16426SOL     OW50718   4.501   6.109  12.155  0.0771 -0.3780  0.5516
16426SOL    HW150719   4.417   6.155  12.156  0.3018  0.3768 -3.0904
16426SOL    HW250720   4.480   6.021  12.124  0.5705 -0.3458  0.1141
16427SOL     OW50721   4.978   0.072  10.690 -0.6201 -0.6869 -0.1599
16427SOL    HW150722   4.931   0.092  10.771  0.6144  1.6371  0.0704
16427SOL    HW250723   5.030   0.150  10.672  0.2677 -1.6934 -2.4355
16428SOL     OW50724   1.817   6.179   8.599 -0.2503 -0.2330 -0.3707
16428SOL    HW150725   1.775   6.097   8.572 -1.4865  0.4162 -0.4649
16428SOL    HW250726   1.759   6.216   8.665 -0.3267  1.1535 -1.1708
16429SOL     OW50727   1.160   2.758   0.203 -0.3751 -0.0546 -0.1214
16429SOL    HW150728   1.149   2.684   0.264  0.3672 -0.1421 -0.0842
16429SOL    HW250729   1.241   2.739   0.156 -1.0786 -0.1173 -1.3420
16430SOL     OW50730   0.521   1.358  10.895 -0.0767 -0.1877  0.2538
16430SOL    HW150731   0.511   1.444  10.854 -2.4302 -0.5323 -0.0436
16430SOL    HW250732   0.514   1.375  10.989 -3.3004 -0.2284  0.1410
16431SOL     OW50733   4.555   7.444  11.818 -0.1608  0.5262 -0.5152
16431SOL    HW150734   4.474   7.455  11.769 -1.0697  1.0820  1.0174
16431SOL    HW250735   4.619   7.412  11.754 -1.0446  1.9771 -2.2038
16432SOL     OW50736   7.982   1.722   0.247 -0.3366 -0.0967  0.0466
16432SOL    HW150737   8.016   1.730   0.336  0.2302  1.2910 -0.2631
16432SOL    HW250738   7.895   1.764   0.251  0.2247  1.1555 -0.3096
16433SOL     OW50739   1.441   6.633   8.244 -0.2368 -0.0250 -0.4300
16433SOL    HW150740   1.448   6.581   8.324  1.7991  0.0892 -0.4716
16433SOL    HW250741   1.353   6.669   8.246  0.2994  1.4148  2.6797
16434SOL     OW50742   2.492   2.368   0.228  0.4979 -0.5325 -0.2126
16434SOL    HW150743   2.440   2.319   0.292  0.3199 -0.8987 -0.6370
16434SOL    HW250744   2.548   2.302   0.186  0.7983 -0.2526 -0.2596
16435SOL     OW50745   0.949   6.931   5.874 -0.4992 -0.1276  0.1113
16435SOL    HW150746   1.024   6.957   5.820 -0.6648  0.0877 -0.0156
16435SOL    HW250747   0.873   6.968   5.829 -0.6060  0.3656  0.6834
16436SOL     OW50748   4.846   1.940   5.752 -0.0036  0.2272  0.0133
16436SOL    HW150749   4.882   1.986   5.677 -0.1582 -1.5001 -1.1644
16436SOL    HW250750   4.815   2.010   5.810 -2.9007  1.6737 -2.9492
16437SOL     OW50751   4.858   4.680  12.098 -0.6917 -0.0725 -0.1509
16437SOL    HW150752   4.870   4.607  12.037 -2.0607 -1.3497  1.0446
16437SOL    HW250753   4.940   4.728  12.094 -0.3114 -0.7765 -2.1133
16438SOL     OW50754   4.007   1.739   9.770 -0.8443 -0.2301 -0.1825
16438SOL    HW150755   4.006   1.811   9.706 -0.1482  0.7072  0.8171
16438SOL    HW250756   4.021   1.783   9.854  0.2045 -1.5846  0.3783
16439SOL     OW50757   4.273   7.040   1.941 -0.2150 -0.3160 -0.5854
16439SOL    HW150758   4.238   7.129   1.948  0.2933  0.0047 -1.8203
16439SOL    HW250759   4.314   7.037   1.854  2.9397 -0.5932  0.7859
16440SOL     OW50760   0.100   5.045  12.337  0.0446 -0.2345  0.6504
16440SOL    HW150761   0.030   5.018  12.277 -1.0239  2.4720  0.5646
16440SOL    HW250762   0.088   5.139  12.348  1.7736 -0.2126  3.1624
16441SOL     OW50763   1.339   6.891   3.003  0.1285  0.4185 -0.0655
16441SOL    HW150764   1.381   6.976   3.014 -0.0874  0.5636 -0.3711
16441SOL    HW250765   1.388   6.833   3.061 -1.5988  1.3718  2.5469
16442SOL     OW50766   7.822   1.040  10.977  0.1290  0.2505 -0.3872
16442SOL    HW150767   7.797   1.052  11.069  0.7812  1.4396 -0.3385
16442SOL    HW250768   7.741   1.018  10.932 -0.3427  0.4546  0.3519
16443SOL     OW50769   1.616   1.599   1.157 -0.4804 -0.1866 -0.2412
16443SOL    HW150770   1.555   1.583   1.229 -0.5694 -0.2269 -0.3250
16443SOL    HW250771   1.683   1.656   1.194 -1.1130  0.6958 -0.4211
16444SOL     OW50772   5.216   3.036  11.991  0.5282 -0.0766  0.5398
16444SOL    HW150773   5.180   3.014  12.077 -0.5634 -0.9093 -0.1087
16444SOL    HW250774   5.175   2.974  11.931  1.6260  0.1931 -0.5234
16445SOL     OW50775   1.670   5.457  10.539  0.1856  0.1007 -0.0692
16445SOL    HW150776   1.755   5.447  10.582 -0.1898  0.8949  0.8965
16445SOL    HW250777   1.610   5.403  10.591 -0.0821  0.2844 -0.1857
16446SOL     OW50778   7.782   1.632  10.438  0.5960  0.3740  0.0173
16446SOL    HW150779   7.790   1.663  10.348  0.1217 -0.6049 -0.3856
16446SOL    HW250780   7.694   1.594  10.442  0.7239  0.1408  0.8051
16447SOL     OW50781   4.801   5.606   2.025 -0.4520 -0.2334 -0.0093
16447SOL    HW150782   4.868   5.640   1.966 -0.9760 -0.9819 -1.0608
16447SOL    HW250783   4.733   5.673   2.026  0.0126  0.2482  0.5814
16448SOL     OW50784   1.966   4.796   0.544  0.3329 -0.0341 -0.4468
16448SOL    HW150785   1.910   4.816   0.619 -0.4062 -0.5534 -0.8428
16448SOL    HW250786   2.054   4.816   0.574  0.1464 -0.9577  0.8277
16449SOL     OW50787   5.111   3.193  10.867 -0.1341  0.3767 -0.1229
16449SOL    HW150788   5.186   3.149  10.907 -1.3100  0.9891  3.0627
16449SOL    HW250789   5.065   3.125  10.818  0.3469 -0.9590  1.2221
16450SOL     OW50790   1.692   6.577   5.065  0.4030  0.2030 -0.8054
16450SOL    HW150791   1.621   6.641   5.077  0.8627  0.7198 -0.7845
16450SOL    HW250792   1.728   6.598   4.979  0.5699 -0.0210 -0.7891
16451SOL     OW50793   3.635   3.799   8.911  0.3156  0.1491 -0.4278
16451SOL    HW150794   3.639   3.845   8.827 -2.9152  0.6044 -0.4386
16451SOL    HW250795   3.564   3.736   8.901  0.4941 -0.4704  1.6852
16452SOL     OW50796   3.522   7.555   7.622 -0.8989 -0.4272  0.1397
16452SOL    HW150797   3.551   7.609   7.549 -1.6254  1.6482  1.3114
16452SOL    HW250798   3.594   7.559   7.685 -1.9572  1.4033  1.3267
16453SOL     OW50799   0.717   2.068   6.344 -0.0282  0.2926 -0.0877
16453SOL    HW150800   0.690   2.039   6.257 -0.3684 -0.3095  0.2114
16453SOL    HW250801   0.642   2.116   6.378 -0.0314  0.2186  0.0123
16454SOL     OW50802   0.330   2.471   9.008 -0.0018  0.4507  0.5794
16454SOL    HW150803   0.402   2.412   9.029  0.0269  0.6868  1.1596
16454SOL    HW250804   0.366   2.533   8.944  1.3285  2.5804  3.1796
16455SOL     OW50805   2.175   1.859  11.504  0.0267 -0.3700 -0.0325
16455SOL    HW150806   2.266   1.838  11.526 -0.1529  0.8910  2.2870
16455SOL    HW250807   2.139   1.777  11.472  2.0894 -0.7767 -1.5349
16456SOL     OW50808   6.157   3.301   5.488  0.1948 -0.4607  0.1482
16456SOL    HW150809   6.173   3.331   5.398  0.0257 -2.5774 -0.6318
16456SOL    HW250810   6.150   3.382   5.539  0.3479  0.7905 -1.7229
16457SOL     OW50811   2.437   2.870   6.404  0.0672  0.3126 -0.0994
16457SOL    HW150812   2.377   2.945   6.410  1.6680  1.6501 -0.2881
16457SOL    HW250813   2.404   2.809   6.471 -3.0652 -0.2253 -1.9195
16458SOL     OW50814   2.378   0.445   4.385 -0.7079  0.5738 -0.9164
16458SOL    HW150815   2.439   0.518   4.378 -1.1821  0.9605 -1.0375
16458SOL    HW250816   2.336   0.441   4.299 -1.3432  0.7420 -0.6170
16459SOL     OW50817   5.402   5.692   1.723  0.4120  0.3895 -0.2100
16459SOL    HW150818   5.385   5.727   1.811  2.9830 -0.3999  0.7053
16459SOL    HW250819   5.364   5.756   1.664 -3.8592 -0.3470  1.3556
16460SOL     OW50820   7.130   3.194  10.748 -0.2620  0.2005 -0.2388
16460SOL    HW150821   7.154   3.197  10.840  0.4039 -0.9325 -0.3642
16460SOL    HW250822   7.034   3.186  10.748 -0.3226  0.8237  0.3260
16461SOL     OW50823   0.076   3.799   7.067  0.3139  0.8738 -0.0664
16461SOL    HW150824   0.012   3.836   7.005  0.4527  0.1550 -0.6449
16461SOL    HW250825   0.154   3.852   7.054  1.1846 -0.8234 -2.3603
16462SOL     OW50826   5.653   4.906   5.452  0.0336  0.1522  0.3752
16462SOL    HW150827   5.580   4.914   5.391  0.6031 -0.5941 -0.4266
16462SOL    HW250828   5.612   4.902   5.539 -0.7467  2.0419  0.1423
16463SOL     OW50829   0.352   4.396   6.172 -0.2546 -0.0053  0.3540
16463SOL    HW150830   0.373   4.304   6.184 -1.9441 -0.6187 -0.9593
16463SOL    HW250831   0.303   4.420   6.251 -0.2024 -0.3578  0.4939
16464SOL     OW50832   0.351   7.138  10.395  0.2319  0.0172  0.1074
16464SOL    HW150833   0.297   7.113  10.320  0.7021 -1.6127  0.2705
16464SOL    HW250834   0.438   7.104  10.374  0.3809 -0.4353  1.3576
16465SOL     OW50835   7.771   4.196  11.241 -0.4114  0.2365 -0.2877
16465SOL    HW150836   7.761   4.154  11.155  0.9084 -0.4800 -0.1028
16465SOL    HW250837   7.681   4.215  11.268 -1.2643 -3.6510  0.1887
16466SOL     OW50838   2.380   0.952   1.468 -0.1621  0.2902  0.1838
16466SOL    HW150839   2.368   0.924   1.559  1.3154 -2.0691 -0.2681
16466SOL    HW250840   2.474   0.950   1.454 -0.3707  0.4870 -1.4350
16467SOL     OW50841   2.226   3.151   2.129 -0.1523  0.2787 -0.4406
16467SOL    HW150842   2.161   3.221   2.134  1.7750  2.2243 -0.9837
16467SOL    HW250843   2.210   3.109   2.044 -0.9684  0.4292 -0.3672
16468SOL     OW50844   6.159   4.556   7.248 -0.1354  0.0910  0.4250
16468SOL    HW150845   6.130   4.618   7.182  0.4111  1.9435  1.8329
16468SOL    HW250846   6.217   4.496   7.201 -1.4977 -0.0322 -1.1825
16469SOL     OW50847   2.817   0.238   6.466  0.1389 -0.2679 -0.3679
16469SOL    HW150848   2.837   0.161   6.519 -0.3848 -0.0869  0.0985
16469SOL    HW250849   2.723   0.230   6.446  0.0886  0.2322 -0.3415
16470SOL     OW50850   5.627   1.527   7.547  0.6468  0.2618  0.1796
16470SOL    HW150851   5.588   1.483   7.471  1.6980 -0.8547  0.2583
16470SOL    HW250852   5.658   1.611   7.514  1.7040 -0.4891 -0.8131
16471SOL     OW50853   2.913   3.326   0.680 -0.3931 -0.3607  0.8594
16471SOL    HW150854   2.989   3.268   0.684  0.9087  1.1648 -0.1640
16471SOL    HW250855   2.854   3.285   0.617  1.3562  0.2645 -1.3314
16472SOL     OW50856   7.438   7.519  11.011  0.2719  0.3133  1.1706
16472SOL    HW150857   7.375   7.447  11.019 -2.4715  2.3598 -0.2664
16472SOL    HW250858   7.512   7.482  10.964 -1.0130 -1.6123  0.5599
16473SOL     OW50859   2.391   5.323   3.823  0.0964  0.0048  0.2234
16473SOL    HW150860   2.415   5.358   3.737 -0.2570 -0.8802 -0.2452
16473SOL    HW250861   2.438   5.379   3.885 -2.6889  3.2892 -0.3105
16474SOL     OW50862   3.103   4.863   9.395 -0.0482  0.3859  0.3107
16474SOL    HW150863   3.107   4.951   9.431  1.8198  0.0043  1.1591
16474SOL    HW250864   3.190   4.826   9.411 -0.4705 -1.2774 -0.8967
16475SOL     OW50865   0.555   0.236   1.225  0.1483 -0.8479  0.4021
16475SOL    HW150866   0.621   0.305   1.224 -1.2841  0.5922  0.5898
16475SOL    HW250867   0.475   0.280   1.254 -0.7564 -2.6664  0.8218
16476SOL     OW50868   4.643   0.996   9.486 -0.4126  0.1397  0.1090
16476SOL    HW150869   4.612   0.956   9.405  0.5995  1.2960 -0.9043
16476SOL    HW250870   4.642   1.090   9.467 -1.5955  0.5536  1.9865
16477SOL     OW50871   7.301   0.576   3.098 -0.1855 -0.2551 -0.3701
16477SOL    HW150872   7.242   0.644   3.128 -0.9739 -1.3033  0.5227
16477SOL    HW250873   7.376   0.623   3.060  0.0861  1.1199  1.7459
16478SOL     OW50874   7.242   5.258   8.268  0.1752  0.1610  0.0073
16478SOL    HW150875   7.254   5.272   8.174  0.8745 -1.5581 -0.1904
16478SOL    HW250876   7.156   5.217   8.276  0.3060 -0.1044  0.0666
16479SOL     OW50877   3.488   7.008   3.762 -0.0175 -0.0417  0.0862
16479SOL    HW150878   3.434   7.014   3.841 -0.2668 -0.5626 -0.0391
16479SOL    HW250879   3.428   7.027   3.691  0.1193  0.0444 -0.0057
16480SOL     OW50880   6.885   7.597   2.677  0.0040 -0.4865 -0.0881
16480SOL    HW150881   6.810   7.553   2.638  0.0929 -0.4558 -0.2912
16480SOL    HW250882   6.937   7.628   2.603 -0.1836  0.1760  0.0510
16481SOL     OW50883   1.491   4.644   4.103 -0.6597  0.1366  0.2255
16481SOL    HW150884   1.551   4.711   4.135 -2.2085  1.5091  0.4040
16481SOL    HW250885   1.405   4.670   4.136 -1.2798 -2.2021  0.6847
16482SOL     OW50886   1.274   1.626   1.844 -0.2914 -0.0241  0.3776
16482SOL    HW150887   1.215   1.698   1.821  0.6369  0.5536 -0.2132
16482SOL    HW250888   1.356   1.646   1.799 -1.1572 -3.5257 -3.2819
16483SOL     OW50889   4.259   3.955  10.052  0.0881  0.5021  0.7883
16483SOL    HW150890   4.204   3.901   9.996  0.3430  0.3456  0.6836
16483SOL    HW250891   4.347   3.947  10.014  0.2168  0.5960  1.0579
16484SOL     OW50892   0.254   1.262  10.837 -0.1535 -0.1171 -0.0308
16484SOL    HW150893   0.350   1.258  10.830  0.0188 -0.7861  1.9867
16484SOL    HW250894   0.232   1.353  10.817  0.9898  0.2491  0.3153
16485SOL     OW50895   2.797   7.526   4.044  0.3087  0.2737 -0.1162
16485SOL    HW150896   2.721   7.478   4.009 -0.1969 -0.0798  1.3998
16485SOL    HW250897   2.870   7.464   4.036 -0.0134 -0.1739  0.3775
16486SOL     OW50898   0.292   6.384   1.082  0.1467 -0.0720 -0.3243
16486SOL    HW150899   0.345   6.431   1.019 -0.8365  0.4125 -0.8127
16486SOL    HW250900   0.298   6.436   1.162  0.2544  0.0824 -0.4333
16487SOL     OW50901   6.457   7.721   2.769 -0.4739 -0.5763 -0.4012
16487SOL    HW150902   6.389   7.732   2.703 -0.8346 -0.1939  0.0327
16487SOL    HW250903   6.454   7.627   2.791 -1.3377 -0.4315  0.1221
16488SOL     OW50904   2.896   4.481   4.767  0.0273 -0.0785  0.2122
16488SOL    HW150905   2.855   4.395   4.761 -1.2223  0.2642  2.6809
16488SOL    HW250906   2.982   4.465   4.805 -0.5415 -0.1963  1.4947
16489SOL     OW50907   2.696   7.857   0.155 -0.7613 -0.6303 -0.4859
16489SOL    HW150908   2.654   7.832   0.073 -2.0972 -3.0329  0.8011
16489SOL    HW250909   2.655   7.801   0.221 -0.1600  1.5815  1.9515
16490SOL     OW50910   4.374   7.092   3.397 -0.1136 -0.4702  0.5594
16490SOL    HW150911   4.374   7.173   3.347  1.4710  0.2045  1.5585
16490SOL    HW250912   4.387   7.120   3.488 -1.1977 -1.7530  1.1462
16491SOL     OW50913   7.405   3.995   0.371  0.3474  0.4841 -0.1354
16491SOL    HW150914   7.374   4.082   0.346 -1.3043  0.3914  1.4195
16491SOL    HW250915   7.326   3.947   0.397  1.3025 -1.2531 -0.2687
16492SOL     OW50916   1.026   2.863   0.882  0.4322  0.3601 -0.0034
16492SOL    HW150917   0.954   2.854   0.819 -0.6222 -0.1874  1.2399
16492SOL    HW250918   1.103   2.833   0.834 -0.3315  0.0105 -1.0584
16493SOL     OW50919   4.777   6.302   2.062 -0.1227  0.0907 -0.6161
16493SOL    HW150920   4.855   6.307   2.119  2.6039 -2.0551 -3.7961
16493SOL    HW250921   4.730   6.225   2.093  0.9343 -0.6293 -0.7397
16494SOL     OW50922   0.144   5.545  10.634  0.1808 -0.2086 -0.5350
16494SOL    HW150923   0.138   5.452  10.654  1.0088 -0.4552 -1.3737
16494SOL    HW250924   0.235   5.558  10.608 -0.0278  0.7591 -0.8125
16495SOL     OW50925   4.211   2.220   0.623  0.2597 -0.1579 -0.1704
16495SOL    HW150926   4.202   2.315   0.630  0.2505 -0.2378  1.1346
16495SOL    HW250927   4.281   2.198   0.684 -0.1893 -1.0566  0.0365
16496SOL     OW50928   7.746   6.780   9.860  0.2716  0.3180 -0.5930
16496SOL    HW150929   7.841   6.782   9.874  0.5265  2.6983 -2.2096
16496SOL    HW250930   7.729   6.691   9.828  2.1641  0.2275 -1.4779
16497SOL     OW50931   7.584   5.105   2.762  0.4520  0.6527 -0.8654
16497SOL    HW150932   7.568   5.137   2.674 -0.8671  1.3164 -0.4035
16497SOL    HW250933   7.516   5.038   2.776  0.1589  1.1035 -0.0830
16498SOL     OW50934   2.887   6.413   1.045 -0.5134  0.0748  0.2940
16498SOL    HW150935   2.867   6.389   1.135  0.9749 -2.8942 -0.0205
16498SOL    HW250936   2.982   6.427   1.045 -0.7231  1.7323 -0.5348
16499SOL     OW50937   2.932   3.081   4.008 -0.1738  0.5674  0.6196
16499SOL    HW150938   2.854   3.094   3.954 -0.2595  0.5740  0.7459
16499SOL    HW250939   2.988   3.156   3.987  0.0575  0.2482  0.0782
16500SOL     OW50940   6.452   7.764   0.091  0.5836 -0.6167 -0.0227
16500SOL    HW150941   6.416   7.676   0.081  0.5665 -0.4582 -1.6180
16500SOL    HW250942   6.445   7.803   0.004 -0.1762  1.2733  0.8355
16501SOL     OW50943   1.476   0.663   4.988  0.5199  0.2923  0.2023
16501SOL    HW150944   1.536   0.646   5.061 -1.1098 -0.1913  1.4904
16501SOL    HW250945   1.448   0.576   4.960  0.2334  0.5227 -0.2295
16502SOL     OW50946   7.247   6.093   8.493 -0.6772 -0.5191  0.5421
16502SOL    HW150947   7.255   6.091   8.588 -1.6890  0.5668  0.6778
16502SOL    HW250948   7.269   6.184   8.469  1.1216 -1.1560 -0.4368
16503SOL     OW50949   5.521   6.847   6.057  0.2738  0.2724 -0.1437
16503SOL    HW150950   5.608   6.877   6.031 -0.2247 -0.0923 -2.4873
16503SOL    HW250951   5.487   6.916   6.114  3.4746 -1.2924  4.1790
16504SOL     OW50952   3.695   7.290   2.246  0.0811  0.3506 -0.3970
16504SOL    HW150953   3.690   7.293   2.342 -2.5436  3.2775 -0.4467
16504SOL    HW250954   3.775   7.336   2.225 -0.2551  1.3442  0.4143
16505SOL     OW50955   7.547   0.562   1.378  0.3191  0.0964 -0.2478
16505SOL    HW150956   7.474   0.501   1.374 -0.7848  1.4304 -2.4599
16505SOL    HW250957   7.617   0.513   1.421 -0.8325 -2.3722 -0.9941
16506SOL     OW50958   5.140   6.397  11.293  0.1996  0.6364  0.1328
16506SOL    HW150959   5.176   6.445  11.368  0.4181  0.9225 -0.1515
16506SOL    HW250960   5.074   6.455  11.256  0.9380  1.0216 -0.6208
16507SOL     OW50961   2.151   0.793   2.187  0.5413  0.1965  0.5635
16507SOL    HW150962   2.160   0.884   2.157  0.8758 -0.1047 -0.2765
16507SOL    HW250963   2.224   0.780   2.248  0.7966  0.3351  0.2882
16508SOL     OW50964   4.756   2.228   0.156 -0.1352  0.3381  0.0853
16508SOL    HW150965   4.816   2.302   0.152 -1.1256  1.1000 -1.4136
16508SOL    HW250966   4.795   2.163   0.097 -0.6674  0.7869 -0.7941
16509SOL     OW50967   7.524   4.884  12.247  0.3628  0.2086  0.4977
16509SOL    HW150968   7.530   4.795  12.281  0.9690  0.4405  1.0273
16509SOL    HW250969   7.579   4.936  12.306  0.1453  0.9045  0.1019
16510SOL     OW50970   4.488   2.375   0.718  0.0411  0.2752  0.3148
16510SOL    HW150971   4.406   2.395   0.672  0.1212  1.9205  0.8293
16510SOL    HW250972   4.460   2.331   0.798 -0.3455  0.7923  0.4678
16511SOL     OW50973   3.912   3.445   4.244 -0.0568 -0.4559  0.3385
16511SOL    HW150974   3.900   3.398   4.161  0.2312  1.3471 -0.7889
16511SOL    HW250975   3.837   3.418   4.297 -0.1250 -1.8339 -0.3990
16512SOL     OW50976   6.595   1.073   0.911  0.8948  0.1038 -0.3808
16512SOL    HW150977   6.662   1.022   0.956  0.5523  0.7726  0.9461
16512SOL    HW250978   6.594   1.039   0.821  0.7883 -2.0834  0.3958
16513SOL     OW50979   0.884   3.672   5.774  0.4623  0.1314 -0.0773
16513SOL    HW150980   0.891   3.758   5.816  2.1289 -0.5567  1.1816
16513SOL    HW250981   0.969   3.660   5.731  0.1249 -0.7481 -0.5232
16514SOL     OW50982   3.056   3.050   2.969  0.0177 -0.4421  0.1327
16514SOL    HW150983   3.098   2.989   2.908 -1.5000  0.3850 -1.8742
16514SOL    HW250984   2.997   2.995   3.022  0.1538 -0.9755 -0.2612
16515SOL     OW50985   4.714   4.172   0.623  0.1395 -0.0602  0.2205
16515SOL    HW150986   4.661   4.250   0.604  0.8109  0.1550 -0.8257
16515SOL    HW250987   4.665   4.126   0.691  0.1028  1.6546  1.4163
16516SOL     OW50988   7.089   4.041   3.712 -0.8613  0.0968  0.5640
16516SOL    HW150989   7.081   4.025   3.617 -1.0081 -0.5845  0.6869
16516SOL    HW250990   7.103   4.135   3.719 -1.4286  0.2433 -0.1125
16517SOL     OW50991   5.321   2.734   8.122  0.4623  0.1828  0.2282
16517SOL    HW150992   5.309   2.823   8.090  1.0828 -0.4937 -2.0568
16517SOL    HW250993   5.331   2.681   8.043 -0.0047 -1.9481  1.5094
16518SOL     OW50994   6.183   1.739  11.928 -0.0261  0.3316  0.1803
16518SOL    HW150995   6.224   1.662  11.889  0.5955  0.4299  0.6040
16518SOL    HW250996   6.193   1.808  11.863 -3.1531 -0.5787 -1.4537
16519SOL     OW50997   2.125   5.130   1.365 -0.1090  0.0784 -0.1774
16519SOL    HW150998   2.081   5.207   1.402  1.5833  1.1457 -0.2521
16519SOL    HW250999   2.106   5.134   1.271  2.0654  1.9524 -0.6121
16520SOL     OW51000   7.524   3.600   2.094  0.8921  0.6641 -0.5783
16520SOL    HW151001   7.608   3.647   2.097  1.3966 -0.2557 -0.0122
16520SOL    HW251002   7.526   3.555   2.009  1.0356  0.5293 -0.5040
16521SOL     OW51003   7.697   3.375   2.229 -0.3426 -0.4083  0.5590
16521SOL    HW151004   7.657   3.446   2.180  0.7405 -0.4246 -0.4013
16521SOL    HW251005   7.788   3.373   2.199 -0.2058 -1.8334  0.9804
16522SOL     OW51006   6.182   6.870   6.728  0.2241  0.4834 -0.0221
16522SOL    HW151007   6.168   6.781   6.694  0.2657 -0.4516  2.2154
16522SOL    HW251008   6.096   6.911   6.722  0.3332  0.5202 -1.6238
16523SOL     OW51009   7.826   1.689   2.515 -0.6985  0.2458 -0.0309
16523SOL    HW151010   7.762   1.634   2.561  2.2333 -3.9728 -0.3640
16523SOL    HW251011   7.827   1.653   2.426  3.2928 -1.2870  0.4523
16524SOL     OW51012   7.961   5.904  10.394 -0.1327 -0.1940  0.0840
16524SOL    HW151013   7.992   5.825  10.350  0.0943  0.1090 -0.3067
16524SOL    HW251014   8.011   5.907  10.476  2.5818  1.4293 -1.4711
16525SOL     OW51015   5.846   3.633   6.287  0.4574 -0.5114  0.3982
16525SOL    HW151016   5.854   3.705   6.349  2.3786  1.0684 -1.5186
16525SOL    HW251017   5.759   3.645   6.247  1.2227  1.6197 -0.7925
16526SOL     OW51018   2.782   6.823  11.923 -0.0270  0.5221 -0.3197
16526SOL    HW151019   2.858   6.871  11.956  1.0992 -0.4120 -1.4398
16526SOL    HW251020   2.783   6.838  11.829 -0.3850 -0.6433 -0.5300
16527SOL     OW51021   6.086   1.156  12.005  0.5772 -0.0175  0.2263
16527SOL    HW151022   6.074   1.207  11.924 -0.0747  1.8976  1.4644
16527SOL    HW251023   6.173   1.183  12.037 -0.5158  1.8533  1.8463
16528SOL     OW51024   4.427   6.831   9.397 -0.0043  0.3672 -0.5697
16528SOL    HW151025   4.435   6.841   9.491  0.2402 -0.4573 -0.4966
16528SOL    HW251026   4.398   6.918   9.366  2.1551  1.3453 -0.0305
16529SOL     OW51027   4.537   5.718   4.504  0.0759 -0.4299 -0.0672
16529SOL    HW151028   4.617   5.670   4.480 -0.0254 -0.4066 -0.4697
16529SOL    HW251029   4.545   5.733   4.598  1.1813  0.7363 -0.3142
16530SOL     OW51030   7.734   5.412   8.103  0.0590 -0.3912  0.3459
16530SOL    HW151031   7.824   5.443   8.094  0.0105 -0.1482  0.6902
16530SOL    HW251032   7.699   5.415   8.014  0.2349 -0.0082  0.2868
16531SOL     OW51033   0.595   7.075   8.099  0.1221  0.1418 -0.0450
16531SOL    HW151034   0.657   7.036   8.037  0.7365  0.6877  0.2165
16531SOL    HW251035   0.524   7.011   8.105 -0.1513  0.2464 -1.6192
16532SOL     OW51036   3.787   6.613   2.155  0.3122  0.4928 -0.0907
16532SOL    HW151037   3.847   6.610   2.230  2.5359 -2.8518 -1.7626
16532SOL    HW251038   3.722   6.546   2.174 -0.9816  1.7876  0.1819
16533SOL     OW51039   7.107   5.403   6.356 -0.1698 -0.0829  0.0224
16533SOL    HW151040   7.059   5.470   6.308 -1.0934  0.0923  1.1409
16533SOL    HW251041   7.095   5.323   6.306  0.8467  0.5315 -1.2696
16534SOL     OW51042   2.463   5.884   3.638  0.3944 -0.2375  0.0564
16534SOL    HW151043   2.495   5.822   3.573  2.5867 -1.7665  2.3898
16534SOL    HW251044   2.451   5.832   3.717 -0.2140  1.8716  1.4483
16535SOL     OW51045   7.857   2.176   9.818  0.0270  0.5203 -0.0711
16535SOL    HW151046   7.816   2.143   9.738  3.0754 -2.8543 -0.5049
16535SOL    HW251047   7.939   2.216   9.788  0.4093  0.7503  1.2160
16536SOL     OW51048   3.600   3.432   2.703 -0.5582 -0.4941 -0.4514
16536SOL    HW151049   3.509   3.458   2.687 -0.7109 -1.1309 -0.6710
16536SOL    HW251050   3.650   3.473   2.633 -0.6632 -0.0792 -0.2854
16537SOL     OW51051   6.611   7.498   3.814  0.3604  0.6171  0.2210
16537SOL    HW151052   6.553   7.529   3.744 -0.1987  0.5344  0.6408
16537SOL    HW251053   6.594   7.404   3.821  0.4169  0.6218  0.4570
16538SOL     OW51054   2.392   3.362   1.512  0.4674 -0.0591  0.1176
16538SOL    HW151055   2.312   3.361   1.459 -0.9943 -2.0440  2.1939
16538SOL    HW251056   2.458   3.322   1.455 -0.9005 -1.5775 -0.5137
16539SOL     OW51057   7.675   6.465   7.979 -0.1918  0.6580  0.1972
16539SOL    HW151058   7.630   6.467   7.894 -0.5108 -3.1451  0.0836
16539SOL    HW251059   7.767   6.475   7.957 -0.4566  2.4749 -0.2366
16540SOL     OW51060   3.326   0.836  12.343  0.1085 -0.2494 -0.3513
16540SOL    HW151061   3.315   0.905  12.409 -1.5213  0.2011 -1.0325
16540SOL    HW251062   3.353   0.759  12.392  0.7016  0.5394  0.5958
16541SOL     OW51063   4.130   1.842   4.557 -0.0305 -0.1762 -0.5001
16541SOL    HW151064   4.162   1.861   4.645  1.8116 -1.3350 -0.8546
16541SOL    HW251065   4.177   1.903   4.500 -0.0273 -0.4828 -0.8305
16542SOL     OW51066   7.187   4.351   1.227  0.0358  0.1431 -0.5744
16542SOL    HW151067   7.128   4.276   1.237 -1.7359  1.5684  0.0331
16542SOL    HW251068   7.147   4.421   1.278  2.6264  1.0159  0.4596
16543SOL     OW51069   3.308   1.811  12.262  0.2223 -0.3443 -0.3486
16543SOL    HW151070   3.263   1.727  12.261 -0.0310 -0.2100 -0.3546
16543SOL    HW251071   3.299   1.845  12.173 -1.1524  0.4577  0.0576
16544SOL     OW51072   2.683   4.229  12.356 -0.5801 -0.6312 -0.1934
16544SOL    HW151073   2.769   4.270  12.370 -0.3930 -0.8281 -0.7497
16544SOL    HW251074   2.702   4.135  12.353 -0.8369 -0.6818 -0.1851
16545SOL     OW51075   0.024   6.331   7.719 -0.1014 -0.2768  0.4897
16545SOL    HW151076  -0.051   6.286   7.679  0.4006 -0.0664 -0.7099
16545SOL    HW251077   0.062   6.382   7.648  0.3146  0.7752  1.4438
16546SOL     OW51078   5.842   1.642   6.800  0.2321 -1.0253  0.0176
16546SOL    HW151079   5.913   1.700   6.829  0.3235 -0.2633 -1.6423
16546SOL    HW251080   5.832   1.661   6.707 -0.6259 -2.7668 -0.2839
16547SOL     OW51081   5.466   0.930   7.296 -0.0017 -0.0741 -0.1821
16547SOL    HW151082   5.503   1.019   7.294  1.5768 -0.6563  0.7455
16547SOL    HW251083   5.511   0.888   7.369 -2.1587 -1.0633  0.6419
16548SOL     OW51084   0.401   1.482   4.256  0.2805  0.2089 -1.0958
16548SOL    HW151085   0.323   1.432   4.233 -0.0908  0.0362  0.4272
16548SOL    HW251086   0.462   1.467   4.183 -0.5336 -0.9076 -1.5668
16549SOL     OW51087   6.777   2.188   5.562 -0.1147  0.8190  0.1294
16549SOL    HW151088   6.846   2.129   5.532  0.4290  1.5492 -0.0853
16549SOL    HW251089   6.769   2.169   5.656 -0.5185 -0.1541 -0.0815
16550SOL     OW51090   4.766   2.723   0.994  0.2975  0.0380  0.1650
16550SOL    HW151091   4.806   2.642   1.025  1.2891  0.2881 -0.4164
16550SOL    HW251092   4.732   2.765   1.073  0.5542 -0.5246  0.5786
16551SOL     OW51093   1.193   4.313   4.688  0.5420  0.1151 -0.1282
16551SOL    HW151094   1.238   4.350   4.764  0.6264  0.1634 -0.2020
16551SOL    HW251095   1.100   4.329   4.705  0.6559  2.1548 -1.0869
16552SOL     OW51096   4.781   6.199   9.011  0.0283 -0.5557 -0.3146
16552SOL    HW151097   4.760   6.248   9.091  0.8265  1.3295 -1.1992
16552SOL    HW251098   4.800   6.110   9.041  1.3555  0.3603  1.7340
16553SOL     OW51099   5.199   4.964   0.747 -0.1922  0.3881 -0.9092
16553SOL    HW151100   5.196   4.983   0.840 -0.4941  0.5909 -0.9596
16553SOL    HW251101   5.194   4.869   0.741  2.1834  0.1849 -0.6061
16554SOL     OW51102   4.599   7.388   6.224  0.1401 -0.2834 -0.4370
16554SOL    HW151103   4.643   7.343   6.152  0.1836 -0.5784 -0.2286
16554SOL    HW251104   4.544   7.454   6.181 -1.5370 -1.8852 -0.8887
16555SOL     OW51105   5.373   2.084   6.787 -0.5585  0.0212 -0.1395
16555SOL    HW151106   5.295   2.134   6.762  0.0121  0.9601 -0.0804
16555SOL    HW251107   5.387   2.107   6.879 -0.3146 -0.2763 -0.1036
16556SOL     OW51108   2.997   7.750   5.924  0.2950  0.8605  0.2863
16556SOL    HW151109   2.974   7.832   5.968  0.1099  0.6788  0.5321
16556SOL    HW251110   3.023   7.776   5.836 -0.8079  1.0861  0.0144
16557SOL     OW51111   0.311   6.745   5.586 -0.4392 -0.3635 -0.1671
16557SOL    HW151112   0.359   6.665   5.562 -0.3879  0.0116 -1.4148
16557SOL    HW251113   0.245   6.716   5.648  1.1219 -0.9640  1.2867
16558SOL     OW51114   0.447   0.644   6.953  0.1315  0.8556 -0.6750
16558SOL    HW151115   0.422   0.590   7.028  2.0724  0.4308 -0.2669
16558SOL    HW251116   0.499   0.715   6.991  1.2181  0.5876 -1.6053
16559SOL     OW51117   0.270   3.985   2.348 -0.1870  0.4189 -0.0681
16559SOL    HW151118   0.187   3.943   2.371  0.7568 -1.3517  0.2657
16559SOL    HW251119   0.277   3.973   2.253 -0.5353  1.0493 -0.1838
16560SOL     OW51120   5.346   4.311   0.146 -0.0099  0.5981  0.1298
16560SOL    HW151121   5.330   4.315   0.052  0.8072  2.0363  0.0256
16560SOL    HW251122   5.405   4.384   0.164  1.8345 -1.0953  1.3757
16561SOL     OW51123   0.784   3.539  12.132  0.2095 -0.2102 -0.3755
16561SOL    HW151124   0.823   3.486  12.202  1.1917  0.2886 -0.5232
16561SOL    HW251125   0.849   3.537  12.062  0.2196  1.0786 -0.4283
16562SOL     OW51126   2.171   2.232   2.184 -0.0609 -0.0473 -0.6100
16562SOL    HW151127   2.096   2.249   2.242 -2.2931 -1.3138 -2.9102
16562SOL    HW251128   2.177   2.309   2.128 -0.6222 -0.5243 -1.3537
16563SOL     OW51129   1.579   3.328   5.534 -0.4067 -0.3272  0.2144
16563SOL    HW151130   1.484   3.328   5.547 -0.3529  1.9794  1.0220
16563SOL    HW251131   1.615   3.315   5.622  0.0279 -0.0216  0.0834
16564SOL     OW51132   2.903   7.766  10.005 -0.6811  0.3382  0.8667
16564SOL    HW151133   2.992   7.800  10.010  0.7310 -2.9684  1.0446
16564SOL    HW251134   2.867   7.779  10.092 -0.5020  1.8599  0.7461
16565SOL     OW51135   5.068   7.757   8.684  0.3951  0.0868 -0.4738
16565SOL    HW151136   5.117   7.752   8.602  2.3500  1.9378  0.4875
16565SOL    HW251137   5.095   7.840   8.724 -0.8829 -0.4962  1.8159
16566SOL     OW51138   7.372   5.735   2.158  0.5211 -0.3052  0.2793
16566SOL    HW151139   7.283   5.735   2.122  0.2503  0.8325  0.9024
16566SOL    HW251140   7.364   5.779   2.243  1.5634 -0.8057  0.6610
16567SOL     OW51141   1.298   2.408   8.274  0.5791  0.2930  0.2511
16567SOL    HW151142   1.275   2.445   8.189 -0.6182 -0.4433  0.2244
16567SOL    HW251143   1.385   2.369   8.261  0.3569  0.0908 -0.6687
16568SOL     OW51144   6.250   0.663   3.535  0.0591 -0.5063 -0.0221
16568SOL    HW151145   6.258   0.575   3.497  0.9871 -0.4174 -0.0493
16568SOL    HW251146   6.196   0.711   3.473 -0.0788 -0.9229 -0.2330
16569SOL     OW51147   0.508   3.228   6.185  0.0096 -0.1450  0.0520
16569SOL    HW151148   0.464   3.143   6.180 -0.4594 -0.0568  1.8345
16569SOL    HW251149   0.437   3.292   6.193  0.3843  0.2504  0.2748
16570SOL     OW51150   7.733   5.209  11.702 -0.4718  0.4147  0.0423
16570SOL    HW151151   7.731   5.120  11.736  1.1088 -0.3714 -1.7303
16570SOL    HW251152   7.670   5.209  11.630  0.2771  0.3841 -0.6334
16571SOL     OW51153   6.226   3.961   2.202 -0.3495 -0.0005 -0.7322
16571SOL    HW151154   6.305   4.004   2.171  0.1767 -0.0500  0.5074
16571SOL    HW251155   6.202   3.901   2.131 -0.1119  1.0530 -1.7255
16572SOL     OW51156   6.979   6.509   7.566  0.0145  0.1472 -0.3439
16572SOL    HW151157   7.013   6.428   7.527 -1.1072 -1.7881  2.4078
16572SOL    HW251158   7.053   6.569   7.564  1.3139 -1.4025 -1.2664
16573SOL     OW51159   0.327   0.958   8.008 -0.0028 -0.1503  0.2369
16573SOL    HW151160   0.327   0.920   7.921 -1.1777 -1.4808  0.7993
16573SOL    HW251161   0.281   1.041   7.998 -0.6196 -0.5534 -0.3033
16574SOL     OW51162   6.651   4.824   8.784 -0.7208  0.1907 -0.0687
16574SOL    HW151163   6.687   4.793   8.701  0.2223 -0.3216  0.5269
16574SOL    HW251164   6.716   4.886   8.817 -0.8615  0.0248  0.5323
16575SOL     OW51165   0.137   1.756   9.284  0.0830 -0.2663  0.1862
16575SOL    HW151166   0.089   1.717   9.356  0.7520  0.7328  1.2062
16575SOL    HW251167   0.156   1.683   9.225 -1.6668 -0.8556  0.3200
16576SOL     OW51168   1.462   3.231   2.867  0.1202 -0.0454  0.1361
16576SOL    HW151169   1.531   3.217   2.932 -0.6513  0.4690  1.0938
16576SOL    HW251170   1.380   3.221   2.916 -0.4856  0.6875 -0.6926
16577SOL     OW51171   2.823   0.286  12.059  0.4219 -0.2095 -0.3636
16577SOL    HW151172   2.859   0.349  11.996 -0.9702 -0.8507 -1.8795
16577SOL    HW251173   2.751   0.333  12.101  0.4857 -0.2236 -0.2404
16578SOL     OW51174   2.628   6.769   3.165  0.1606 -0.4139 -0.2866
16578SOL    HW151175   2.718   6.786   3.193  0.9369 -2.0972 -1.5670
16578SOL    HW251176   2.615   6.676   3.181 -1.1046 -0.3554 -0.8391
16579SOL     OW51177   7.563   7.937   5.037 -0.7498  0.2394  0.1000
16579SOL    HW151178   7.545   7.965   4.947 -0.5955  0.1408  0.0374
16579SOL    HW251179   7.650   7.897   5.033 -1.5020 -1.4548 -0.0658
16580SOL     OW51180   4.245   0.326   7.310 -0.7490  0.0904 -0.1189
16580SOL    HW151181   4.340   0.326   7.317 -0.7719  0.3329  0.2037
16580SOL    HW251182   4.221   0.418   7.303 -0.9847  0.0568  0.1886
16581SOL     OW51183   2.255   5.847   9.800  0.1245  0.1401 -0.6571
16581SOL    HW151184   2.234   5.845   9.706 -0.6528  0.0020 -0.4904
16581SOL    HW251185   2.197   5.915   9.835 -1.0152 -1.1480  0.0424
16582SOL     OW51186   5.092   6.388   2.888 -0.0570  0.0915  0.3182
16582SOL    HW151187   5.016   6.424   2.843  0.0737  0.1213  0.1209
16582SOL    HW251188   5.071   6.395   2.981  0.2309  1.2534  0.3100
16583SOL     OW51189   0.910   5.471   7.959  0.1448 -0.0052 -0.3735
16583SOL    HW151190   0.852   5.528   8.010 -0.6552  0.1288 -1.3996
16583SOL    HW251191   0.975   5.531   7.923 -0.0796  0.1022 -0.6020
16584SOL     OW51192   1.773   2.309   7.853 -0.0673  0.1651 -0.4139
16584SOL    HW151193   1.825   2.239   7.893 -0.7537 -0.1261 -0.0002
16584SOL    HW251194   1.785   2.297   7.759 -0.0886 -0.4480 -0.3452
16585SOL     OW51195   6.907   4.657  10.658 -0.2448  0.0822 -0.5800
16585SOL    HW151196   6.932   4.747  10.678 -0.4992  0.8249 -3.2945
16585SOL    HW251197   6.835   4.665  10.597 -0.3891 -1.9939 -0.7494
16586SOL     OW51198   7.543   7.740   8.610  0.3429 -0.5606  0.0723
16586SOL    HW151199   7.478   7.793   8.656 -1.2540 -1.0654 -1.4626
16586SOL    HW251200   7.537   7.654   8.651 -0.9516 -0.9605 -0.8769
16587SOL     OW51201   4.311   7.861   4.065  0.0190  0.0905 -0.8992
16587SOL    HW151202   4.302   7.898   4.152  0.2107  0.2259 -0.9375
16587SOL    HW251203   4.312   7.936   4.006  2.3312  0.1700 -0.8373
16588SOL     OW51204   3.192   1.288   4.919  0.0928  0.0444  0.5741
16588SOL    HW151205   3.124   1.307   4.984  0.1816  0.7995  0.4576
16588SOL    HW251206   3.229   1.374   4.897  0.9693 -0.3383  0.5035
16589SOL     OW51207   0.298   1.443   5.602  0.0833  0.4809  0.1795
16589SOL    HW151208   0.204   1.452   5.585  0.4833  1.9813 -1.5451
16589SOL    HW251209   0.317   1.511   5.667  0.2219  1.1767 -0.5798
16590SOL     OW51210   0.956   2.317   2.667  0.1035 -0.4875 -0.4241
16590SOL    HW151211   0.991   2.239   2.710 -0.7141  0.1705  1.5628
16590SOL    HW251212   0.970   2.388   2.730 -0.8701  0.6159 -1.3928
16591SOL     OW51213   5.925   2.223   1.471 -0.4344 -0.0032  0.3978
16591SOL    HW151214   5.887   2.168   1.403  0.2630  0.3510 -0.2878
16591SOL    HW251215   5.932   2.310   1.432 -0.0465  0.2105  0.9263
16592SOL     OW51216   6.345   2.113   7.212 -0.2059 -0.3341  0.1074
16592SOL    HW151217   6.418   2.121   7.273  0.5315 -1.1663 -0.6250
16592SOL    HW251218   6.376   2.156   7.132 -0.3296 -1.0680 -0.3516
16593SOL     OW51219   6.180   4.242   8.887  0.0766 -0.3800 -0.5771
16593SOL    HW151220   6.197   4.332   8.859 -0.0835 -0.2921 -0.3938
16593SOL    HW251221   6.112   4.212   8.827 -0.0075 -0.3129 -0.5168
16594SOL     OW51222   1.147   5.096   0.309 -0.3993  0.3369 -0.0985
16594SOL    HW151223   1.221   5.098   0.369  0.6936 -0.2608 -1.3720
16594SOL    HW251224   1.166   5.163   0.244  0.8479 -2.0893 -2.4221
16595SOL     OW51225   0.645   6.444   7.686 -0.3320 -0.1678 -0.1698
16595SOL    HW151226   0.669   6.494   7.764  2.0042 -0.2493 -0.7758
16595SOL    HW251227   0.664   6.353   7.708  0.0291 -0.2289 -0.7045
16596SOL     OW51228   4.804   7.091  11.770  0.6176 -0.4266 -0.4640
16596SOL    HW151229   4.793   7.077  11.864 -0.7347  1.3082 -0.3104
16596SOL    HW251230   4.897   7.076  11.754  1.1867  0.7228  1.4632
16597SOL     OW51231   1.051   2.805   8.908  0.0554  0.0702  0.1863
16597SOL    HW151232   1.013   2.850   8.984  0.0340  0.5426 -0.1026
16597SOL    HW251233   1.004   2.722   8.904  0.8586 -0.4650  1.3862
16598SOL     OW51234   0.336   4.795   0.366 -0.6028  0.0390  0.2079
16598SOL    HW151235   0.414   4.823   0.415  1.8239  0.9549 -3.7137
16598SOL    HW251236   0.330   4.701   0.383 -0.5654  0.4512  2.9445
16599SOL     OW51237   7.371   1.677  11.574  0.3280 -0.4160 -0.3090
16599SOL    HW151238   7.308   1.652  11.642 -0.6536  1.0488 -0.6328
16599SOL    HW251239   7.398   1.594  11.535 -0.8470 -1.1272  0.3327
16600SOL     OW51240   5.451   7.285   9.501 -0.1140 -0.2255  0.0978
16600SOL    HW151241   5.444   7.334   9.583  0.7845 -1.5995  1.0296
16600SOL    HW251242   5.361   7.259   9.481 -0.3637  0.3027  0.5226
16601SOL     OW51243   4.886   4.801   5.081 -0.4704 -0.5220  0.4819
16601SOL    HW151244   4.914   4.710   5.075 -2.2867 -1.0341 -1.2061
16601SOL    HW251245   4.793   4.796   5.103 -0.8638  0.8653 -0.7291
16602SOL     OW51246   0.544   0.511   8.657  0.4506  0.0747 -0.5151
16602SOL    HW151247   0.629   0.555   8.650  0.6618 -0.4490 -1.4048
16602SOL    HW251248   0.565   0.418   8.654 -0.0399 -0.0974  0.7931
16603SOL     OW51249   6.737   5.309   9.415 -0.0572  0.6681  0.2335
16603SOL    HW151250   6.788   5.389   9.432  1.6411 -0.2119 -0.4503
16603SOL    HW251251   6.790   5.261   9.351 -1.7692 -0.3325 -0.4910
16604SOL     OW51252   5.310   6.173   1.716 -0.7232 -0.1512 -0.4360
16604SOL    HW151253   5.303   6.167   1.811  0.4715  0.9632 -0.2433
16604SOL    HW251254   5.400   6.201   1.701 -0.0957 -2.6844 -2.0352
16605SOL     OW51255   6.170   3.990  11.905 -0.8584 -0.2450  0.0953
16605SOL    HW151256   6.106   4.005  11.835 -0.4167  1.9775  0.1142
16605SOL    HW251257   6.245   3.951  11.860 -1.2657 -0.5180 -0.3563
16606SOL     OW51258   5.875   3.052  11.243  0.3836 -0.0505 -0.0943
16606SOL    HW151259   5.939   3.079  11.178  1.3068 -0.6764  0.5264
16606SOL    HW251260   5.828   3.132  11.267  0.9942  0.4298 -0.4915
16607SOL     OW51261   4.536   7.059   5.640  0.0381  0.1008 -0.5931
16607SOL    HW151262   4.485   6.979   5.631  2.3493 -1.5411 -0.0221
16607SOL    HW251263   4.571   7.055   5.729  1.1636  1.1055 -0.9610
16608SOL     OW51264   5.895   6.294   5.583  0.1622 -0.4905  0.3458
16608SOL    HW151265   5.869   6.386   5.580 -0.2962 -0.6439 -1.6474
16608SOL    HW251266   5.816   6.246   5.558  0.3889 -1.4539  1.3828
16609SOL     OW51267   5.732   2.684   3.691  0.4835 -0.2404  0.1000
16609SOL    HW151268   5.754   2.640   3.773  1.3977 -0.3835 -0.2074
16609SOL    HW251269   5.648   2.726   3.708  0.3692 -0.7696  0.9144
16610SOL     OW51270   4.275   7.896   8.497  0.3136  0.2180  0.1422
16610SOL    HW151271   4.190   7.884   8.455  1.0849  1.2440 -1.8259
16610SOL    HW251272   4.267   7.849   8.580 -1.2890 -1.9175 -1.1128
16611SOL     OW51273   5.445   4.794  10.354 -0.2199  0.2539  0.2383
16611SOL    HW151274   5.519   4.798  10.294  1.0918 -1.0869  1.6841
16611SOL    HW251275   5.385   4.731  10.315 -0.0308  0.4313 -0.3398
16612SOL     OW51276   7.291   3.976   4.560 -0.0774  0.1271  0.1250
16612SOL    HW151277   7.221   4.028   4.600  0.6767  0.9561  0.4081
16612SOL    HW251278   7.250   3.892   4.540 -0.5859 -0.1808  2.2485
16613SOL     OW51279   3.704   6.798   3.067 -0.3118  0.2351  0.2617
16613SOL    HW151280   3.751   6.733   3.015  2.3560 -0.2991  3.0069
16613SOL    HW251281   3.753   6.879   3.053 -0.3694  0.3828  0.9030
16614SOL     OW51282   2.809   3.456   4.007  0.0228  0.1504 -0.4711
16614SOL    HW151283   2.719   3.425   4.020  0.4032 -0.6585  0.3079
16614SOL    HW251284   2.811   3.542   4.048 -0.5957  0.5080 -1.1656
16615SOL     OW51285   1.790   5.026   7.877 -0.0888  0.8003  0.1770
16615SOL    HW151286   1.845   5.091   7.833 -1.5668  2.0013  0.0329
16615SOL    HW251287   1.818   5.029   7.968  0.3944  1.0795  0.0250
16616SOL     OW51288   4.608   0.647   6.061 -0.3874  0.0438  0.2790
16616SOL    HW151289   4.598   0.635   5.966 -0.6462 -1.5584  0.4801
16616SOL    HW251290   4.519   0.664   6.092 -0.5320 -0.8192  0.3820
16617SOL     OW51291   4.963   5.426   3.437  0.3782  0.4651  0.2166
16617SOL    HW151292   5.038   5.441   3.381  0.9187 -1.4732  0.3608
16617SOL    HW251293   4.889   5.417   3.377  0.6097  0.3514 -0.0494
16618SOL     OW51294   3.110   2.728   4.475  0.1829  0.2966  0.4726
16618SOL    HW151295   3.154   2.646   4.496 -1.0193 -0.6729 -0.6822
16618SOL    HW251296   3.166   2.768   4.408 -0.5714 -0.8910 -0.9278
16619SOL     OW51297   3.877   4.671   3.846 -0.0766 -1.0142 -0.2550
16619SOL    HW151298   3.783   4.658   3.860 -0.0582 -0.1730  0.8848
16619SOL    HW251299   3.883   4.732   3.773 -0.4411 -0.7243 -0.0449
16620SOL     OW51300   0.028   0.327   4.717  0.1268  0.4100 -0.1827
16620SOL    HW151301   0.109   0.315   4.668  1.4741 -0.7016  2.1482
16620SOL    HW251302   0.044   0.284   4.801 -3.1528 -0.5127  0.1162
16621SOL     OW51303   1.458   4.893   9.068 -0.3995  0.1142 -0.0918
16621SOL    HW151304   1.432   4.984   9.077 -0.9141  0.0546 -0.8682
16621SOL    HW251305   1.436   4.870   8.977  2.8652  0.2109 -1.0514
16622SOL     OW51306   1.314   6.055  11.631 -0.2384 -0.0589  0.0912
16622SOL    HW151307   1.370   6.001  11.575 -0.4834 -1.7670  1.3896
16622SOL    HW251308   1.226   6.044  11.594 -0.2615 -0.4513  0.2494
16623SOL     OW51309   1.340   4.834   2.283 -0.1875  0.1348 -0.5086
16623SOL    HW151310   1.331   4.888   2.204 -1.1278  0.0453 -0.4676
16623SOL    HW251311   1.263   4.777   2.282  0.4135 -0.7124 -0.1643
16624SOL     OW51312   0.059   3.516   9.894  0.1522  0.4111 -0.9028
16624SOL    HW151313   0.050   3.429   9.933  2.6880  0.7164  0.5710
16624SOL    HW251314   0.068   3.499   9.800 -1.9661 -0.6556 -0.9807
16625SOL     OW51315   2.730   3.102   6.760 -0.4960 -0.4063 -0.4198
16625SOL    HW151316   2.665   3.138   6.699 -2.7369 -1.0787  1.4523
16625SOL    HW251317   2.738   3.010   6.735 -0.5191 -0.3991 -0.4531
16626SOL     OW51318   5.408   3.975   6.769 -0.3506 -0.0127 -0.4809
16626SOL    HW151319   5.435   3.984   6.678  0.0904  0.1124 -0.3374
16626SOL    HW251320   5.488   3.955   6.817 -0.6768 -0.7440 -0.2097
16627SOL     OW51321   0.825   4.703   8.374  0.1633  0.3604 -0.3746
16627SOL    HW151322   0.810   4.742   8.288  1.3011 -1.5746 -1.5365
16627SOL    HW251323   0.881   4.627   8.356 -0.0039 -0.4078  2.0249
16628SOL     OW51324   7.250   6.138   4.687 -0.2919  0.5858  0.0625
16628SOL    HW151325   7.175   6.170   4.738 -0.3897  0.2766  0.1169
16628SOL    HW251326   7.303   6.216   4.670 -1.8858  1.2990 -2.1512
16629SOL     OW51327   0.742   3.020   5.313 -0.3438  0.1502 -0.0769
16629SOL    HW151328   0.702   3.103   5.337  1.5831  0.2672  3.2838
16629SOL    HW251329   0.675   2.954   5.335 -1.5349  0.6513 -1.9317
16630SOL     OW51330   2.728   6.615   9.107 -0.4706  0.3826 -0.1195
16630SOL    HW151331   2.793   6.606   9.176  0.3731 -4.0706 -1.1794
16630SOL    HW251332   2.770   6.673   9.043  0.1247  1.8571  1.5316
16631SOL     OW51333   6.103   4.556   8.668  0.0866  0.0302 -0.2675
16631SOL    HW151334   6.151   4.618   8.722 -0.4859 -0.6625  1.0861
16631SOL    HW251335   6.039   4.517   8.727  2.1653 -3.8604 -0.2392
16632SOL     OW51336   1.372   3.821   5.078 -0.9238 -0.5266  0.0651
16632SOL    HW151337   1.416   3.749   5.123  1.4597  0.7665 -0.0197
16632SOL    HW251338   1.392   3.899   5.130 -1.6089  0.4065 -0.9949
16633SOL     OW51339   6.062   2.331  10.661 -0.0596 -0.5349  0.1016
16633SOL    HW151340   6.039   2.276  10.736  2.6952 -2.4233 -0.3022
16633SOL    HW251341   5.992   2.396  10.657 -1.8057 -2.0821  2.5570
16634SOL     OW51342   2.545   4.778   1.471  0.0984 -0.2528  0.0645
16634SOL    HW151343   2.512   4.858   1.430  0.2901 -0.0130  0.3618
16634SOL    HW251344   2.519   4.707   1.412  0.3437  0.0771 -0.4494
16635SOL     OW51345   1.110   1.118   4.803 -0.8019 -0.0822  0.5681
16635SOL    HW151346   1.141   1.028   4.794 -0.3414 -0.0511  1.7395
16635SOL    HW251347   1.014   1.111   4.798 -0.8354 -0.7986  1.8280
16636SOL     OW51348   0.068   3.841   6.092 -0.0528  0.3504 -0.1202
16636SOL    HW151349   0.043   3.753   6.121 -0.0289  0.8920  1.7110
16636SOL    HW251350   0.089   3.831   5.999 -1.6559 -1.2386 -0.3686
16637SOL     OW51351   4.315   0.936   7.962 -0.4268  0.5119 -0.0974
16637SOL    HW151352   4.272   1.009   8.006 -2.0602  0.4399 -1.4655
16637SOL    HW251353   4.254   0.863   7.971 -1.3535  0.7582 -3.2247
16638SOL     OW51354   7.865   0.196   5.913  0.1161  0.1108  0.3590
16638SOL    HW151355   7.940   0.188   5.972 -0.2410 -0.2068  0.7757
16638SOL    HW251356   7.817   0.273   5.946  0.1855  0.2303  0.1789
16639SOL     OW51357   2.883   4.775   3.709 -0.3083 -0.3939  0.5970
16639SOL    HW151358   2.848   4.706   3.653 -0.1985 -0.6860  0.8889
16639SOL    HW251359   2.866   4.744   3.798 -1.0359  0.3437  0.7291
16640SOL     OW51360   1.642   2.574  12.414  0.1126  0.1790 -0.1903
16640SOL    HW151361   1.633   2.669  12.412 -0.5649  0.1096 -0.8921
16640SOL    HW251362   1.699   2.557  12.489 -0.1986  1.0998  0.2682
16641SOL     OW51363   6.284   1.048   3.559 -0.4352  0.4064 -0.2737
16641SOL    HW151364   6.309   0.958   3.579  1.0771  0.7485 -0.5099
16641SOL    HW251365   6.355   1.101   3.595  0.2586  1.3018 -2.7509
16642SOL     OW51366   3.570   2.904   2.145 -0.7351 -0.6033  0.0998
16642SOL    HW151367   3.613   2.918   2.229 -1.2908 -0.3351  0.3423
16642SOL    HW251368   3.540   2.813   2.148  0.4327 -1.0219 -0.3612
16643SOL     OW51369   6.430   5.363   2.801  0.2475  0.1621  0.1224
16643SOL    HW151370   6.473   5.444   2.773 -0.0394  0.1813 -0.2638
16643SOL    HW251371   6.415   5.315   2.719  1.2143 -0.6754  0.4243
16644SOL     OW51372   1.932   1.545   8.312  0.4114 -0.0285  0.7197
16644SOL    HW151373   2.012   1.566   8.264 -0.6696 -0.1484 -1.2590
16644SOL    HW251374   1.936   1.450   8.326  0.0660 -0.2391 -0.5030
16645SOL     OW51375   0.220   4.127  11.555  0.0823  0.2287  0.3164
16645SOL    HW151376   0.315   4.123  11.561  0.1683  1.2005 -0.2427
16645SOL    HW251377   0.200   4.220  11.542 -1.0552  0.3050  2.1772
16646SOL     OW51378   0.713   4.137   7.010 -0.1666 -0.2858  0.5818
16646SOL    HW151379   0.624   4.109   7.030 -1.2434  1.0724 -1.7628
16646SOL    HW251380   0.708   4.171   6.920  3.2716 -2.4605 -0.6556
16647SOL     OW51381   0.116   2.988  11.241 -0.5991 -0.4873  0.1448
16647SOL    HW151382   0.052   2.984  11.169  0.7602  2.1130 -1.3798
16647SOL    HW251383   0.069   3.033  11.311 -1.0319 -0.2925 -0.2572
16648SOL     OW51384   3.383   7.893   8.491 -0.0402 -0.3040  0.0150
16648SOL    HW151385   3.419   7.806   8.473  0.5193 -0.1004  0.1281
16648SOL    HW251386   3.359   7.928   8.406  1.1878  0.0529 -0.1913
16649SOL     OW51387   6.960   5.404  10.597 -0.0765 -0.2280 -0.4578
16649SOL    HW151388   6.931   5.398  10.688 -1.8086  0.8647 -0.8871
16649SOL    HW251389   7.053   5.426  10.603 -0.4052  0.9243  1.0765
16650SOL     OW51390   4.109   3.723   0.602  0.0855  0.0478  0.5892
16650SOL    HW151391   4.079   3.653   0.544  1.9144 -0.4348  0.1527
16650SOL    HW251392   4.191   3.753   0.563 -0.1199  1.7185  1.3617
16651SOL     OW51393   0.047   5.510   2.209  0.3747  0.1413 -0.1351
16651SOL    HW151394  -0.047   5.495   2.216  0.6955 -1.3594  2.1475
16651SOL    HW251395   0.071   5.472   2.124 -0.7412 -1.7809  0.3402
16652SOL     OW51396   7.614   5.283   4.058 -0.4089  0.1478 -0.2401
16652SOL    HW151397   7.655   5.283   3.971 -0.8484 -0.8923 -0.4659
16652SOL    HW251398   7.597   5.190   4.076  0.6336  0.2513  1.4178
16653SOL     OW51399   2.987   4.658   4.982 -0.1098  0.4021 -0.2442
16653SOL    HW151400   3.082   4.652   4.974 -0.2062 -0.2794 -0.9946
16653SOL    HW251401   2.964   4.742   4.944  0.1594  0.3985 -0.4105
16654SOL     OW51402   1.966   3.207  10.686 -0.6715 -0.6330 -0.0552
16654SOL    HW151403   1.883   3.203  10.733 -1.8733  2.6354 -1.5985
16654SOL    HW251404   1.944   3.179  10.597  0.5995 -2.4795  0.1530
16655SOL     OW51405   7.826   0.583   0.361 -0.2208 -0.4400  0.8295
16655SOL    HW151406   7.884   0.512   0.387  1.7102 -0.2127 -2.2762
16655SOL    HW251407   7.776   0.547   0.287 -1.5349  0.4996  1.2145
16656SOL     OW51408   5.770   3.657   4.857 -0.2056  0.2618 -0.1978
16656SOL    HW151409   5.795   3.566   4.843 -2.1435 -0.7177  1.8453
16656SOL    HW251410   5.852   3.704   4.870  0.8624 -1.0426 -1.8776
16657SOL     OW51411   0.063   5.991   5.469 -0.4326  0.2028  0.1026
16657SOL    HW151412   0.145   6.024   5.506 -0.4629 -1.3638  1.7203
16657SOL    HW251413   0.066   6.017   5.377  2.0786 -0.1371  0.0130
16658SOL     OW51414   7.496   1.410   6.591 -0.3663 -0.0234  0.1929
16658SOL    HW151415   7.490   1.342   6.523 -1.1183 -0.2467  0.4681
16658SOL    HW251416   7.589   1.432   6.594 -0.1151 -0.9737  0.0328
16659SOL     OW51417   7.028   5.870  10.104  0.0952 -0.1852 -0.2076
16659SOL    HW151418   7.107   5.896  10.057 -0.6144  1.1571 -0.7251
16659SOL    HW251419   7.060   5.826  10.183  1.4418  2.6873  0.9755
16660SOL     OW51420   2.221   2.715   5.452  0.6628 -0.4470  0.5704
16660SOL    HW151421   2.172   2.786   5.494  2.8198  0.2582  2.0753
16660SOL    HW251422   2.170   2.636   5.471 -0.6003  0.4095  0.8396
16661SOL     OW51423   5.690   7.713   9.891  0.4490  0.1744  0.3257
16661SOL    HW151424   5.726   7.800   9.911  0.2915  0.6047 -1.1258
16661SOL    HW251425   5.610   7.707   9.943 -2.1352  2.8889 -2.8845
16662SOL     OW51426   4.418   4.304   5.063 -0.1322 -0.5252 -0.0903
16662SOL    HW151427   4.462   4.219   5.052 -0.0518 -0.6694  1.2241
16662SOL    HW251428   4.490   4.367   5.068 -0.1354 -0.5486  0.2826
16663SOL     OW51429   5.230   0.104   3.563 -0.0400 -0.6722  0.4521
16663SOL    HW151430   5.253   0.134   3.651 -1.2359  0.2546  0.4830
16663SOL    HW251431   5.197   0.015   3.575 -1.9205  0.0837  1.2456
16664SOL     OW51432   1.657   0.750   8.085  0.5349 -0.2079 -0.6512
16664SOL    HW151433   1.586   0.777   8.143  0.6944 -0.2334 -0.4404
16664SOL    HW251434   1.696   0.832   8.056  0.2057 -0.1886 -1.0353
16665SOL     OW51435   2.298   5.119  11.931 -0.2985  0.1003  0.3705
16665SOL    HW151436   2.358   5.192  11.946  3.9290 -2.8080 -0.5784
16665SOL    HW251437   2.277   5.123  11.838  0.8346 -0.4547  0.0798
16666SOL     OW51438   4.628   2.943   4.188 -0.4689  0.0085 -0.0707
16666SOL    HW151439   4.552   2.958   4.131 -0.1348  1.1674 -0.2418
16666SOL    HW251440   4.623   3.012   4.254  0.2977 -0.0452  0.0571
16667SOL     OW51441   2.776   0.926   3.383 -0.5341  0.0128  1.0120
16667SOL    HW151442   2.737   0.948   3.468 -1.4024  0.6158  0.4649
16667SOL    HW251443   2.724   0.853   3.351  0.4930 -0.9505  1.4825
16668SOL     OW51444   4.938   5.179  10.594  0.0457  0.0345  0.3202
16668SOL    HW151445   4.845   5.195  10.612  0.2495  1.6915  0.0608
16668SOL    HW251446   4.939   5.148  10.504 -0.2433  0.1757  0.2646
16669SOL     OW51447   1.291   1.604   1.061  0.0670  0.1870  0.1557
16669SOL    HW151448   1.374   1.633   1.023  0.1697 -1.5405 -1.0508
16669SOL    HW251449   1.226   1.664   1.025  0.6333  0.7596  0.0769
16670SOL     OW51450   3.053   1.053   9.237 -0.0161  0.1024 -0.1058
16670SOL    HW151451   3.087   1.103   9.311  2.3177  0.9294 -1.6246
16670SOL    HW251452   3.018   1.119   9.178  0.3581 -0.3245 -0.8128
16671SOL     OW51453   7.632   1.564   0.263 -0.3793  0.3304  0.1845
16671SOL    HW151454   7.634   1.578   0.357  1.6752 -1.2557  0.4592
16671SOL    HW251455   7.654   1.649   0.225 -1.6240  1.0834  1.0784
16672SOL     OW51456   1.554   1.904   9.414 -0.5240  0.2278  0.2394
16672SOL    HW151457   1.563   1.980   9.356 -1.1629 -0.6669 -1.0943
16672SOL    HW251458   1.583   1.935   9.500 -2.1549  2.4023  0.0868
16673SOL     OW51459   4.571   7.065   2.021 -0.1006  0.0440  0.3484
16673SOL    HW151460   4.610   6.980   2.001  0.7844  0.9754 -2.3057
16673SOL    HW251461   4.510   7.081   1.949  1.0618  2.4128 -0.1785
16674SOL     OW51462   1.866   6.611   5.831 -0.7327 -0.3400 -0.3341
16674SOL    HW151463   1.827   6.661   5.759 -2.6242 -0.4516  0.5370
16674SOL    HW251464   1.960   6.615   5.816 -0.8553  2.6300 -0.8894
16675SOL     OW51465   1.336   6.877  10.835 -0.2505  0.0413  0.2007
16675SOL    HW151466   1.376   6.927  10.763 -0.4188  0.8531  0.6625
16675SOL    HW251467   1.242   6.875  10.813 -0.4090  0.9450  0.7831
16676SOL     OW51468   0.263   4.176   5.674 -0.6932  0.2827 -0.1027
16676SOL    HW151469   0.261   4.231   5.753 -1.9773  0.3859 -0.1858
16676SOL    HW251470   0.190   4.116   5.685 -1.0015  0.4275 -1.3102
16677SOL     OW51471   6.684   7.003   2.762 -0.2998 -0.6220 -0.4854
16677SOL    HW151472   6.594   6.981   2.739 -0.4476 -0.5649  0.0356
16677SOL    HW251473   6.729   6.918   2.766 -0.4808 -0.7019 -0.1158
16678SOL     OW51474   5.847   1.768   3.563  0.4837 -0.6525 -0.3944
16678SOL    HW151475   5.812   1.810   3.642 -1.6036 -1.1618 -0.9723
16678SOL    HW251476   5.850   1.675   3.585  1.3066 -0.6369 -0.4327
16679SOL     OW51477   2.799   1.857   6.550  0.7567 -0.0756  0.4750
16679SOL    HW151478   2.884   1.902   6.550  1.4761 -1.2695  2.3862
16679SOL    HW251479   2.760   1.882   6.634 -0.9863  0.7222 -0.5195
16680SOL     OW51480   6.232   1.677   6.336  0.4194  0.0652 -0.2532
16680SOL    HW151481   6.162   1.612   6.346 -1.3727  1.7713 -1.1257
16680SOL    HW251482   6.208   1.747   6.397  1.5336  0.5618 -0.3720
16681SOL     OW51483   5.560   5.203  11.684  0.3445 -0.0162  0.3969
16681SOL    HW151484   5.527   5.115  11.663 -0.7721  0.8257 -1.6329
16681SOL    HW251485   5.493   5.240  11.740  0.4821 -0.2149  0.6946
16682SOL     OW51486   4.797   6.478  10.186 -0.2516  0.7552  0.1918
16682SOL    HW151487   4.776   6.386  10.169 -0.9481  1.1008 -0.8796
16682SOL    HW251488   4.768   6.524  10.107 -4.2275  2.5633  2.4323
16683SOL     OW51489   1.452   2.066   4.321 -0.2017 -0.3140 -0.2233
16683SOL    HW151490   1.423   2.054   4.230  3.2855 -0.8857 -1.4119
16683SOL    HW251491   1.474   1.978   4.351 -0.5562 -0.0290  0.9179
16684SOL     OW51492   6.466   7.966   1.871  0.2864  0.1126 -0.0478
16684SOL    HW151493   6.480   7.957   1.966  0.4290  4.1605  0.4774
16684SOL    HW251494   6.553   7.961   1.833  0.6938  1.9987  0.5291
16685SOL     OW51495   1.099   6.071   1.837 -0.0942  0.0665 -0.0611
16685SOL    HW151496   1.191   6.071   1.865 -0.1932  1.0078  0.2958
16685SOL    HW251497   1.059   5.999   1.886 -0.3238  1.8175  2.5055
16686SOL     OW51498   6.388   3.400  12.322 -0.0435  0.5992  0.0610
16686SOL    HW151499   6.302   3.384  12.362  0.2824 -0.0932  0.5104
16686SOL    HW251500   6.381   3.487  12.284 -1.8586 -0.4482 -2.3030
16687SOL     OW51501   6.469   6.467   1.439  0.5478 -0.3555  0.6743
16687SOL    HW151502   6.563   6.486   1.435  0.4287  0.0905 -0.8249
16687SOL    HW251503   6.464   6.377   1.472  1.6095 -0.9201 -0.5665
16688SOL     OW51504   4.105   2.412   7.289 -0.2529 -0.3491 -0.3087
16688SOL    HW151505   4.087   2.506   7.290  0.5604 -0.1991  0.9462
16688SOL    HW251506   4.022   2.372   7.316  0.3201  0.1954  2.4557
16689SOL     OW51507   3.844   1.539   9.066  0.2752  0.3971  0.1534
16689SOL    HW151508   3.844   1.524   8.972  0.2383  0.6826  0.1057
16689SOL    HW251509   3.790   1.617   9.078  0.4597  0.4910  0.3888
16690SOL     OW51510   6.482   2.948  11.477  0.2993  0.1009 -0.1471
16690SOL    HW151511   6.560   2.992  11.510  0.5974 -0.8232  0.4351
16690SOL    HW251512   6.483   2.862  11.519 -0.9014 -0.0248 -0.3219
16691SOL     OW51513   0.294   1.180  12.317  0.2184 -0.6484 -0.4570
16691SOL    HW151514   0.379   1.144  12.341 -1.3454 -4.0673  0.6257
16691SOL    HW251515   0.262   1.221  12.398  0.2041 -0.7421 -0.4150
16692SOL     OW51516   6.508   0.236   3.007  0.8765 -0.4269 -0.0232
16692SOL    HW151517   6.501   0.147   2.971 -2.3505 -1.1554  2.0706
16692SOL    HW251518   6.563   0.226   3.084  1.7411 -0.2508 -0.5935
16693SOL     OW51519   3.106   3.402  10.012  0.2053  0.1582  0.2223
16693SOL    HW151520   3.118   3.497  10.008  0.1421  0.2022  0.9796
16693SOL    HW251521   3.131   3.378  10.101 -1.4253 -0.2796  0.6113
16694SOL     OW51522   4.187   6.763   0.400  0.2690 -0.2139  0.7818
16694SOL    HW151523   4.135   6.843   0.393  2.0077  1.1136  2.0057
16694SOL    HW251524   4.206   6.754   0.494  1.5246 -1.0816  0.4816
16695SOL     OW51525   7.529   7.688   8.095  0.3429 -0.4143  0.8783
16695SOL    HW151526   7.479   7.610   8.115  0.6897 -0.9665 -0.3023
16695SOL    HW251527   7.463   7.754   8.072  0.0955 -0.7026  0.7588
16696SOL     OW51528   4.343   2.524  10.567  0.9234 -0.1940  0.2622
16696SOL    HW151529   4.420   2.580  10.580  0.6094  0.5370 -0.8806
16696SOL    HW251530   4.378   2.435  10.570  1.7563  0.1185  0.1282
16697SOL     OW51531   6.203   1.400  10.836  0.3514 -0.3351  0.4445
16697SOL    HW151532   6.135   1.338  10.860  0.4878 -0.5917  0.1772
16697SOL    HW251533   6.220   1.382  10.743 -0.7305  1.1620 -0.0843
16698SOL     OW51534   5.410   7.939   2.709  0.2612 -0.2470 -0.5186
16698SOL    HW151535   5.334   7.992   2.735  0.2930 -0.4927  0.0918
16698SOL    HW251536   5.472   8.001   2.672  0.2360  0.1226  0.0560
16699SOL     OW51537   2.153   7.797  11.567  0.1338 -0.5653 -0.8150
16699SOL    HW151538   2.168   7.890  11.580  1.5931 -1.0059  1.3898
16699SOL    HW251539   2.191   7.777  11.482 -0.4403  0.8837 -1.4244
16700SOL     OW51540   5.048   1.820   9.447 -0.3207  0.1442 -0.3495
16700SOL    HW151541   5.046   1.860   9.535 -1.6583 -0.6216 -0.0068
16700SOL    HW251542   5.075   1.892   9.390  0.3708  0.7168  0.6598
16701SOL     OW51543   0.716   0.768   2.849  0.1816 -0.7351 -0.5749
16701SOL    HW151544   0.647   0.821   2.809  1.0233  0.4744 -0.4758
16701SOL    HW251545   0.782   0.758   2.780  1.1949  0.5401  0.1697
16702SOL     OW51546   2.158   0.742   7.439 -0.0324 -0.4970 -0.1029
16702SOL    HW151547   2.072   0.754   7.398  0.2160  0.5015 -0.3450
16702SOL    HW251548   2.212   0.702   7.371  0.6936  2.1519 -1.1862
16703SOL     OW51549   4.992   0.346   4.245 -0.0838 -0.5925  0.4732
16703SOL    HW151550   5.016   0.299   4.325  2.0298 -2.6629 -1.2170
16703SOL    HW251551   5.073   0.386   4.215 -1.1401  1.3721  0.0283
16704SOL     OW51552   6.973   7.069   4.577  0.1160 -0.1321 -0.4917
16704SOL    HW151553   6.945   7.127   4.506 -0.5337 -0.0501 -0.1724
16704SOL    HW251554   6.920   7.096   4.652 -0.3644 -1.2940 -0.4042
16705SOL     OW51555   0.480   2.955  10.786  0.3812 -0.0960  0.0856
16705SOL    HW151556   0.428   2.878  10.809 -0.6534  0.5430 -0.0302
16705SOL    HW251557   0.421   3.007  10.732  0.9452  0.9374  0.4481
16706SOL     OW51558   2.229   4.282   4.822 -0.0098 -0.0005  0.2880
16706SOL    HW151559   2.165   4.245   4.883 -0.4601  0.6010  0.1900
16706SOL    HW251560   2.177   4.332   4.760  0.7054  2.9629  1.8782
16707SOL     OW51561   2.402   0.029   1.095 -0.5953  0.3707 -0.3583
16707SOL    HW151562   2.410  -0.059   1.133 -1.7709  0.2581 -0.3100
16707SOL    HW251563   2.319   0.061   1.131  0.3726  1.9708  0.5571
16708SOL     OW51564   5.773   3.348   6.450  0.2576  0.1381  0.2586
16708SOL    HW151565   5.715   3.424   6.442 -0.7249 -0.6734 -0.4389
16708SOL    HW251566   5.858   3.386   6.474  0.1461  1.5998 -1.4243
16709SOL     OW51567   1.798   0.215   0.845 -0.4312 -0.2593 -0.2278
16709SOL    HW151568   1.745   0.278   0.894 -0.1728 -0.6743  0.5936
16709SOL    HW251569   1.848   0.269   0.784 -2.9606  0.0405 -2.2191
16710SOL     OW51570   4.889   4.873   2.416  0.6439  0.1509  1.0216
16710SOL    HW151571   4.879   4.937   2.345 -0.1157  0.9418  1.8230
16710SOL    HW251572   4.834   4.799   2.388  0.3144  0.4747  0.7933
16711SOL     OW51573   1.505   3.587   5.635  0.1586 -0.0038  0.1455
16711SOL    HW151574   1.539   3.522   5.573 -0.0281  1.3961 -1.5131
16711SOL    HW251575   1.582   3.621   5.680  0.4377 -0.1422 -0.2291
16712SOL     OW51576   2.214   4.560   2.888  0.6176 -0.3884 -0.4627
16712SOL    HW151577   2.176   4.646   2.907  1.4296 -0.3637  1.1621
16712SOL    HW251578   2.153   4.521   2.824 -0.8575  0.5848  0.2862
16713SOL     OW51579   3.887   5.196   8.622 -0.8162  0.5126 -0.4160
16713SOL    HW151580   3.792   5.191   8.632 -0.9586  0.0913 -1.8696
16713SOL    HW251581   3.901   5.262   8.554 -0.1331 -0.2500 -1.0406
16714SOL     OW51582   7.103   2.250   7.100 -0.0348 -0.1654  0.4651
16714SOL    HW151583   7.175   2.309   7.120  0.4246 -0.0752 -1.2334
16714SOL    HW251584   7.030   2.308   7.078  0.6439 -0.1024 -2.0053
16715SOL     OW51585   5.014   6.331   8.888  0.2150 -0.4688  0.0093
16715SOL    HW151586   5.076   6.261   8.911  0.3799 -0.2828  0.1310
16715SOL    HW251587   4.928   6.296   8.912  0.3754 -0.3085  0.8399
16716SOL     OW51588   2.699   1.620   1.736 -0.0755  0.2655 -0.0581
16716SOL    HW151589   2.792   1.596   1.738 -0.2488 -0.5225 -0.6971
16716SOL    HW251590   2.662   1.564   1.667 -0.7432  1.5921 -0.8119
16717SOL     OW51591   0.082   5.873  10.644  0.3264  0.0072  0.1185
16717SOL    HW151592   0.050   5.788  10.675 -1.0860 -0.0794 -1.3962
16717SOL    HW251593   0.055   5.935  10.712  1.1854 -0.7017  1.1394
16718SOL     OW51594   2.066   0.373   5.642 -0.2277 -0.1883  0.0893
16718SOL    HW151595   2.117   0.453   5.642  0.9629 -0.9013 -1.7291
16718SOL    HW251596   2.127   0.305   5.615 -1.8448 -1.2520 -1.0983
16719SOL     OW51597   7.049   4.630   0.480  0.1699 -0.1823 -0.4468
16719SOL    HW151598   7.111   4.595   0.417 -0.4032 -0.7298 -0.7202
16719SOL    HW251599   7.026   4.555   0.535  0.3721  0.2002  0.1822
16720SOL     OW51600   1.339   1.123   8.164  0.1076  1.1177  0.2102
16720SOL    HW151601   1.330   1.195   8.101  3.4228 -0.8003 -2.8587
16720SOL    HW251602   1.280   1.055   8.132  0.2146  0.9073  0.4541
16721SOL     OW51603   7.497   1.380   7.084 -0.6272  0.1020 -0.3973
16721SOL    HW151604   7.568   1.436   7.116 -0.2364 -1.0464  0.8698
16721SOL    HW251605   7.417   1.430   7.101 -0.2724  0.4025  0.4733
16722SOL     OW51606   7.387   5.103   6.276 -0.5082 -0.1166 -0.3249
16722SOL    HW151607   7.307   5.140   6.239 -0.5590 -1.4256 -1.6061
16722SOL    HW251608   7.418   5.041   6.211 -0.0819 -1.8521  1.4296
16723SOL     OW51609   7.395   2.005   3.375  0.4164  0.4699  0.1524
16723SOL    HW151610   7.384   2.099   3.388  2.4767  0.6774  0.8460
16723SOL    HW251611   7.352   1.986   3.292 -0.5448  1.9026  0.3076
16724SOL     OW51612   3.859   0.080   2.293  0.0585  0.4806  0.5251
16724SOL    HW151613   3.796   0.095   2.363  0.8808  0.1870  1.3489
16724SOL    HW251614   3.892   0.168   2.272  1.1581  0.3987  1.8079
16725SOL     OW51615   0.934   3.341  10.955 -0.2447 -0.5073 -0.5663
16725SOL    HW151616   0.973   3.270  10.904 -1.7937 -1.1802 -0.8704
16725SOL    HW251617   1.000   3.363  11.020  1.7342  0.2304 -2.6770
16726SOL     OW51618   2.097   2.357   7.979 -0.1110 -0.0479 -0.0020
16726SOL    HW151619   2.143   2.352   7.895  0.0126  2.4177 -0.1465
16726SOL    HW251620   2.028   2.291   7.973  0.6772 -0.7770 -1.5248
16727SOL     OW51621   4.262   6.667   8.363  0.8060 -0.1025 -0.0708
16727SOL    HW151622   4.337   6.653   8.305  0.1999 -0.8129 -0.7086
16727SOL    HW251623   4.210   6.588   8.353  0.0881  0.2890  0.5397
16728SOL     OW51624   5.685   3.758   6.592 -0.1353  0.5724  0.1364
16728SOL    HW151625   5.705   3.772   6.684  0.3990 -0.3552  0.1789
16728SOL    HW251626   5.614   3.819   6.572 -1.2381 -0.2180  1.5188
16729SOL     OW51627   2.556   7.170  10.951  0.3133 -0.3252 -0.4550
16729SOL    HW151628   2.628   7.229  10.976 -0.0012  0.2459 -0.8637
16729SOL    HW251629   2.483   7.229  10.932 -0.6158 -0.9375  1.0501
16730SOL     OW51630   0.467   6.964   3.146 -0.2625 -0.3620 -0.0316
16730SOL    HW151631   0.444   7.040   3.200  1.8093 -1.3954  2.5249
16730SOL    HW251632   0.509   7.002   3.069  1.2700  1.1553  1.4522
16731SOL     OW51633   3.684   7.173   9.900  0.5820 -0.3837 -0.1567
16731SOL    HW151634   3.733   7.243   9.944  1.0791 -0.9268  0.1716
16731SOL    HW251635   3.625   7.139   9.967 -1.7390  1.5645 -1.0576
16732SOL     OW51636   6.928   3.997   4.317  0.0280  0.5841  0.5051
16732SOL    HW151637   6.865   3.941   4.273  0.4309  0.8083 -0.3916
16732SOL    HW251638   6.902   4.086   4.293  1.5330  0.6418 -1.1393
16733SOL     OW51639   4.849   7.412  12.228 -0.2646  0.1504  0.0072
16733SOL    HW151640   4.766   7.368  12.211 -1.4153  1.6798  1.4238
16733SOL    HW251641   4.879   7.440  12.142 -1.2799 -0.2812 -0.5110
16734SOL     OW51642   0.117   6.870   1.142 -0.3686 -0.2731  0.2460
16734SOL    HW151643   0.191   6.819   1.108  0.2779  0.7247  0.0871
16734SOL    HW251644   0.074   6.904   1.063  1.4063  2.4266  0.2894
16735SOL     OW51645   4.584   5.873  10.098 -0.1660 -0.1782  0.0882
16735SOL    HW151646   4.515   5.818  10.134  0.7367 -0.1298  2.0317
16735SOL    HW251647   4.539   5.936  10.042 -1.3753 -1.8604 -0.9113
16736SOL     OW51648   7.737   3.704   4.805 -0.1250  0.2730 -0.0786
16736SOL    HW151649   7.818   3.667   4.843 -0.2040 -0.7052 -0.8193
16736SOL    HW251650   7.761   3.794   4.782  0.1541  0.6502  1.5423
16737SOL     OW51651   2.054   7.364   7.997  0.4574  0.5338  0.7804
16737SOL    HW151652   1.980   7.360   7.937  0.2818 -0.3610  1.0471
16737SOL    HW251653   2.026   7.422   8.067 -1.1650 -2.0510  2.4182
16738SOL     OW51654   3.699   5.371   4.425 -0.1228 -0.0480 -0.0435
16738SOL    HW151655   3.727   5.444   4.370 -0.5547 -0.3233 -0.6426
16738SOL    HW251656   3.670   5.413   4.506  1.1410  0.3090  0.2500
16739SOL     OW51657   4.437   6.780   6.667 -0.0437 -0.5142  0.3134
16739SOL    HW151658   4.405   6.838   6.598 -0.5169 -1.1703 -0.0337
16739SOL    HW251659   4.457   6.839   6.740 -1.4904  0.0079  0.3437
16740SOL     OW51660   0.116   6.652   7.914 -0.7458  0.5066  0.6295
16740SOL    HW151661   0.120   6.747   7.930  0.3898  0.7440 -0.8290
16740SOL    HW251662   0.198   6.633   7.869 -1.4942 -0.9757 -0.1460
16741SOL     OW51663   4.900   1.811   3.287 -0.1010 -0.4225  0.6058
16741SOL    HW151664   4.931   1.754   3.358 -1.1097 -0.8298  0.7383
16741SOL    HW251665   4.822   1.767   3.254  0.3680 -0.2442 -0.7868
16742SOL     OW51666   2.518   3.153  11.463  0.6493  0.2399 -0.2593
16742SOL    HW151667   2.488   3.204  11.538 -0.0767  0.1690 -0.4922
16742SOL    HW251668   2.439   3.138  11.411  1.3658  1.5024 -1.7914
16743SOL     OW51669   7.549   1.843   0.782 -0.6746  0.4102  0.0985
16743SOL    HW151670   7.461   1.871   0.808 -1.2586 -1.2118  0.0183
16743SOL    HW251671   7.535   1.759   0.738  0.9094  0.1888 -0.0425
16744SOL     OW51672   1.695   3.453   5.968 -0.1744  0.5115  0.5439
16744SOL    HW151673   1.753   3.461   6.043 -0.4471 -1.8355  1.0604
16744SOL    HW251674   1.608   3.472   6.002 -0.2580 -0.2575  0.7743
16745SOL     OW51675   6.392   5.214   4.230  0.6149 -0.0255  0.3198
16745SOL    HW151676   6.430   5.236   4.314 -0.5603  0.3405  0.7751
16745SOL    HW251677   6.409   5.290   4.175  2.5435 -0.7811 -0.2194
16746SOL     OW51678   6.391   6.437   6.085 -0.7506 -0.0690 -0.0378
16746SOL    HW151679   6.477   6.448   6.125 -0.4940  1.1763 -0.8840
16746SOL    HW251680   6.409   6.425   5.991 -1.5449  1.8422 -0.4717
16747SOL     OW51681   7.112   7.894   2.598  0.1174 -0.5230 -0.0204
16747SOL    HW151682   7.072   7.981   2.604 -0.0976 -0.5821 -0.5652
16747SOL    HW251683   7.206   7.911   2.606 -0.0053 -0.4284  1.7392
16748SOL     OW51684   0.323   1.065   1.088 -0.2202  0.5165 -0.7426
16748SOL    HW151685   0.229   1.049   1.088 -0.0212 -0.7602 -0.1556
16748SOL    HW251686   0.348   1.057   0.996 -0.9424  2.6996 -1.1828
16749SOL     OW51687   6.812   2.026   7.901 -0.7049 -0.5329  0.1174
16749SOL    HW151688   6.809   1.994   7.991 -1.1910  0.6961  0.5549
16749SOL    HW251689   6.816   2.121   7.909 -1.8347 -0.3428 -1.1665
16750SOL     OW51690   3.558   0.341   4.324 -0.1517  0.5383 -0.1105
16750SOL    HW151691   3.490   0.384   4.272  1.7108  1.6448 -1.7717
16750SOL    HW251692   3.530   0.250   4.330 -1.8010  0.9706 -0.6453
16751SOL     OW51693   6.719   6.049   3.116 -0.5918  0.1544 -0.5978
16751SOL    HW151694   6.753   6.000   3.192 -0.1194 -0.7423 -1.3633
16751SOL    HW251695   6.628   6.067   3.138 -0.3998  0.1160  0.2849
16752SOL     OW51696   2.218   7.428  11.440  0.1746  0.2728  0.1941
16752SOL    HW151697   2.259   7.514  11.428 -0.5557  0.8505  1.6071
16752SOL    HW251698   2.292   7.367  11.448  0.7470  1.0730  1.1787
16753SOL     OW51699   3.273   7.400   4.189  0.6247  0.0708 -0.0487
16753SOL    HW151700   3.274   7.336   4.261  1.2664  0.4529  0.2944
16753SOL    HW251701   3.353   7.452   4.202  0.3540  0.6394 -0.5954
16754SOL     OW51702   4.383   3.110   6.267  0.1625  0.6435  0.3611
16754SOL    HW151703   4.447   3.104   6.338 -1.2384 -0.6753  1.6227
16754SOL    HW251704   4.427   3.071   6.192  0.9193 -0.0658  1.1401
16755SOL     OW51705   4.676   6.674   9.275  0.1698  0.1022 -0.4608
16755SOL    HW151706   4.618   6.732   9.227 -2.5736 -1.6930  0.4093
16755SOL    HW251707   4.620   6.634   9.342  1.6087 -3.9661 -1.3625
16756SOL     OW51708   7.835   4.051   2.956 -0.0053  0.1365  0.2682
16756SOL    HW151709   7.909   4.043   3.017  0.4712 -0.6331 -0.3923
16756SOL    HW251710   7.757   4.046   3.012  0.4274 -0.3160  0.8428
16757SOL     OW51711   6.860   1.701   7.714 -0.0244 -0.3414 -0.3101
16757SOL    HW151712   6.912   1.776   7.742  0.2694 -0.4177 -0.6522
16757SOL    HW251713   6.910   1.625   7.744 -0.0460 -0.4110 -0.4535
16758SOL     OW51714   3.499   6.280   1.986 -0.2637 -0.3437 -0.4855
16758SOL    HW151715   3.474   6.308   1.898 -1.3415  0.3202  0.0036
16758SOL    HW251716   3.473   6.353   2.042 -1.9743 -1.7716  0.6903
16759SOL     OW51717   2.894   6.941   2.684  0.1198 -0.0984  0.0871
16759SOL    HW151718   2.886   6.846   2.682 -2.6694  0.0725 -0.5097
16759SOL    HW251719   2.804   6.973   2.692  0.8502  2.5161 -0.9570
16760SOL     OW51720   4.175   4.940   9.956  0.2105  0.0207  0.6960
16760SOL    HW151721   4.202   4.948   9.864 -0.7407  2.3229  0.5410
16760SOL    HW251722   4.206   4.854   9.983  2.0170 -0.0250 -1.2798
16761SOL     OW51723   0.773   2.581   5.614 -0.2888 -0.3592 -0.0669
16761SOL    HW151724   0.778   2.521   5.539  1.6869 -1.1567  0.6256
16761SOL    HW251725   0.830   2.541   5.679 -0.2067  1.4751  1.0285
16762SOL     OW51726   6.859   7.057   5.189 -0.5100  0.4061  0.5077
16762SOL    HW151727   6.818   7.130   5.236  1.2797  1.6345  0.2669
16762SOL    HW251728   6.935   7.034   5.243  0.6098  0.7024 -0.8832
16763SOL     OW51729   5.265   4.398   7.177  0.0775  0.3384  0.1400
16763SOL    HW151730   5.216   4.316   7.164  0.3854  0.1205  0.3375
16763SOL    HW251731   5.283   4.400   7.271 -1.0436  1.2750  0.3652
16764SOL     OW51732   4.076   2.676   6.941 -0.0933  0.1864 -0.4240
16764SOL    HW151733   4.032   2.749   6.984  1.7165  2.5483 -2.2771
16764SOL    HW251734   4.005   2.627   6.899 -1.2174  2.5472 -1.4617
16765SOL     OW51735   0.477   6.447   2.484 -0.0411 -0.4523  0.9278
16765SOL    HW151736   0.526   6.455   2.566 -0.2405 -0.9716  1.1013
16765SOL    HW251737   0.542   6.460   2.416  0.3958 -1.3859  1.1528
16766SOL     OW51738   2.929   5.998   6.291  0.1166  0.4181  0.3259
16766SOL    HW151739   2.889   6.059   6.353 -0.4334 -0.7840  1.1823
16766SOL    HW251740   2.856   5.968   6.236  0.5522  1.2611 -0.7462
16767SOL     OW51741   1.577   2.311   3.346 -0.1500 -0.4325  0.2790
16767SOL    HW151742   1.597   2.398   3.380  0.7166 -0.8753  0.9430
16767SOL    HW251743   1.615   2.251   3.410 -0.3922 -1.2978 -0.3753
16768SOL     OW51744   5.312   3.856   5.810 -0.0328  0.6693  0.1758
16768SOL    HW151745   5.272   3.940   5.831 -1.2392 -0.3085  2.1127
16768SOL    HW251746   5.248   3.813   5.752  0.5486  1.0197 -0.7532
16769SOL     OW51747   5.648   0.529   6.237  0.2679 -0.9573  0.2468
16769SOL    HW151748   5.562   0.571   6.228  0.5753  0.0197  1.5113
16769SOL    HW251749   5.628   0.437   6.254 -0.5627 -0.6281  1.1414
16770SOL     OW51750   2.939   0.097   8.897  0.1260 -0.4185  0.3597
16770SOL    HW151751   3.023   0.129   8.929  0.4731  0.9445 -1.6864
16770SOL    HW251752   2.875   0.155   8.938  0.1198 -1.4727  1.9403
16771SOL     OW51753   6.436   6.750   6.056 -0.2377 -0.8149  0.3511
16771SOL    HW151754   6.386   6.773   5.978  1.3643  1.2100 -0.1815
16771SOL    HW251755   6.466   6.660   6.040  2.6272  0.5118 -2.9457
16772SOL     OW51756   3.987   0.672  11.123  0.5179 -0.0741  0.1706
16772SOL    HW151757   3.965   0.743  11.063  0.4218  2.0252  2.4944
16772SOL    HW251758   4.068   0.635  11.089  1.2910  2.0432 -0.4278
16773SOL     OW51759   3.423   7.811   1.500  0.0697  0.0921  0.9426
16773SOL    HW151760   3.447   7.743   1.437 -2.1320  0.2420 -0.1567
16773SOL    HW251761   3.503   7.828   1.549  1.3655 -1.3775 -0.5554
16774SOL     OW51762   4.978   4.273  11.201 -0.4431  0.1916  0.1812
16774SOL    HW151763   4.986   4.263  11.106  1.3619 -2.4544  0.5224
16774SOL    HW251764   5.052   4.329  11.225  0.4556 -0.9768  0.2242
16775SOL     OW51765   0.759   3.949   5.850 -0.2113  0.1533  0.0307
16775SOL    HW151766   0.783   4.042   5.856  1.4677 -0.1351 -1.5899
16775SOL    HW251767   0.695   3.945   5.779  2.3433 -0.3010 -2.4066
16776SOL     OW51768   3.861   5.511  11.534  0.4708 -0.6282  0.4001
16776SOL    HW151769   3.921   5.575  11.496  1.8608 -2.4961 -0.7401
16776SOL    HW251770   3.901   5.487  11.618  1.6192 -2.1472 -0.5253
16777SOL     OW51771   7.064   7.659   3.816  0.1606  0.3665  0.0169
16777SOL    HW151772   6.986   7.704   3.848 -0.3420 -0.5827  0.1770
16777SOL    HW251773   7.041   7.632   3.727 -0.0258 -0.6531  0.3613
16778SOL     OW51774   7.823   7.043   8.423  0.5016 -0.2988 -0.3769
16778SOL    HW151775   7.913   7.028   8.394  1.1969  0.9446  0.9639
16778SOL    HW251776   7.810   7.137   8.412  0.4905  0.0976  2.2003
16779SOL     OW51777   2.132   1.945   3.961  0.2181 -0.1487  0.0123
16779SOL    HW151778   2.120   1.853   3.935  1.2451  0.0447 -1.2511
16779SOL    HW251779   2.125   1.944   4.056  0.8297 -1.6436  0.0738
16780SOL     OW51780   3.251   0.953   3.323  0.1561 -0.4048 -0.1345
16780SOL    HW151781   3.172   0.933   3.273  0.3563 -1.1582 -0.1605
16780SOL    HW251782   3.283   0.868   3.353  1.0291 -0.1270 -0.2361
16781SOL     OW51783   4.129   4.119  12.026  0.4778  0.1437  0.2006
16781SOL    HW151784   4.224   4.126  12.042  0.5780 -0.5622 -0.0483
16781SOL    HW251785   4.113   4.025  12.021 -0.1763  0.2714 -0.1474
16782SOL     OW51786   6.951   4.877   7.849  0.0355  0.1794 -0.2995
16782SOL    HW151787   6.928   4.801   7.901  0.1434  0.6679  0.4815
16782SOL    HW251788   6.882   4.883   7.783 -0.3097 -0.2291  0.0207
16783SOL     OW51789   3.962   7.049   7.417 -0.3854  0.3162  0.1589
16783SOL    HW151790   4.009   7.084   7.492 -0.9814 -0.6783  1.0299
16783SOL    HW251791   4.018   6.978   7.385 -0.7906 -0.1846  0.5495
16784SOL     OW51792   4.591   6.710   6.973 -0.4079  0.5378 -0.2876
16784SOL    HW151793   4.657   6.679   6.912 -0.5508 -3.0136  1.1151
16784SOL    HW251794   4.638   6.721   7.056 -0.9222  1.6908 -0.1224
16785SOL     OW51795   1.977   1.991   6.005 -0.2036 -0.3289  0.2172
16785SOL    HW151796   1.990   1.897   6.013  0.3875 -0.5380 -2.4163
16785SOL    HW251797   1.935   2.003   5.920  1.4584  1.9042 -0.3889
16786SOL     OW51798   3.474   7.313   2.785  0.4986  0.2463 -0.4874
16786SOL    HW151799   3.456   7.406   2.776 -1.0826  0.3393  2.3803
16786SOL    HW251800   3.389   7.273   2.804  1.4449 -1.4254  0.5343
16787SOL     OW51801   0.188   1.863   0.944  0.0411 -0.3735 -0.0491
16787SOL    HW151802   0.282   1.849   0.955  0.1790  1.7874  2.1885
16787SOL    HW251803   0.179   1.957   0.931 -1.9201 -0.2393  1.7834
16788SOL     OW51804   0.702   7.529   6.168 -0.2052  0.4415 -0.2475
16788SOL    HW151805   0.641   7.474   6.216  1.0013  0.6929  1.6740
16788SOL    HW251806   0.772   7.470   6.140  0.6057  0.7664  0.9868
16789SOL     OW51807   4.863   3.068   1.705 -0.3325  0.1787  0.7551
16789SOL    HW151808   4.773   3.040   1.693 -0.2776 -0.5865  1.9719
16789SOL    HW251809   4.911   2.988   1.726  0.3652  0.7731  1.4942
16790SOL     OW51810   1.712   1.151   3.041 -0.2538 -0.3839  0.1649
16790SOL    HW151811   1.744   1.240   3.026  0.1515 -0.7362 -1.1530
16790SOL    HW251812   1.671   1.125   2.959 -1.8083 -0.8447  1.0422
16791SOL     OW51813   0.543   1.074   7.335  0.0795 -0.1027  0.3976
16791SOL    HW151814   0.462   1.118   7.310  0.0563  0.6276  1.6554
16791SOL    HW251815   0.589   1.059   7.253 -0.6680  0.8010 -0.2051
16792SOL     OW51816   0.623   5.488   1.715  0.2991 -0.0841 -0.1852
16792SOL    HW151817   0.604   5.581   1.702  0.8113 -0.1413 -1.4203
16792SOL    HW251818   0.692   5.468   1.652  1.1171 -1.0067  0.9620
16793SOL     OW51819   2.837   2.400   1.579  0.1242  0.5529 -0.1730
16793SOL    HW151820   2.906   2.462   1.601  1.0450 -0.5695  0.1640
16793SOL    HW251821   2.829   2.343   1.655  0.3810 -0.7090 -1.0534
16794SOL     OW51822   3.757   0.152  11.193  0.4273  0.3477 -0.0251
16794SOL    HW151823   3.779   0.096  11.118 -1.9462  1.8070 -1.9583
16794SOL    HW251824   3.837   0.155  11.245  1.6446 -2.1374 -1.5613
16795SOL     OW51825   1.140   6.767   5.186  0.2233 -0.0028 -0.0070
16795SOL    HW151826   1.057   6.791   5.144 -0.5570 -0.0992  1.4290
16795SOL    HW251827   1.179   6.850   5.211 -0.0521 -0.0036  0.4372
16796SOL     OW51828   7.089   3.159   6.972 -0.3699  0.2321 -0.2119
16796SOL    HW151829   7.028   3.227   6.997  0.5811  0.7833  0.6981
16796SOL    HW251830   7.066   3.084   7.028  0.3806  0.7614  0.8517
16797SOL     OW51831   2.018   6.296  10.488 -0.5733 -0.2774 -0.3462
16797SOL    HW151832   1.935   6.341  10.504  0.3079  1.5087 -0.5391
16797SOL    HW251833   2.084   6.356  10.520  0.6892 -1.4897 -0.5813
16798SOL     OW51834   4.673   3.992  10.265 -0.2873  0.5603 -0.2442
16798SOL    HW151835   4.598   4.000  10.324  0.7926  0.5409  1.1999
16798SOL    HW251836   4.719   4.076  10.273  1.1157 -0.2554  0.7717
16799SOL     OW51837   3.248   5.690   9.709  0.4211  0.1534 -0.0746
16799SOL    HW151838   3.180   5.756   9.703 -0.0030 -0.2070  0.6088
16799SOL    HW251839   3.311   5.713   9.640 -0.5711  0.2655 -0.9583
16800SOL     OW51840   6.617   0.807   9.769 -0.2048  0.0927 -0.0954
16800SOL    HW151841   6.640   0.806   9.862  0.6270 -0.2062 -0.2919
16800SOL    HW251842   6.568   0.888   9.757 -0.2817  0.1540  0.5946
16801SOL     OW51843   0.007   1.590   5.893  0.0322  0.6057 -0.4379
16801SOL    HW151844   0.022   1.519   5.831 -0.7905  0.6063 -0.6461
16801SOL    HW251845   0.021   1.550   5.979  0.8594  0.5269 -0.6048
16802SOL     OW51846   3.856   6.777   5.598 -0.8301  0.4740 -0.2491
16802SOL    HW151847   3.936   6.804   5.551 -0.1865  0.9706  1.0713
16802SOL    HW251848   3.837   6.689   5.565  0.5442  0.1563 -0.2564
16803SOL     OW51849   5.849   3.283   9.704  0.3975 -0.1259 -0.2700
16803SOL    HW151850   5.838   3.254   9.614 -0.0131 -0.4531 -0.1149
16803SOL    HW251851   5.776   3.244   9.752  1.0324 -0.5904  0.3538
16804SOL     OW51852   4.366   1.457   4.754 -0.3067  0.0140  0.1230
16804SOL    HW151853   4.285   1.507   4.750 -0.0048  0.5482  0.6364
16804SOL    HW251854   4.406   1.482   4.836  0.3156 -0.3584 -0.0598
16805SOL     OW51855   4.398   2.811   2.656  0.5689  0.5024 -0.1820
16805SOL    HW151856   4.355   2.895   2.640 -0.0771 -0.0096 -1.2386
16805SOL    HW251857   4.327   2.747   2.653  1.0141 -0.0717  0.8985
16806SOL     OW51858   2.673   6.699   7.658 -0.5641  0.0280  1.0949
16806SOL    HW151859   2.647   6.639   7.588 -0.7308  1.2404  0.0847
16806SOL    HW251860   2.667   6.647   7.738 -1.4504 -1.0753  0.3352
16807SOL     OW51861   5.821   5.425   6.251 -0.4293  0.1886 -0.4585
16807SOL    HW151862   5.901   5.398   6.205 -0.3096 -0.4867  0.1106
16807SOL    HW251863   5.827   5.380   6.336 -0.9702  0.8612 -0.0533
16808SOL     OW51864   7.642   0.906   6.652 -0.3016  0.5452 -0.2339
16808SOL    HW151865   7.572   0.847   6.625 -0.1742 -0.2878  1.1188
16808SOL    HW251866   7.597   0.983   6.687 -0.6398 -0.4839  1.7353
16809SOL     OW51867   1.956   1.499   7.724  0.2486 -0.0759  0.4646
16809SOL    HW151868   1.985   1.409   7.711  1.5509  0.4942 -0.7015
16809SOL    HW251869   1.893   1.514   7.654 -0.3105 -0.1924  0.9267
16810SOL     OW51870   5.042   0.735   1.542 -0.6347  0.0887  0.0353
16810SOL    HW151871   5.058   0.678   1.467 -0.7071  1.0327 -0.7159
16810SOL    HW251872   5.129   0.764   1.570 -0.6132 -0.1972  0.2745
16811SOL     OW51873   4.666   6.475   2.621  0.3376  0.8991  0.1651
16811SOL    HW151874   4.736   6.409   2.626 -0.4476  0.0645  0.5589
16811SOL    HW251875   4.710   6.555   2.594  1.3027  0.1748 -0.4788
16812SOL     OW51876   3.830   1.680   6.598  0.3543  0.0503 -0.3106
16812SOL    HW151877   3.834   1.719   6.511 -1.4901  0.3971 -0.2772
16812SOL    HW251878   3.898   1.612   6.597 -0.7092 -1.0807 -2.5835
16813SOL     OW51879   5.813   5.242   3.127 -0.1858  0.2168  0.1525
16813SOL    HW151880   5.827   5.199   3.211 -1.3458  0.4134  0.4677
16813SOL    HW251881   5.724   5.277   3.133 -0.2196  0.3800 -1.0917
16814SOL     OW51882   0.438   6.640   0.918  0.4633  0.2183  0.4367
16814SOL    HW151883   0.499   6.703   0.879  0.4277  0.0673  0.1341
16814SOL    HW251884   0.376   6.620   0.848  0.0150  0.4352  0.7683
16815SOL     OW51885   3.909   1.055   4.061 -0.3794  0.1788  0.2196
16815SOL    HW151886   3.870   1.097   3.985 -1.9570 -0.5960  0.5729
16815SOL    HW251887   3.997   1.029   4.031  0.1859  2.5140 -0.3750
16816SOL     OW51888   2.258   4.240   1.235  0.1223  0.1509  0.5511
16816SOL    HW151889   2.270   4.155   1.193  1.0236  0.0864  0.9040
16816SOL    HW251890   2.255   4.220   1.328 -1.2953  0.3520  0.5711
16817SOL     OW51891   2.603   7.360   3.338  0.8861 -0.1919  0.0067
16817SOL    HW151892   2.614   7.442   3.385  2.7218 -0.3210 -0.1508
16817SOL    HW251893   2.531   7.316   3.384 -0.8227  1.8678 -0.4913
16818SOL     OW51894   6.958   5.348  10.875 -0.3279 -0.2688  0.2300
16818SOL    HW151895   7.017   5.407  10.921 -1.8804 -0.9630  3.3251
16818SOL    HW251896   7.009   5.267  10.864  0.3986  0.2442 -0.2601
16819SOL     OW51897   4.084   0.352   8.943 -0.9390 -0.4500  0.1604
16819SOL    HW151898   4.126   0.276   8.984 -0.4327 -0.3915 -0.2387
16819SOL    HW251899   4.145   0.424   8.956 -0.4825 -0.5611 -1.2031
16820SOL     OW51900   6.577   3.809  11.627 -0.0155 -0.2847 -0.1025
16820SOL    HW151901   6.534   3.750  11.565 -0.7076  1.0950 -0.9896
16820SOL    HW251902   6.671   3.801  11.608 -0.1744 -0.4236 -0.8278
16821SOL     OW51903   4.569   6.603   3.354  0.5606  0.0570  0.2671
16821SOL    HW151904   4.552   6.567   3.441 -0.9492  0.6426  0.2529
16821SOL    HW251905   4.544   6.695   3.361 -1.2961 -0.2647 -1.1953
16822SOL     OW51906   2.871   6.888   3.241 -0.1866 -0.2829 -0.3817
16822SOL    HW151907   2.845   6.972   3.202 -3.0354 -0.4933  0.8256
16822SOL    HW251908   2.893   6.910   3.332 -1.2519 -0.8373  0.0284
16823SOL     OW51909   5.507   3.423   5.266  0.0802  0.3619  0.2659
16823SOL    HW151910   5.485   3.336   5.234 -0.8363  0.6768  0.0140
16823SOL    HW251911   5.476   3.423   5.357  3.0431 -0.6738  1.4100
16824SOL     OW51912   5.817   6.984   9.186 -0.3450  0.1648  0.3845
16824SOL    HW151913   5.809   6.932   9.265 -0.6136 -0.2424  0.0906
16824SOL    HW251914   5.869   7.060   9.213  2.1282 -1.3798  0.2714
16825SOL     OW51915   3.501   2.211   0.559 -0.5281  0.6108 -0.1713
16825SOL    HW151916   3.465   2.140   0.506 -0.3683  0.7042 -0.4094
16825SOL    HW251917   3.502   2.286   0.500  1.0343  0.3539 -0.5153
16826SOL     OW51918   6.431   2.315   7.431  0.0088 -0.6954  0.3552
16826SOL    HW151919   6.397   2.394   7.390  0.4636 -0.4503  0.4377
16826SOL    HW251920   6.524   2.315   7.409 -0.0324 -1.3326  0.1581
16827SOL     OW51921   6.853   7.505   5.268 -0.6882 -0.0172  0.0263
16827SOL    HW151922   6.920   7.557   5.311  0.1077 -1.6341  0.8032
16827SOL    HW251923   6.888   7.488   5.180 -1.0991  0.9984 -0.3472
16828SOL     OW51924   3.143   2.609   8.024 -1.0755 -0.8065  0.0997
16828SOL    HW151925   3.222   2.659   8.007 -1.4071 -0.9991 -2.2979
16828SOL    HW251926   3.167   2.548   8.094 -0.0031  1.0619  1.4565
16829SOL     OW51927   0.236   6.824   1.982  0.0190  0.4385  0.2111
16829SOL    HW151928   0.276   6.829   2.068  1.0490 -1.6835 -0.0762
16829SOL    HW251929   0.306   6.850   1.922  0.7185 -2.1168 -0.2089
16830SOL     OW51930   6.074   3.990   7.349  0.0867  0.0093 -0.3949
16830SOL    HW151931   6.111   3.951   7.428  2.7949 -0.8747 -1.9689
16830SOL    HW251932   6.037   3.916   7.301  0.2558  0.2300 -0.8716
16831SOL     OW51933   5.488   7.597  10.952 -0.2042 -0.1192 -0.6244
16831SOL    HW151934   5.531   7.655  11.015  0.1050  1.1776 -1.9784
16831SOL    HW251935   5.398   7.590  10.983 -0.2534  1.1056 -0.4468
16832SOL     OW51936   6.318   5.043   8.371 -0.0215 -0.0123  0.2808
16832SOL    HW151937   6.281   4.982   8.307  1.2899 -1.3237  0.7156
16832SOL    HW251938   6.389   5.086   8.325  0.8687 -0.8934  0.8018
16833SOL     OW51939   0.855   2.520  11.122  0.0769  0.9676 -0.1499
16833SOL    HW151940   0.772   2.534  11.076 -0.5365  0.8142  0.8670
16833SOL    HW251941   0.881   2.431  11.099 -1.1186  0.2463  1.1123
16834SOL     OW51942   3.437   5.487   7.351  0.6286  0.2578 -0.2927
16834SOL    HW151943   3.421   5.420   7.285 -1.9834  1.5389 -1.0651
16834SOL    HW251944   3.511   5.537   7.316  0.9108 -0.6094 -0.9790
16835SOL     OW51945   0.191   6.997   6.809 -0.3411 -0.4402 -0.3657
16835SOL    HW151946   0.125   6.962   6.869 -0.6649  1.7384  0.6564
16835SOL    HW251947   0.185   6.942   6.732 -1.3264 -2.0879  0.8358
16836SOL     OW51948   0.106   2.506   8.514  0.5305 -0.3659 -0.2268
16836SOL    HW151949   0.186   2.469   8.550  0.8809 -0.4353 -1.0569
16836SOL    HW251950   0.094   2.588   8.562  0.1115 -1.1864  1.1481
16837SOL     OW51951   4.203   2.087   6.502  0.1094 -0.0498 -0.4228
16837SOL    HW151952   4.280   2.053   6.455  0.2660  2.7011 -2.3689
16837SOL    HW251953   4.152   2.132   6.435 -2.4056 -0.3710  1.1525
16838SOL     OW51954   0.569   1.026   5.605 -0.1649 -0.0765 -0.5704
16838SOL    HW151955   0.559   1.048   5.512  2.0339 -1.1709 -1.1421
16838SOL    HW251956   0.559   1.110   5.651 -0.1432  0.6907 -1.9117
16839SOL     OW51957   5.561   5.853   5.892  0.0839 -0.0053 -0.3575
16839SOL    HW151958   5.466   5.863   5.892  0.0971  0.2250 -1.4627
16839SOL    HW251959   5.595   5.939   5.866  0.6413  0.1251  0.7042
16840SOL     OW51960   4.922   7.565   3.832 -0.0687  0.2498 -0.8288
16840SOL    HW151961   4.957   7.634   3.889  0.0312  0.5681 -1.2699
16840SOL    HW251962   4.971   7.574   3.750 -0.4727  0.0445 -1.0957
16841SOL     OW51963   4.604   6.461   3.109 -0.2248  0.2286 -0.0292
16841SOL    HW151964   4.622   6.526   3.041  0.5382 -0.0666 -0.1289
16841SOL    HW251965   4.585   6.512   3.187 -1.8270  0.5830 -0.6191
16842SOL     OW51966   7.346   4.921   1.606  0.3042  0.1305  0.3183
16842SOL    HW151967   7.382   4.879   1.685  0.5326  0.9345  0.6520
16842SOL    HW251968   7.331   5.012   1.633  0.0066  0.3096 -0.4527
16843SOL     OW51969   3.163   7.638   5.285  0.0093 -0.2534 -0.0780
16843SOL    HW151970   3.082   7.634   5.335 -0.7661  1.6262 -1.0870
16843SOL    HW251971   3.208   7.556   5.306 -1.0663 -0.3295  2.2861
16844SOL     OW51972   4.169   6.724   9.706  0.0415  0.2196  0.1500
16844SOL    HW151973   4.179   6.633   9.735 -0.3923  0.0908 -0.0905
16844SOL    HW251974   4.074   6.739   9.710  0.1126  0.6666  0.1985
16845SOL     OW51975   4.032   0.446   9.700 -0.2873  0.3914 -0.5681
16845SOL    HW151976   3.963   0.379   9.703 -0.0661  0.0992  3.0449
16845SOL    HW251977   3.986   0.527   9.723  0.3915  0.2999  1.2572
16846SOL     OW51978   3.483   0.594   6.998 -0.4814 -0.0426 -0.0968
16846SOL    HW151979   3.421   0.563   6.931  0.5476 -1.9299 -0.2488
16846SOL    HW251980   3.555   0.531   6.995  0.8680  1.3609  0.9570
16847SOL     OW51981   7.080   5.487   2.508 -0.2899  0.5714 -0.0433
16847SOL    HW151982   7.134   5.522   2.437 -0.6764 -0.0862 -0.6812
16847SOL    HW251983   7.141   5.471   2.580  1.1269 -3.2636 -1.7984
16848SOL     OW51984   2.908   3.572   7.648  0.4227  0.6104  0.2014
16848SOL    HW151985   2.860   3.491   7.658 -0.5775  1.2474  0.7111
16848SOL    HW251986   2.852   3.639   7.688  0.1551  1.9378 -2.1936
16849SOL     OW51987   5.375   5.106   3.328 -0.1864 -0.0261  0.3573
16849SOL    HW151988   5.402   5.193   3.358  0.3574  0.0927 -0.4289
16849SOL    HW251989   5.328   5.122   3.246  0.7764 -0.5411 -0.3116
16850SOL     OW51990   0.714   1.675  10.561 -0.4742  0.6498  0.6244
16850SOL    HW151991   0.658   1.658  10.636  2.3949  0.5321  2.9460
16850SOL    HW251992   0.737   1.588  10.528 -1.1070  0.6819  0.0782
16851SOL     OW51993   6.074   5.899   6.172 -0.1620  0.2534 -0.7833
16851SOL    HW151994   6.019   5.822   6.188 -0.7742  0.8911  0.3023
16851SOL    HW251995   6.115   5.882   6.088 -1.5119 -0.5518 -1.3067
16852SOL     OW51996   7.201   1.297   8.572  0.4622 -0.5513  0.0142
16852SOL    HW151997   7.221   1.211   8.607  0.7492 -0.8630 -0.9103
16852SOL    HW251998   7.282   1.326   8.531 -0.3124 -0.8990 -1.8374
16853SOL     OW51999   3.076   5.440  10.016 -0.1426  0.0043 -0.0895
16853SOL    HW152000   3.148   5.501   9.999  0.1207  0.0219  1.0042
16853SOL    HW252001   3.089   5.369   9.954  0.2814  0.4472 -0.5200
16854SOL     OW52002   7.939   4.560   4.963 -0.7010  0.4305  0.0357
16854SOL    HW152003   7.968   4.651   4.976 -0.5015  0.3966 -0.1621
16854SOL    HW252004   7.858   4.568   4.913  0.4955  0.4376 -2.0248
16855SOL     OW52005   2.630   1.629   5.083 -0.0935 -0.0214  0.5437
16855SOL    HW152006   2.601   1.540   5.064 -0.3117  0.1736 -0.0827
16855SOL    HW252007   2.726   1.624   5.082 -0.0740 -0.5970  2.2780
16856SOL     OW52008   1.134   3.545   1.819 -0.0987  0.2548 -0.5975
16856SOL    HW152009   1.143   3.587   1.905 -0.4530  0.9793 -0.9110
16856SOL    HW252010   1.193   3.469   1.824 -0.4506  0.0326  0.4379
16857SOL     OW52011   7.179   0.162   5.733  0.9594 -0.6344  0.2246
16857SOL    HW152012   7.262   0.200   5.763  0.1599  1.8448 -0.4557
16857SOL    HW252013   7.148   0.222   5.666 -0.6526 -2.3552 -0.6617
16858SOL     OW52014   0.514   2.101  11.393 -0.4405  0.2785  0.0290
16858SOL    HW152015   0.482   2.014  11.416 -0.9513  0.6333  0.7283
16858SOL    HW252016   0.582   2.119  11.458 -0.2237  0.3348 -0.2135
16859SOL     OW52017   0.153   7.086   5.669  0.2371 -0.3953  0.2016
16859SOL    HW152018   0.092   7.111   5.738 -1.2776 -1.7896 -0.5404
16859SOL    HW252019   0.149   7.157   5.605 -1.6240 -0.9989 -0.4201
16860SOL     OW52020   5.504   6.868  10.449 -0.0542  0.5830 -0.7200
16860SOL    HW152021   5.449   6.936  10.409 -1.3160  0.0114 -0.0252
16860SOL    HW252022   5.504   6.890  10.542  1.2143  0.7725 -0.7537
16861SOL     OW52023   3.124   1.661   0.956  0.3789 -0.0674 -0.3700
16861SOL    HW152024   3.159   1.615   1.033  2.2975  0.9832 -0.5425
16861SOL    HW252025   3.076   1.735   0.993 -2.7002 -2.0372 -0.0926
16862SOL     OW52026   6.703   4.870   7.747 -0.1396 -0.0124  0.3905
16862SOL    HW152027   6.655   4.941   7.704  0.5690  0.6060  0.5854
16862SOL    HW252028   6.720   4.807   7.677 -0.5036  0.1581  0.1440
16863SOL     OW52029   7.914   3.387   0.940  0.0240  0.0390  0.0804
16863SOL    HW152030   8.004   3.408   0.965  0.3806 -0.7382 -0.4893
16863SOL    HW252031   7.892   3.311   0.994  0.1234 -0.4732 -0.5863
16864SOL     OW52032   2.711   7.345   1.988 -0.3355 -0.2314 -0.1765
16864SOL    HW152033   2.620   7.373   1.992  0.1263  1.2349  0.8276
16864SOL    HW252034   2.751   7.404   1.924  0.1551 -0.1564  0.1994
16865SOL     OW52035   4.884   7.954   7.630  0.1188  0.0416 -0.7022
16865SOL    HW152036   4.951   7.933   7.696 -1.1906  0.5426  0.8591
16865SOL    HW252037   4.826   7.878   7.631  0.1516  0.0070 -1.3740
16866SOL     OW52038   6.897   2.213   0.902 -0.1265  0.3667  0.2718
16866SOL    HW152039   6.814   2.237   0.942  0.1970  1.2291  0.4485
16866SOL    HW252040   6.885   2.232   0.809  0.5435  2.5551  0.5661
16867SOL     OW52041   3.362   0.140   3.136  0.2414 -0.1279  0.2666
16867SOL    HW152042   3.385   0.189   3.057 -0.6852  0.2666  0.2377
16867SOL    HW252043   3.333   0.207   3.198 -2.7381 -0.7228 -0.3499
16868SOL     OW52044   6.289   4.260   5.494 -0.3912 -0.5717  0.0586
16868SOL    HW152045   6.235   4.183   5.509  0.7118 -1.1963  0.9561
16868SOL    HW252046   6.376   4.235   5.524  0.1309  0.8245 -0.2016
16869SOL     OW52047   7.578   6.120   1.056  0.4156  0.1952 -0.1219
16869SOL    HW152048   7.597   6.197   1.109 -1.2363  0.7993 -0.3453
16869SOL    HW252049   7.484   6.125   1.038  0.0671 -2.2834  0.5241
16870SOL     OW52050   1.299   0.923   9.994  0.4239  0.0524  0.4421
16870SOL    HW152051   1.317   1.015  10.014  0.3279  0.1257  0.1992
16870SOL    HW252052   1.331   0.875  10.070 -0.2159  0.3432  0.8989
16871SOL     OW52053   7.238   2.896   8.872  0.1960  0.3210  0.0833
16871SOL    HW152054   7.326   2.894   8.835 -0.2783  0.1415 -1.0596
16871SOL    HW252055   7.241   2.968   8.936  1.7955 -1.1264  1.7367
16872SOL     OW52056   6.136   6.048   4.999  0.3416  0.1976 -0.3965
16872SOL    HW152057   6.074   6.016   5.065  0.1127  1.0730 -0.1749
16872SOL    HW252058   6.082   6.090   4.933  0.6439  0.2284 -0.6275
16873SOL     OW52059   1.998   2.564   9.253 -0.0979  0.2942 -0.2613
16873SOL    HW152060   2.045   2.632   9.302 -0.8180  0.1921  0.6016
16873SOL    HW252061   1.934   2.530   9.315  0.6311 -1.5910 -0.4918
16874SOL     OW52062   4.630   7.285   7.229 -0.4776 -0.6101 -0.3758
16874SOL    HW152063   4.719   7.254   7.211 -0.3570  0.2691 -1.4716
16874SOL    HW252064   4.605   7.242   7.310  0.9668 -0.8451 -0.0221
16875SOL     OW52065   6.686   5.326   3.555  0.0609  0.0557  0.1354
16875SOL    HW152066   6.767   5.309   3.604  0.2035 -1.3566 -0.5516
16875SOL    HW252067   6.688   5.421   3.538  1.4573  0.0805  0.3144
16876SOL     OW52068   3.015   0.283   7.788  0.4366 -0.6911 -0.0557
16876SOL    HW152069   2.925   0.308   7.806 -0.2640 -3.8350  1.4396
16876SOL    HW252070   3.020   0.278   7.692 -1.2458 -1.3352 -0.1377
16877SOL     OW52071   1.014   5.532   8.219  0.2221  0.5330  0.1367
16877SOL    HW152072   1.019   5.464   8.285  0.8605  1.6455  1.2633
16877SOL    HW252073   0.988   5.485   8.139 -0.4932 -0.8398  1.1294
16878SOL     OW52074   0.249   1.987   1.610 -0.2157  0.4840  0.1327
16878SOL    HW152075   0.202   2.047   1.667  1.2319  1.5891  0.2082
16878SOL    HW252076   0.316   2.040   1.567  0.2205 -0.7873 -0.8610
16879SOL     OW52077   5.790   4.433  11.654 -0.1536 -0.1442 -0.3555
16879SOL    HW152078   5.836   4.368  11.601  0.8374  2.5873 -3.1112
16879SOL    HW252079   5.747   4.490  11.590 -1.3198  1.6951  1.9294
16880SOL     OW52080   0.586   2.586   1.405 -0.1555  0.5339 -0.0105
16880SOL    HW152081   0.492   2.580   1.391 -0.1819 -0.5976  0.5147
16880SOL    HW252082   0.603   2.525   1.477  1.0320  0.4259 -0.3663
16881SOL     OW52083   0.584   5.678   7.370  0.0981  0.1583 -0.2634
16881SOL    HW152084   0.615   5.707   7.456  2.3350  0.7281 -1.1802
16881SOL    HW252085   0.614   5.747   7.310  1.5379 -1.7772 -1.9056
16882SOL     OW52086   2.961   5.616   9.228 -0.1708  0.8644  0.1692
16882SOL    HW152087   3.018   5.619   9.305  0.4038  0.9790 -0.2560
16882SOL    HW252088   2.886   5.671   9.251  0.8428  2.3640 -0.0213
16883SOL     OW52089   0.406   2.853   7.452 -0.2869 -0.3763 -0.3219
16883SOL    HW152090   0.397   2.946   7.471  0.4419 -0.4640  0.5199
16883SOL    HW252091   0.426   2.850   7.358 -1.4055  0.2317 -0.5955
16884SOL     OW52092   7.571   7.869   6.303  0.0305  0.1226 -0.1393
16884SOL    HW152093   7.523   7.876   6.385  1.7115 -1.3597  1.0360
16884SOL    HW252094   7.645   7.930   6.313  0.1794  0.0274 -0.6105
16885SOL     OW52095   1.372   5.102  11.410 -0.0086  0.1734  0.0193
16885SOL    HW152096   1.296   5.045  11.398 -2.4962  2.7876  1.8882
16885SOL    HW252097   1.417   5.102  11.326 -1.9906 -1.6276 -1.1262
16886SOL     OW52098   7.967   3.143   8.399 -0.4093 -0.0109 -0.2548
16886SOL    HW152099   7.991   3.201   8.471  0.1001 -0.9745  0.3695
16886SOL    HW252100   7.957   3.057   8.439 -0.3666 -0.5216 -1.2925
16887SOL     OW52101   0.932   6.644   6.517  0.4659  0.0253 -0.2455
16887SOL    HW152102   1.007   6.699   6.494 -0.3273  0.6599 -1.3908
16887SOL    HW252103   0.970   6.557   6.531  1.6179  0.6513  0.7358
16888SOL     OW52104   3.432   6.309   0.621  0.2529  0.1240  0.2486
16888SOL    HW152105   3.459   6.228   0.578 -1.1595 -0.5161  0.5117
16888SOL    HW252106   3.493   6.319   0.693 -0.3257 -1.4375  1.0084
16889SOL     OW52107   3.132   1.600  11.924 -0.3965 -0.2044  0.2482
16889SOL    HW152108   3.118   1.507  11.944  0.9135 -0.5020 -0.1272
16889SOL    HW252109   3.139   1.642  12.010 -3.5848  0.0576  0.5299
16890SOL     OW52110   3.535   1.687   4.668  0.7783 -0.0420  0.8098
16890SOL    HW152111   3.500   1.771   4.697  0.0982 -0.2643  0.6480
16890SOL    HW252112   3.628   1.691   4.690  1.3587  1.8269 -1.6228
16891SOL     OW52113   1.842   4.898   2.196  0.0162 -0.1435 -0.3102
16891SOL    HW152114   1.774   4.965   2.185 -0.1133 -0.2281 -0.0391
16891SOL    HW252115   1.902   4.912   2.122  0.1335  0.4407 -0.1136
16892SOL     OW52116   7.255   4.313  10.562  0.0472 -0.5466  0.1588
16892SOL    HW152117   7.199   4.274  10.495  2.6066 -3.2574 -0.6367
16892SOL    HW252118   7.241   4.407  10.554 -2.3403 -0.9808 -1.7436
16893SOL     OW52119   3.861   2.464   8.696 -0.3934 -0.1192 -0.7958
16893SOL    HW152120   3.926   2.479   8.627 -1.9280  0.7278 -2.1167
16893SOL    HW252121   3.806   2.394   8.662 -1.1700  0.3109 -0.4361
16894SOL     OW52122   1.133   2.983   7.657  0.4736  0.2726  0.0620
16894SOL    HW152123   1.151   2.940   7.573 -0.2434  0.0810  0.0006
16894SOL    HW252124   1.117   2.911   7.718 -1.1171  0.4402 -0.1265
16895SOL     OW52125   7.581   5.274   5.521 -0.1503 -0.1037 -0.1964
16895SOL    HW152126   7.582   5.240   5.432 -0.8493 -0.2158 -0.1707
16895SOL    HW252127   7.663   5.323   5.530  0.6206 -1.3308 -0.4052
16896SOL     OW52128   2.798   5.045   9.849  0.4220 -0.1455  0.0967
16896SOL    HW152129   2.798   5.110   9.920 -1.2756  0.2558 -0.2267
16896SOL    HW252130   2.754   4.969   9.887 -1.2212  0.3473 -0.7022
16897SOL     OW52131   0.483   4.106  12.200 -0.0467 -0.1108 -0.0396
16897SOL    HW152132   0.451   4.066  12.281  0.8877 -2.8256 -0.9061
16897SOL    HW252133   0.448   4.196  12.202 -2.7598 -1.0837  1.8037
16898SOL     OW52134   2.766   2.968   1.520 -0.0331 -0.1909 -0.4573
16898SOL    HW152135   2.717   2.910   1.462  2.2075  0.3896 -3.1519
16898SOL    HW252136   2.740   3.056   1.493 -1.3735  0.1652  1.7517
16899SOL     OW52137   5.481   6.331  11.866 -0.1176  0.1547 -0.0232
16899SOL    HW152138   5.442   6.247  11.891  0.1707  0.3364  1.0843
16899SOL    HW252139   5.572   6.309  11.847  0.1629  0.3373  1.0621
16900SOL     OW52140   7.343   7.614   4.160  0.5901  0.2439  0.2825
16900SOL    HW152141   7.406   7.573   4.219  0.2602  1.3688  1.4688
16900SOL    HW252142   7.295   7.675   4.215 -1.0350 -0.0336 -0.7577
16901SOL     OW52143   4.558   5.594  10.433 -0.0058 -0.1483 -0.1654
16901SOL    HW152144   4.551   5.502  10.459 -1.2804 -0.0260 -0.0088
16901SOL    HW252145   4.634   5.597  10.375  2.1865 -0.6624  2.4633
16902SOL     OW52146   6.720   6.555   0.217 -0.2736  0.2870 -0.3686
16902SOL    HW152147   6.715   6.516   0.130 -0.6763 -0.8131  0.1220
16902SOL    HW252148   6.637   6.531   0.259 -0.2175  1.0660  0.2167
16903SOL     OW52149   2.671   3.359   2.713 -0.4646 -0.0996  0.1270
16903SOL    HW152150   2.698   3.338   2.802  1.4951 -1.9459 -0.8025
16903SOL    HW252151   2.614   3.286   2.688 -1.5264  0.7290  0.0291
16904SOL     OW52152   1.140   2.647   6.677  0.1598 -0.1373  0.8056
16904SOL    HW152153   1.139   2.629   6.771 -0.1982  0.4147  0.9124
16904SOL    HW252154   1.176   2.736   6.670 -0.7581  0.2275  0.5040
16905SOL     OW52155   7.192   4.893   2.100 -0.0652 -0.2406  0.1971
16905SOL    HW152156   7.131   4.863   2.033 -0.4506 -3.9791  2.0125
16905SOL    HW252157   7.275   4.850   2.079  0.0918 -0.6154  1.4646
16906SOL     OW52158   5.265   1.195   8.451  0.6145 -0.4204  0.0793
16906SOL    HW152159   5.349   1.225   8.416  1.1325 -2.9653 -1.1133
16906SOL    HW252160   5.209   1.186   8.374 -0.6753  0.8320  0.8165
16907SOL     OW52161   0.890   1.430   7.572 -0.3010  0.4258  0.1286
16907SOL    HW152162   0.947   1.385   7.634  0.0365 -0.1666 -0.5995
16907SOL    HW252163   0.840   1.361   7.529 -0.1975  0.7825 -0.5893
16908SOL     OW52164   2.919   6.923  10.489 -0.0763  0.0436  0.3966
16908SOL    HW152165   2.963   6.889  10.566  0.0838 -0.6412  0.0123
16908SOL    HW252166   2.980   6.987  10.452 -0.6669  1.2758  1.5019
16909SOL     OW52167   4.069   6.103  12.038  0.5571 -1.1226  0.2641
16909SOL    HW152168   4.001   6.124  11.974  0.5571  1.2535  0.9384
16909SOL    HW252169   4.135   6.055  11.987 -0.7797 -1.8889 -0.8062
16910SOL     OW52170   0.877   0.677  11.597  0.1421 -0.0794  0.1061
16910SOL    HW152171   0.868   0.673  11.693  2.4798 -2.4422  0.3353
16910SOL    HW252172   0.890   0.770  11.579 -0.3901  0.4351  2.0611
16911SOL     OW52173   4.423   6.253   6.055  0.1658 -0.1602 -0.3086
16911SOL    HW152174   4.493   6.254   6.121  2.0903 -2.5213 -2.1015
16911SOL    HW252175   4.360   6.189   6.087  0.4809 -0.4210 -0.2088
16912SOL     OW52176   0.501   0.860   1.479  0.0164  0.0745  0.7473
16912SOL    HW152177   0.408   0.878   1.492 -0.0753 -1.2161  2.2042
16912SOL    HW252178   0.524   0.909   1.400 -2.3536 -1.0901 -0.8057
16913SOL     OW52179   3.460   4.352   3.152  0.2581  0.1807  0.3363
16913SOL    HW152180   3.488   4.411   3.082  0.7769 -2.0760 -1.5064
16913SOL    HW252181   3.365   4.362   3.155  0.1527 -0.0806 -1.1492
16914SOL     OW52182   2.550   1.542   7.066 -0.1892  0.6049  0.1047
16914SOL    HW152183   2.573   1.563   7.156  1.0870  1.9366 -0.4954
16914SOL    HW252184   2.599   1.461   7.047 -0.5864  0.2322  0.6348
16915SOL     OW52185   4.755   7.467  11.374  0.0897  0.1348  0.0746
16915SOL    HW152186   4.825   7.532  11.379 -0.1515  0.4023 -0.0282
16915SOL    HW252187   4.730   7.450  11.465  0.5379 -0.2356  0.1332
16916SOL     OW52188   3.212   5.632   5.815  0.1431  0.6491  0.5512
16916SOL    HW152189   3.184   5.556   5.866  1.6721 -0.3670 -0.0647
16916SOL    HW252190   3.305   5.615   5.796  0.0144  1.7501 -1.2216
16917SOL     OW52191   4.719   7.224   0.603  0.4477  0.7814  0.0056
16917SOL    HW152192   4.729   7.208   0.697  0.2900 -0.8002 -0.2173
16917SOL    HW252193   4.751   7.144   0.561 -1.0641  0.7629 -1.2097
16918SOL     OW52194   4.077   7.848   4.392 -0.4182 -0.6498  0.6262
16918SOL    HW152195   4.167   7.817   4.393 -0.4097 -0.6265  1.5982
16918SOL    HW252196   4.075   7.915   4.324  0.0233 -1.4218 -0.1700
16919SOL     OW52197   7.815   5.255   7.310  0.1472  0.0526 -0.5665
16919SOL    HW152198   7.776   5.168   7.303 -1.9146  0.7638  1.0290
16919SOL    HW252199   7.813   5.290   7.221 -2.4041 -0.2054 -0.6824
16920SOL     OW52200   7.017   1.896   0.106  0.3354  0.6328  0.1911
16920SOL    HW152201   7.111   1.907   0.092  0.7981  0.2769  2.6613
16920SOL    HW252202   6.998   1.808   0.076  0.8171  0.6462 -0.1644
16921SOL     OW52203   1.346   2.874  10.081 -0.1622  0.2039  0.4201
16921SOL    HW152204   1.348   2.950  10.138  2.3898  1.2030 -0.8327
16921SOL    HW252205   1.373   2.801  10.136  0.3184  0.7684  0.9346
16922SOL     OW52206   7.771   6.793   8.944 -0.5538  0.3192  0.0869
16922SOL    HW152207   7.705   6.747   8.996  0.9040 -0.8891  0.9633
16922SOL    HW252208   7.748   6.885   8.952 -0.2512  0.2522  3.2251
16923SOL     OW52209   7.527   4.862   9.363  0.1645 -0.3115  0.6736
16923SOL    HW152210   7.521   4.957   9.371 -0.5500 -0.3500  0.6400
16923SOL    HW252211   7.620   4.845   9.348 -0.1063  0.6253 -2.8075
16924SOL     OW52212   6.334   1.091   0.438  0.4470 -0.2505  0.0721
16924SOL    HW152213   6.251   1.045   0.449  1.4775 -2.3355 -0.2217
16924SOL    HW252214   6.325   1.140   0.356 -1.0578  0.9754  0.9323
16925SOL     OW52215   2.219   3.918   7.448  0.0937 -0.3402  0.0472
16925SOL    HW152216   2.138   3.963   7.475  0.0047 -0.6032  0.2264
16925SOL    HW252217   2.214   3.833   7.491  0.8474 -0.0623  0.7135
16926SOL     OW52218   1.307   5.711   6.967  0.4951  0.3231 -0.1723
16926SOL    HW152219   1.302   5.719   6.871 -0.1433 -0.7522 -0.2441
16926SOL    HW252220   1.223   5.675   6.992  0.6362  0.6568  0.8201
16927SOL     OW52221   3.026   0.499  12.003  0.0086  0.1039 -0.0758
16927SOL    HW152222   2.983   0.568  12.053  2.0817  2.0936 -0.8473
16927SOL    HW252223   3.117   0.503  12.031  1.1773  1.0209 -3.5211
16928SOL     OW52224   6.996   0.989   7.359  0.3778  0.5950 -0.8361
16928SOL    HW152225   7.014   0.957   7.447  3.2927  0.8670 -1.2194
16928SOL    HW252226   7.007   0.912   7.302 -1.4357  0.4290 -1.0094
16929SOL     OW52227   1.181   7.091   9.504 -0.2326 -0.8934 -0.5380
16929SOL    HW152228   1.107   7.124   9.555 -0.3280  0.9677 -1.7825
16929SOL    HW252229   1.140   7.042   9.432 -0.3233  0.4922 -1.4669
16930SOL     OW52230   0.513   6.038   5.551 -0.1535 -0.0664  0.4408
16930SOL    HW152231   0.607   6.025   5.559  0.1588  1.1633 -0.7671
16930SOL    HW252232   0.499   6.054   5.457 -1.4719  0.3409  0.6842
16931SOL     OW52233   4.864   1.123   9.858 -0.5022  0.2899  0.6696
16931SOL    HW152234   4.818   1.161   9.933 -1.9432 -2.1967  1.1751
16931SOL    HW252235   4.915   1.051   9.895 -0.8348 -0.6553 -0.6318
16932SOL     OW52236   1.609   2.161   9.516 -0.0998  0.1410 -0.0234
16932SOL    HW152237   1.517   2.176   9.537  0.0093  0.9410 -0.1161
16932SOL    HW252238   1.624   2.207   9.434 -0.0524 -1.4588 -0.9472
16933SOL     OW52239   2.130   5.145  10.613 -0.1748 -0.7164  0.3301
16933SOL    HW152240   2.204   5.122  10.557  0.3481  1.0277  0.2328
16933SOL    HW252241   2.053   5.119  10.562  0.3189 -0.2469 -0.7092
16934SOL     OW52242   6.088   4.032   5.430  0.5495 -0.2966 -0.2831
16934SOL    HW152243   6.012   4.073   5.389  0.2635 -1.9536 -1.5268
16934SOL    HW252244   6.055   3.949   5.463  1.5871 -0.5534  0.1349
16935SOL     OW52245   6.143   3.809  10.352 -0.0866  0.5721 -0.6498
16935SOL    HW152246   6.107   3.824  10.264  0.6879  0.8262 -0.9352
16935SOL    HW252247   6.085   3.858  10.410 -2.5023 -2.1124 -0.6025
16936SOL     OW52248   3.764   7.568  11.918  0.8041 -0.6136  0.0893
16936SOL    HW152249   3.781   7.475  11.901  0.0628 -0.4240 -2.0436
16936SOL    HW252250   3.806   7.613  11.845 -0.5939  0.5472 -0.0482
16937SOL     OW52251   1.921   2.306   9.045  0.2077  0.0526  0.1460
16937SOL    HW152252   1.963   2.261   8.972  0.2933  1.9320 -1.0319
16937SOL    HW252253   1.976   2.383   9.061 -0.8915  0.7281  0.8571
16938SOL     OW52254   2.717   0.249   7.953 -0.4145  0.3259 -0.0331
16938SOL    HW152255   2.769   0.169   7.953 -0.3694  0.3403  1.0575
16938SOL    HW252256   2.682   0.254   7.864  1.0946  0.1010 -0.6694
16939SOL     OW52257   7.755   2.408   1.638  0.4858 -0.6350  0.6670
16939SOL    HW152258   7.670   2.402   1.682  0.9301 -1.9741  1.4167
16939SOL    HW252259   7.817   2.427   1.708  0.6327  2.1888 -0.1291
16940SOL     OW52260   0.186   1.737   3.745 -0.3404  0.1414  0.3475
16940SOL    HW152261   0.174   1.808   3.807  0.0103 -0.6156  1.3069
16940SOL    HW252262   0.116   1.675   3.765 -0.1962 -0.1317  0.0266
16941SOL     OW52263   6.200   5.287   0.105  0.2294  0.3783  0.0628
16941SOL    HW152264   6.122   5.237   0.081  2.1563 -2.5379 -0.5952
16941SOL    HW252265   6.225   5.252   0.191  0.5005  1.7490  0.5714
16942SOL     OW52266   0.548   5.592   9.625  0.4865  0.1321  0.1343
16942SOL    HW152267   0.516   5.557   9.542 -0.2928  0.5467  0.2520
16942SOL    HW252268   0.469   5.608   9.676  0.9759 -0.3967  1.0767
16943SOL     OW52269   7.443   6.254   0.459  0.0898  0.0287  0.7604
16943SOL    HW152270   7.453   6.230   0.366 -0.4850 -0.1236  0.7335
16943SOL    HW252271   7.366   6.204   0.488  0.2417  0.1111  1.3072
16944SOL     OW52272   0.113   7.706   3.274  0.0091 -0.3829  0.0001
16944SOL    HW152273   0.138   7.791   3.309 -1.5221  0.2161 -0.2664
16944SOL    HW252274   0.057   7.726   3.199  1.0352 -1.6434 -1.1655
16945SOL     OW52275   1.224   0.331   6.156  0.0544  0.1338 -0.6729
16945SOL    HW152276   1.270   0.360   6.077  3.5030  0.8118  1.3871
16945SOL    HW252277   1.245   0.397   6.222 -2.2816 -0.6699  1.0110
16946SOL     OW52278   7.297   4.677   2.420  0.2671  0.1431  0.2396
16946SOL    HW152279   7.307   4.619   2.345  0.7693  1.7601 -1.0080
16946SOL    HW252280   7.218   4.728   2.402  1.7659  2.3570 -0.5623
16947SOL     OW52281   0.839   1.485   6.131 -0.0639 -0.5206 -0.2916
16947SOL    HW152282   0.793   1.569   6.133 -0.7289 -0.8923  0.4578
16947SOL    HW252283   0.909   1.495   6.195 -0.7879 -0.8858  0.5753
16948SOL     OW52284   3.727   4.208   0.541 -0.2454 -0.5577  0.0530
16948SOL    HW152285   3.789   4.184   0.473  1.2315  0.6031  0.9345
16948SOL    HW252286   3.677   4.280   0.503 -0.1510 -0.6179 -0.1866
16949SOL     OW52287   0.644   4.052   8.676  0.0647  0.3053 -0.0988
16949SOL    HW152288   0.727   4.005   8.678 -0.1634 -0.0773  0.3079
16949SOL    HW252289   0.638   4.094   8.762 -0.5037 -0.2579  0.1420
16950SOL     OW52290   2.903   2.890   4.383 -0.2779 -0.3965 -0.4191
16950SOL    HW152291   2.820   2.841   4.386 -0.3238 -0.3342  3.0603
16950SOL    HW252292   2.970   2.822   4.390 -0.2539 -0.2435  1.3667
16951SOL     OW52293   0.071   7.661  12.472  0.1468 -0.4154  0.2038
16951SOL    HW152294   0.003   7.596  12.488 -0.4738 -0.0445 -0.8241
16951SOL    HW252295   0.130   7.654  12.547 -2.9095  1.7122  3.0941
16952SOL     OW52296   3.278   0.285   5.904 -0.4033 -0.0469 -0.2563
16952SOL    HW152297   3.329   0.353   5.948  0.3574 -0.6065 -0.2381
16952SOL    HW252298   3.187   0.310   5.918 -0.1342  0.9141 -0.1809
16953SOL     OW52299   0.134   2.548   9.541  0.0171 -0.8072 -0.1156
16953SOL    HW152300   0.230   2.548   9.543  0.0259  0.0707 -0.3657
16953SOL    HW252301   0.111   2.601   9.465 -0.6736 -2.2519 -0.9742
16954SOL     OW52302   3.225   6.351   1.329 -0.0519  0.1411  0.6275
16954SOL    HW152303   3.278   6.275   1.354 -0.4041 -0.0309  0.8633
16954SOL    HW252304   3.203   6.393   1.412  0.2999  0.6123  0.4837
16955SOL     OW52305   0.283   7.228   4.507 -0.2581 -0.6075  0.1615
16955SOL    HW152306   0.188   7.241   4.508 -0.1626  0.2711  2.2638
16955SOL    HW252307   0.303   7.189   4.592  1.3386 -0.2138 -0.0031
16956SOL     OW52308   1.888   7.927  10.487 -0.3281 -0.1994  0.5677
16956SOL    HW152309   1.810   7.967  10.449 -0.6760 -0.6090  0.8401
16956SOL    HW252310   1.954   7.996  10.485 -1.1619  0.6872  1.8011
16957SOL     OW52311   0.017   1.082  12.259  0.5584  0.0517  0.0169
16957SOL    HW152312   0.025   1.037  12.175 -0.7466 -0.6212  0.2293
16957SOL    HW252313   0.105   1.079  12.296  1.0555 -0.0249 -1.1338
16958SOL     OW52314   3.419   0.975   6.778  0.0224 -0.4013  0.0806
16958SOL    HW152315   3.368   0.983   6.858 -1.3222 -1.3912 -0.6334
16958SOL    HW252316   3.387   1.045   6.721  0.1874 -0.3947 -0.0081
16959SOL     OW52317   7.944   6.866   1.954 -0.2356  0.3648  0.0727
16959SOL    HW152318   7.923   6.868   1.860 -1.6047 -1.7939  0.2610
16959SOL    HW252319   8.039   6.855   1.957 -0.2369 -0.1592 -1.0866
16960SOL     OW52320   4.749   7.122   8.274 -0.0027 -0.0737 -0.7104
16960SOL    HW152321   4.833   7.076   8.272  0.2730  0.3927 -0.1093
16960SOL    HW252322   4.739   7.157   8.186  1.1846  1.1786 -0.3815
16961SOL     OW52323   1.131   2.016   3.845 -0.3496  0.3429 -0.2148
16961SOL    HW152324   1.067   1.992   3.911  0.3106 -0.8520  0.0191
16961SOL    HW252325   1.189   1.940   3.838  0.0420  0.7268 -1.6330
16962SOL     OW52326   2.683   3.730   4.398 -0.2946  0.1847 -0.1853
16962SOL    HW152327   2.751   3.667   4.421 -1.2703  0.1218  3.0780
16962SOL    HW252328   2.694   3.801   4.461 -2.9950  0.3143  0.2563
16963SOL     OW52329   7.641   4.111   8.275  0.3481 -0.2192 -0.4104
16963SOL    HW152330   7.686   4.106   8.191 -1.1836  3.2720 -1.6324
16963SOL    HW252331   7.575   4.041   8.271  1.3540 -1.1574 -1.3346
16964SOL     OW52332   1.008   1.201  11.831  0.4292  0.3772  0.5004
16964SOL    HW152333   1.092   1.182  11.790 -0.1923 -0.4624 -0.4192
16964SOL    HW252334   0.961   1.255  11.767  0.6172  1.6926  1.4193
16965SOL     OW52335   1.931   1.817   3.320  0.6324  0.1561  0.5806
16965SOL    HW152336   1.873   1.893   3.317 -0.7135 -0.8403  0.7244
16965SOL    HW252337   1.995   1.833   3.250 -1.7303 -0.2142 -1.8057
16966SOL     OW52338   2.654   3.423   9.807 -0.5118  0.4217  0.1924
16966SOL    HW152339   2.678   3.330   9.804 -1.3470  0.2188 -0.7374
16966SOL    HW252340   2.738   3.469   9.812 -0.0409 -0.3554 -0.3200
16967SOL     OW52341   0.572   6.030   6.156  0.4007  0.0252  0.4076
16967SOL    HW152342   0.626   6.107   6.138 -1.3840  1.0471 -0.8043
16967SOL    HW252343   0.548   5.997   6.070  1.3942 -2.1555  0.8854
16968SOL     OW52344   2.711   6.168   0.149 -0.3119 -0.1039  0.5341
16968SOL    HW152345   2.723   6.074   0.164 -1.0018 -0.0880  1.2429
16968SOL    HW252346   2.644   6.194   0.211 -0.7415  0.6954 -0.2434
16969SOL     OW52347   5.616   5.463  12.106  0.3185  0.2431  0.1050
16969SOL    HW152348   5.572   5.537  12.147 -1.5090  0.1506 -1.5485
16969SOL    HW252349   5.660   5.418  12.179 -0.6853  1.4752  1.5306
16970SOL     OW52350   3.400   7.874   3.210 -0.0522  0.1349 -0.2262
16970SOL    HW152351   3.399   7.958   3.164  0.4173  0.4620  0.3477
16970SOL    HW252352   3.345   7.888   3.287  0.9231  0.2742  0.4662
16971SOL     OW52353   4.184   3.002  10.043 -0.5652  0.4499  0.3817
16971SOL    HW152354   4.174   2.966  10.131 -1.2768 -0.5090 -0.0672
16971SOL    HW252355   4.174   3.097  10.054 -0.7222  0.3302  1.3226
16972SOL     OW52356   1.383   5.225  10.560  0.0933 -0.8416  0.3173
16972SOL    HW152357   1.308   5.174  10.530 -0.1053 -0.2826 -0.1643
16972SOL    HW252358   1.356   5.316  10.548  1.2713 -0.6285 -0.9864
16973SOL     OW52359   5.622   0.463   4.333 -0.3780  0.4379 -0.0117
16973SOL    HW152360   5.615   0.516   4.254  0.4189  0.2741 -0.1934
16973SOL    HW252361   5.621   0.527   4.405 -0.3191  0.6327 -0.1852
16974SOL     OW52362   1.235   0.580   5.530  0.5515  0.5575  0.1776
16974SOL    HW152363   1.216   0.671   5.554  0.9448  1.0973 -1.4504
16974SOL    HW252364   1.262   0.584   5.439  2.7327 -0.9397  0.6822
16975SOL     OW52365   2.325   0.048   2.467  0.4661  0.1551  0.3575
16975SOL    HW152366   2.333   0.133   2.424 -0.9616 -0.3804 -1.0751
16975SOL    HW252367   2.257   0.060   2.533 -0.6481 -0.1170 -0.6814
16976SOL     OW52368   7.748   5.998   6.500 -0.3115  0.3118  0.2674
16976SOL    HW152369   7.655   5.978   6.494 -0.1004 -0.8990  0.7342
16976SOL    HW252370   7.777   5.957   6.581  0.2032  2.5557  1.3012
16977SOL     OW52371   3.456   2.838   2.548  0.4499  0.3808  0.2798
16977SOL    HW152372   3.466   2.845   2.642 -1.4852 -0.3965  0.5986
16977SOL    HW252373   3.366   2.865   2.531 -0.5629 -3.0558 -0.7946
16978SOL     OW52374   7.204   5.151  12.230 -0.3321  0.5491 -0.1477
16978SOL    HW152375   7.240   5.139  12.142  0.6224  0.8437  0.1803
16978SOL    HW252376   7.236   5.075  12.279 -2.2198 -0.4858 -0.4377
16979SOL     OW52377   2.993   7.571  11.386 -0.3353  0.0397 -0.0254
16979SOL    HW152378   2.991   7.506  11.316  0.3862 -0.6344  0.5585
16979SOL    HW252379   2.976   7.521  11.466 -0.7298  0.7292  0.3341
16980SOL     OW52380   0.126   6.528   9.765  0.4871 -0.3369  0.3122
16980SOL    HW152381   0.105   6.435   9.776 -1.5135  0.2074  1.5444
16980SOL    HW252382   0.059   6.561   9.705  1.2030  0.3332 -0.1449
16981SOL     OW52383   1.145   4.584  11.548  0.1407  0.1202 -0.2146
16981SOL    HW152384   1.075   4.591  11.483 -0.1571 -1.7672 -0.1601
16981SOL    HW252385   1.102   4.601  11.632 -0.1576 -0.4966 -0.2349
16982SOL     OW52386   0.819   0.510   3.946 -0.4853 -0.4007 -0.3453
16982SOL    HW152387   0.855   0.558   3.871 -2.8840  0.3449 -1.1174
16982SOL    HW252388   0.826   0.572   4.019  3.2794 -1.6623  0.5828
16983SOL     OW52389   3.400   0.140   7.413 -0.2119 -0.2346  0.1616
16983SOL    HW152390   3.433   0.195   7.484 -1.0380  0.2979  0.1485
16983SOL    HW252391   3.474   0.132   7.353  0.8521 -1.5535  1.5420
16984SOL     OW52392   7.243   5.676   6.881 -0.4991 -0.3700  0.5381
16984SOL    HW152393   7.312   5.620   6.916 -2.0182 -1.3296  2.1500
16984SOL    HW252394   7.270   5.765   6.904  1.4154 -0.4228 -1.1236
16985SOL     OW52395   6.924   1.156   0.896 -0.7820 -0.4580 -0.1482
16985SOL    HW152396   6.885   1.102   0.965 -1.5227  1.1472  0.7409
16985SOL    HW252397   6.998   1.200   0.938 -0.5739 -0.2936 -0.6734
16986SOL     OW52398   5.656   6.711   9.680  0.2914 -0.1306  0.3483
16986SOL    HW152399   5.606   6.638   9.644 -0.8069  0.8617 -0.2053
16986SOL    HW252400   5.663   6.774   9.608  2.2637 -0.1701  0.4411
16987SOL     OW52401   5.051   7.039   9.108  0.5000  0.2272 -0.2434
16987SOL    HW152402   4.981   7.090   9.148  0.4665 -0.1605  0.2029
16987SOL    HW252403   5.124   7.100   9.101  0.9395 -0.0151  1.6206
16988SOL     OW52404   4.389   5.713   3.676  0.4696  0.2952 -0.0965
16988SOL    HW152405   4.300   5.744   3.660  0.2118  0.4017  1.4136
16988SOL    HW252406   4.441   5.754   3.606 -0.5869  0.5345 -0.7691
16989SOL     OW52407   4.556   2.270   4.165  0.2413 -0.6580 -0.4678
16989SOL    HW152408   4.551   2.320   4.084  0.5824 -0.5417 -0.4197
16989SOL    HW252409   4.639   2.298   4.205  0.0129 -0.6124 -0.0180
16990SOL     OW52410   0.849   6.394   0.860 -0.2701  0.2215 -0.0241
16990SOL    HW152411   0.932   6.350   0.843  0.2727  0.8713  0.8329
16990SOL    HW252412   0.856   6.479   0.817 -1.4807 -0.6286 -2.0334
16991SOL     OW52413   1.340   7.316  12.076 -0.3048  0.0294 -1.0146
16991SOL    HW152414   1.303   7.280  11.996  1.6946 -0.2293 -1.8852
16991SOL    HW252415   1.407   7.378  12.046  0.1052  0.3309  0.4542
16992SOL     OW52416   3.356   0.953   5.924  0.0607  0.3808 -1.1133
16992SOL    HW152417   3.366   0.999   6.008 -2.5406 -2.7338  1.1972
16992SOL    HW252418   3.295   1.007   5.875  1.0234  1.8899 -0.7132
16993SOL     OW52419   2.179   6.223   9.546  0.9161 -0.2173  0.6034
16993SOL    HW152420   2.270   6.214   9.575  1.2323  0.5118 -0.1261
16993SOL    HW252421   2.138   6.278   9.613  1.3862  0.6214  0.2251
16994SOL     OW52422   4.224   4.119   8.141 -0.1595  0.4594 -0.3066
16994SOL    HW152423   4.165   4.070   8.084  1.7956 -0.3322 -1.7550
16994SOL    HW252424   4.197   4.095   8.229 -0.4811 -1.7986 -0.9520
16995SOL     OW52425   4.023   1.340  11.439  0.4403  0.6170  0.5477
16995SOL    HW152426   3.969   1.367  11.365  1.2156 -0.3899 -0.4119
16995SOL    HW252427   4.097   1.401  11.438  0.6496  0.3606  0.2467
16996SOL     OW52428   6.719   1.723  10.434 -0.3316 -0.5735 -0.4111
16996SOL    HW152429   6.705   1.818  10.431 -0.2937 -0.4696  1.4948
16996SOL    HW252430   6.803   1.710  10.391  0.0055  0.3382 -0.0423
16997SOL     OW52431   7.784   6.461   0.677  0.7441 -0.0956 -0.5468
16997SOL    HW152432   7.721   6.503   0.619  0.0952  0.0482  0.2325
16997SOL    HW252433   7.844   6.415   0.619  0.4965  0.5683 -1.3494
16998SOL     OW52434   4.375   2.044   7.606  0.2411 -0.6957  0.8428
16998SOL    HW152435   4.340   2.132   7.609  0.1765 -0.7499  2.2817
16998SOL    HW252436   4.452   2.051   7.549 -0.3058  0.0776  0.1864
16999SOL     OW52437   2.096   3.865  12.090  0.3183 -0.0711  0.3438
16999SOL    HW152438   2.157   3.936  12.069 -0.2377  0.5523  0.7939
16999SOL    HW252439   2.075   3.826  12.005 -0.4304  1.1976 -0.0986
17000SOL     OW52440   5.932   3.443   1.495  0.7860 -0.5420  0.5524
17000SOL    HW152441   5.892   3.380   1.553 -1.1550 -1.3624 -1.5338
17000SOL    HW252442   5.904   3.528   1.529  0.8454 -0.9235  1.5907
17001SOL     OW52443   2.156   5.052   7.552 -0.1265 -0.1333  0.2770
17001SOL    HW152444   2.172   5.061   7.458 -1.2379 -1.0495 -0.0214
17001SOL    HW252445   2.164   4.958   7.568  0.9617  0.1158  1.2886
17002SOL     OW52446   1.244   2.514   1.357 -0.0651 -0.7928 -0.4410
17002SOL    HW152447   1.184   2.440   1.365 -0.9022 -0.0203  0.7101
17002SOL    HW252448   1.198   2.576   1.300  0.6552 -1.1434 -1.4424
17003SOL     OW52449   5.062   5.064   1.121  0.0344 -0.3430 -0.0473
17003SOL    HW152450   5.072   4.992   1.183 -2.3676 -0.8746 -0.1932
17003SOL    HW252451   5.137   5.055   1.062  0.2912 -2.1520  0.5082
17004SOL     OW52452   2.305   1.045   2.582 -0.1425 -0.2561  0.2977
17004SOL    HW152453   2.232   1.103   2.558  0.1036  0.3073  0.9049
17004SOL    HW252454   2.271   0.993   2.655 -0.1069 -0.3527  0.2456
17005SOL     OW52455   6.920   4.465   5.993 -0.1999  0.2479 -0.0123
17005SOL    HW152456   6.993   4.414   5.957 -0.9256 -0.8198 -0.0357
17005SOL    HW252457   6.960   4.545   6.025  1.0656 -0.5027  0.3630
17006SOL     OW52458   5.150   3.688   0.931 -0.1050 -0.2225 -0.0230
17006SOL    HW152459   5.130   3.699   1.024 -2.2258  0.1394 -0.4676
17006SOL    HW252460   5.245   3.673   0.928  0.0844  0.2441  2.1379
17007SOL     OW52461   4.055   3.983   9.438  0.1833 -0.7432 -0.4788
17007SOL    HW152462   4.151   3.982   9.439  0.1939 -1.0198 -0.9751
17007SOL    HW252463   4.030   3.972   9.530  0.6257 -0.4456 -0.3176
17008SOL     OW52464   2.230   0.195   4.201  0.7737 -0.1778  0.3510
17008SOL    HW152465   2.270   0.272   4.240  1.2246 -0.2162 -0.0279
17008SOL    HW252466   2.136   0.210   4.208  0.8606  0.3507  0.3872
17009SOL     OW52467   1.526   6.528   0.084 -0.3275 -0.2445  0.2291
17009SOL    HW152468   1.529   6.458   0.018  0.6818 -0.9359  0.9617
17009SOL    HW252469   1.564   6.604   0.040  0.9191 -0.8662  0.1764
17010SOL     OW52470   1.247   5.446   6.635  0.0226  0.3980  0.0489
17010SOL    HW152471   1.251   5.432   6.730 -0.7855  1.2676  0.2219
17010SOL    HW252472   1.180   5.384   6.605  1.6284 -1.2677 -0.2595
17011SOL     OW52473   1.979   2.787  10.371  0.5810  0.1744 -0.5280
17011SOL    HW152474   1.995   2.733  10.294  2.2661 -1.1620  0.6851
17011SOL    HW252475   2.029   2.867  10.356  0.0500  0.3704 -1.2693
17012SOL     OW52476   1.160   3.090   9.094  0.1443  0.0002  0.2306
17012SOL    HW152477   1.070   3.064   9.108  0.1424 -0.8087 -1.0895
17012SOL    HW252478   1.168   3.175   9.138 -1.8686  1.1380 -1.4000
17013SOL     OW52479   2.528   2.078   9.664 -0.1428 -0.2600 -0.4907
17013SOL    HW152480   2.622   2.095   9.656 -0.0495  0.0319  0.9177
17013SOL    HW252481   2.492   2.101   9.579  0.8613  1.0182 -0.5941
17014SOL     OW52482   1.847   1.733   3.755 -0.5403 -0.1591 -0.0647
17014SOL    HW152483   1.822   1.820   3.726  1.9110  0.6077 -0.1164
17014SOL    HW252484   1.876   1.688   3.676  3.1621  0.8660  0.5251
17015SOL     OW52485   7.833   1.773   8.056  0.3962  0.3198 -0.5881
17015SOL    HW152486   7.859   1.735   7.972  1.7009 -0.4950  0.1506
17015SOL    HW252487   7.915   1.790   8.102 -0.2886  0.6698  0.5620
17016SOL     OW52488   5.090   2.693  10.384  0.6794 -0.2652 -0.0616
17016SOL    HW152489   5.123   2.723  10.300 -1.7845  0.5719 -0.8182
17016SOL    HW252490   5.140   2.743  10.449  0.8457  1.0036 -1.1319
17017SOL     OW52491   0.348   2.590   6.858  0.4341  0.1824 -0.1110
17017SOL    HW152492   0.443   2.601   6.865  0.5487  0.5716 -1.7934
17017SOL    HW252493   0.337   2.509   6.808 -0.0530  0.9562 -1.3048
17018SOL     OW52494   2.402   2.754   9.514 -0.2063  0.2172  0.2309
17018SOL    HW152495   2.481   2.792   9.553  2.2074 -2.7036 -1.3749
17018SOL    HW252496   2.383   2.677   9.568  0.2842 -1.1331 -1.4416
17019SOL     OW52497   0.351   2.157   9.298 -0.0768  0.1121 -0.0386
17019SOL    HW152498   0.257   2.137   9.292  0.2688 -1.5877 -0.3049
17019SOL    HW252499   0.391   2.075   9.327  1.4578  0.4817 -1.0190
17020SOL     OW52500   5.058   7.025   4.110  0.1773  0.4042  0.3704
17020SOL    HW152501   5.102   6.984   4.185 -0.9898  1.1815  1.5302
17020SOL    HW252502   4.969   6.991   4.114  0.6082 -1.3021 -2.0567
17021SOL     OW52503   5.737   6.385   5.950  0.0863  0.1967  0.1823
17021SOL    HW152504   5.691   6.319   6.001 -0.1704 -0.1830 -0.5174
17021SOL    HW252505   5.679   6.461   5.951  1.3717  1.2420  2.8511
17022SOL     OW52506   2.441   3.848   0.099  0.5074  0.1928  0.0030
17022SOL    HW152507   2.454   3.906   0.175 -0.0020  0.4993 -0.1387
17022SOL    HW252508   2.415   3.764   0.137  0.0569  0.4026  0.1614
17023SOL     OW52509   1.065   2.107   3.600 -0.1210  0.8435 -0.2357
17023SOL    HW152510   0.984   2.158   3.609  0.7097  2.0640  0.6623
17023SOL    HW252511   1.092   2.090   3.690  0.2422 -0.1933 -0.5334
17024SOL     OW52512   1.716   4.931  11.859  0.3100  0.4262 -0.0023
17024SOL    HW152513   1.724   4.941  11.954 -0.0786  1.9978 -0.1186
17024SOL    HW252514   1.792   4.878  11.834  1.3356  1.3980  0.9744
17025SOL     OW52515   7.489   0.069   2.965 -0.0174  0.1346 -0.9181
17025SOL    HW152516   7.425   0.115   2.910 -1.9010 -1.3971 -0.1271
17025SOL    HW252517   7.554   0.135   2.985 -2.3611  2.3996 -0.1570
17026SOL     OW52518   4.369   0.138   4.885 -0.6020 -0.0614 -0.3418
17026SOL    HW152519   4.300   0.086   4.845 -1.5987  0.4001  0.7276
17026SOL    HW252520   4.392   0.092   4.965 -0.3789  0.3156 -0.1830
17027SOL     OW52521   4.110   7.132   2.993 -0.2838 -0.1027  0.0546
17027SOL    HW152522   4.197   7.158   2.963 -0.3467 -0.7256 -0.7047
17027SOL    HW252523   4.077   7.208   3.041  0.8672 -0.0390  0.7827
17028SOL     OW52524   0.942   3.812  10.759 -0.4258 -0.2265  0.2932
17028SOL    HW152525   0.890   3.735  10.782 -0.3231 -0.7147 -1.0532
17028SOL    HW252526   0.997   3.783  10.686 -0.1393  1.0290 -0.0061
17029SOL     OW52527   1.980   0.510   5.220  0.1418  0.6373  0.5553
17029SOL    HW152528   2.068   0.472   5.211  0.1460  0.7264  0.2072
17029SOL    HW252529   1.922   0.434   5.225  0.1115  0.5765 -0.5357
17030SOL     OW52530   5.705   3.559  11.209  0.1039 -0.3360 -0.6130
17030SOL    HW152531   5.693   3.638  11.158  0.1312 -0.3486 -0.6392
17030SOL    HW252532   5.723   3.491  11.144  2.0492  0.0063 -0.4915
17031SOL     OW52533   4.040   5.466   3.766 -0.3600 -0.4454 -0.5742
17031SOL    HW152534   4.041   5.370   3.769 -1.2563 -0.4971 -1.4987
17031SOL    HW252535   4.116   5.492   3.818  0.4625 -1.6720 -1.1255
17032SOL     OW52536   5.203   1.806   2.627 -0.0467  0.5425  0.3351
17032SOL    HW152537   5.114   1.818   2.660 -1.3400 -0.9356 -2.2658
17032SOL    HW252538   5.242   1.893   2.633 -2.2299  1.6198  0.0974
17033SOL     OW52539   0.036   3.075   8.133  0.2430  0.0521 -0.3734
17033SOL    HW152540   0.117   3.030   8.159 -0.4886 -0.7145  0.6837
17033SOL    HW252541   0.013   3.128   8.209  0.7613  1.7989 -1.3874
17034SOL     OW52542   2.284   1.626   5.706  0.1650 -0.2191  0.6658
17034SOL    HW152543   2.330   1.555   5.661 -0.2743  0.1348 -0.3536
17034SOL    HW252544   2.309   1.615   5.798 -1.1108 -2.6479  0.8000
17035SOL     OW52545   0.774   4.345   3.916  0.3532  0.0183  0.3200
17035SOL    HW152546   0.765   4.418   3.855 -1.0032  0.0070  0.4677
17035SOL    HW252547   0.795   4.269   3.861 -1.0063 -0.0220 -0.1670
17036SOL     OW52548   7.954   7.253   0.710  0.2295 -0.4432 -0.0798
17036SOL    HW152549   7.934   7.169   0.669  0.3434 -0.5532  0.0900
17036SOL    HW252550   7.877   7.307   0.692  0.0235 -0.6784  0.0690
17037SOL     OW52551   5.812   7.304   8.624  0.4352  0.1060  0.3541
17037SOL    HW152552   5.782   7.240   8.559 -0.9757  0.3126  0.7798
17037SOL    HW252553   5.851   7.374   8.572  2.2390 -1.1677 -0.1212
17038SOL     OW52554   6.826   0.293   6.526  0.0611 -0.3818 -0.7565
17038SOL    HW152555   6.875   0.234   6.468  0.9364  0.6561 -1.1107
17038SOL    HW252556   6.820   0.375   6.477  0.7212  0.4777  0.5593
17039SOL     OW52557   1.475   3.562   6.256  0.0458 -0.0413 -0.6635
17039SOL    HW152558   1.442   3.543   6.168 -1.6301 -1.7162  0.2539
17039SOL    HW252559   1.493   3.476   6.294 -2.9839  0.2878  1.9380
17040SOL     OW52560   1.816   5.980   6.209  0.7506  0.7233  0.2829
17040SOL    HW152561   1.733   5.955   6.168  0.3033 -0.2654  1.6937
17040SOL    HW252562   1.793   6.048   6.273  0.4772 -1.3781  2.5984
17041SOL     OW52563   2.178   7.429   6.880 -0.3381 -0.0334 -0.3983
17041SOL    HW152564   2.168   7.495   6.811 -0.7730  0.0761 -0.2302
17041SOL    HW252565   2.130   7.464   6.954  0.9282  0.3000  0.2928
17042SOL     OW52566   1.181   7.284   6.211 -0.4109  0.2145  0.5241
17042SOL    HW152567   1.109   7.222   6.204 -0.6780  0.5732  0.0686
17042SOL    HW252568   1.221   7.285   6.124 -0.6865  1.0121  0.4016
17043SOL     OW52569   7.026   4.351   7.162  0.4492  0.0470  0.0012
17043SOL    HW152570   7.043   4.330   7.071  2.2285  2.0244 -0.1935
17043SOL    HW252571   7.113   4.358   7.202 -0.2681  0.1862  1.6257
17044SOL     OW52572   6.853   1.010   6.446 -0.2566 -0.1695  0.2339
17044SOL    HW152573   6.934   1.012   6.394 -0.2211 -1.8197  0.1750
17044SOL    HW252574   6.874   1.061   6.524  0.5769  0.0935 -0.1490
17045SOL     OW52575   0.981   6.428   8.983  0.1155 -0.0580 -0.7011
17045SOL    HW152576   1.006   6.502   9.039  2.2253  0.2958 -2.0232
17045SOL    HW252577   1.038   6.356   9.011 -0.3743 -0.5354 -0.9142
17046SOL     OW52578   1.926   6.783   1.235 -0.6185 -0.1730  0.1299
17046SOL    HW152579   1.998   6.783   1.298 -0.5125  1.0642  0.0319
17046SOL    HW252580   1.860   6.725   1.274 -0.4361  0.3499  1.2375
17047SOL     OW52581   4.391   5.479   7.517 -0.3511 -0.0038  0.0448
17047SOL    HW152582   4.449   5.429   7.574 -0.1538 -0.6738 -0.7204
17047SOL    HW252583   4.304   5.447   7.538 -0.1475 -1.4715 -1.1634
17048SOL     OW52584   4.056   1.604   1.202 -0.4222  0.8610 -0.2190
17048SOL    HW152585   4.146   1.589   1.173 -0.9752  0.3953 -1.7718
17048SOL    HW252586   4.042   1.698   1.188 -0.8242  0.5650 -1.9521
17049SOL     OW52587   0.281   5.856   0.997  0.0387 -0.0224 -0.2075
17049SOL    HW152588   0.319   5.782   0.950 -2.0745 -1.6363  0.4551
17049SOL    HW252589   0.340   5.929   0.980  1.9667 -1.7417 -1.2661
17050SOL     OW52590   5.878   3.543   0.214 -0.5894 -0.4135 -0.0440
17050SOL    HW152591   5.910   3.619   0.166 -0.4918 -0.1824  0.3821
17050SOL    HW252592   5.798   3.572   0.257 -0.9374 -0.7586 -0.4511
17051SOL     OW52593   5.109   5.735   5.085 -0.1613  0.3957  0.1014
17051SOL    HW152594   5.105   5.660   5.026  0.6249  0.4987 -0.0992
17051SOL    HW252595   5.082   5.810   5.032 -1.3732  0.2007  0.4207
17052SOL     OW52596   7.029   1.428   6.326  0.1128 -0.2033  0.1452
17052SOL    HW152597   6.967   1.483   6.374  1.0657  0.3050  0.8124
17052SOL    HW252598   6.973   1.367   6.277 -0.9552  1.0033 -0.2092
17053SOL     OW52599   0.986   6.165   5.797  0.5338  0.2917 -0.1560
17053SOL    HW152600   1.078   6.193   5.800  0.3371  0.9326  0.0461
17053SOL    HW252601   0.977   6.107   5.873  0.4748  1.1912  0.5500
17054SOL     OW52602   3.994   3.548   8.638  0.3923 -0.4976 -0.5381
17054SOL    HW152603   4.021   3.473   8.586  1.9873 -1.1721  1.1774
17054SOL    HW252604   4.038   3.623   8.598  2.5336 -1.1683  0.4428
17055SOL     OW52605   1.852   3.419   7.323 -0.3274  0.0492  0.1865
17055SOL    HW152606   1.818   3.437   7.236  0.9410 -1.9070 -0.7976
17055SOL    HW252607   1.796   3.349   7.357 -0.5378  0.4924  0.7834
17056SOL     OW52608   6.071   4.527   7.493 -0.1825  0.1488 -0.0596
17056SOL    HW152609   6.097   4.543   7.402  0.5813  1.1965  0.3246
17056SOL    HW252610   6.055   4.433   7.497  0.3590 -0.0070 -1.1300
17057SOL     OW52611   5.013   0.835   3.173 -0.0758  0.0045  0.3963
17057SOL    HW152612   5.079   0.800   3.233  0.4958 -0.6828 -0.6005
17057SOL    HW252613   5.065   0.881   3.106 -0.7734  2.5867  1.5049
17058SOL     OW52614   2.506   7.814  10.067  0.0705 -0.2022  0.2226
17058SOL    HW152615   2.528   7.769  10.148  0.4992  0.8303  0.6925
17058SOL    HW252616   2.494   7.744  10.003  0.0520 -1.0100  1.0920
17059SOL     OW52617   3.035   7.319   7.039  0.2487 -0.2384  0.7466
17059SOL    HW152618   3.014   7.286   7.126 -1.3323  0.7342  0.7650
17059SOL    HW252619   3.023   7.243   6.981 -2.7749  0.0375  0.8642
17060SOL     OW52620   7.560   3.248  11.536 -0.3101 -0.0031  0.1148
17060SOL    HW152621   7.557   3.197  11.618  0.9614 -0.4337 -0.0876
17060SOL    HW252622   7.527   3.334  11.561 -1.0069 -0.4560  0.8251
17061SOL     OW52623   5.620   1.178   4.480 -0.0136 -0.5506  0.4668
17061SOL    HW152624   5.713   1.159   4.490 -0.2637 -1.6375  0.8816
17061SOL    HW252625   5.616   1.247   4.414  1.0669 -0.6862  0.2462
17062SOL     OW52626   7.572   1.151   0.321 -0.2612  0.2277 -0.1988
17062SOL    HW152627   7.510   1.079   0.312  0.5601 -0.4207 -0.8382
17062SOL    HW252628   7.617   1.133   0.404 -2.3878  1.8951  1.4161
17063SOL     OW52629   6.494   0.244   9.003 -0.1638 -0.6958  0.3573
17063SOL    HW152630   6.403   0.222   9.021  0.1910 -3.1905 -0.4490
17063SOL    HW252631   6.497   0.261   8.909 -0.1577  1.7462  0.7430
17064SOL     OW52632   3.160   3.442  11.359 -0.0682  0.1028 -0.4562
17064SOL    HW152633   3.209   3.520  11.385  0.0613 -0.3407  0.6960
17064SOL    HW252634   3.203   3.370  11.405 -0.6240 -0.5538 -0.9417
17065SOL     OW52635   7.114   6.080   7.258  0.5005  0.1833  0.0402
17065SOL    HW152636   7.093   6.161   7.305 -0.2581 -0.6056  1.1344
17065SOL    HW252637   7.062   6.084   7.178 -0.9077  0.0130  0.9107
17066SOL     OW52638   2.051   2.670  11.430 -0.0587  0.1047  0.4564
17066SOL    HW152639   1.985   2.711  11.374  0.7925  0.2651 -0.4570
17066SOL    HW252640   2.063   2.583  11.393 -0.4570 -0.2876  1.2210
17067SOL     OW52641   6.725   5.914   2.135 -0.2475  0.0491 -0.1407
17067SOL    HW152642   6.817   5.928   2.156 -0.2729  2.4075 -1.2952
17067SOL    HW252643   6.683   5.999   2.153 -2.5245 -1.3311  1.7394
17068SOL     OW52644   3.905   1.027   0.932  0.0164 -0.2463  0.4122
17068SOL    HW152645   3.883   0.959   0.995  0.0715  0.9202  1.7596
17068SOL    HW252646   3.829   1.085   0.932  0.6551  0.6149  0.6182
17069SOL     OW52647   1.094   2.724   0.523  0.4436 -0.2326  0.1288
17069SOL    HW152648   1.086   2.807   0.476  1.6315 -0.3465 -0.3200
17069SOL    HW252649   1.034   2.665   0.477  0.6259  0.0088 -0.4375
17070SOL     OW52650   2.670   1.062   9.583  0.1045 -0.0541  0.1795
17070SOL    HW152651   2.751   1.105   9.609 -0.0469 -1.0079  2.5645
17070SOL    HW252652   2.601   1.124   9.605  0.0650 -0.2155  0.5194
17071SOL     OW52653   2.930   6.191   1.971  0.0688 -0.0322  0.1288
17071SOL    HW152654   2.893   6.278   1.959  0.9355  0.3201 -0.0136
17071SOL    HW252655   2.855   6.137   1.999 -0.4062  0.8160  0.5244
17072SOL     OW52656   5.220   4.740   2.351  0.0713  0.1397  0.4611
17072SOL    HW152657   5.193   4.756   2.441 -1.3866 -0.6214  0.1892
17072SOL    HW252658   5.313   4.721   2.356 -0.0557 -0.1637  1.8307
17073SOL     OW52659   0.117   4.239   4.900  0.1409 -0.4716 -0.1150
17073SOL    HW152660   0.022   4.241   4.910  0.2208  0.6760  0.6893
17073SOL    HW252661   0.131   4.205   4.812 -0.9529 -2.1017  0.3054
17074SOL     OW52662   0.467   4.764   7.031 -0.3728 -0.0847 -0.3466
17074SOL    HW152663   0.538   4.814   6.991 -0.3230 -1.0551 -1.5507
17074SOL    HW252664   0.390   4.821   7.022 -0.2643 -0.0830 -1.4530
17075SOL     OW52665   2.300   6.630  11.296  0.5619 -0.1099 -0.2133
17075SOL    HW152666   2.351   6.709  11.277  1.4378 -0.7260 -0.5132
17075SOL    HW252667   2.230   6.630  11.231 -0.2707  1.1091  0.6332
17076SOL     OW52668   4.122   7.264   1.665 -0.2842  0.1362 -0.0115
17076SOL    HW152669   4.078   7.336   1.618 -0.2175 -0.4614 -1.0126
17076SOL    HW252670   4.093   7.185   1.619  1.6249 -0.2985 -0.5362
17077SOL     OW52671   1.157   2.498   1.950  0.3203 -0.7346  1.0284
17077SOL    HW152672   1.136   2.484   1.858 -0.0804  0.1305  0.9860
17077SOL    HW252673   1.241   2.453   1.962 -0.5082 -2.4455  0.7102
17078SOL     OW52674   1.529   1.465   9.616 -0.8648  0.8923 -0.2438
17078SOL    HW152675   1.538   1.372   9.596 -2.0588  0.6740  0.1384
17078SOL    HW252676   1.561   1.510   9.538 -1.1033  0.1440 -0.7812
17079SOL     OW52677   2.057   7.182   1.899 -0.4458  0.6851  0.5120
17079SOL    HW152678   2.030   7.261   1.946 -0.0716  0.0512  1.8546
17079SOL    HW252679   2.099   7.128   1.966  0.6743 -0.0067 -0.7046
17080SOL     OW52680   5.874   3.064   2.433 -0.4070  0.1089  0.1275
17080SOL    HW152681   5.822   3.133   2.475  1.4903 -0.1252  3.1610
17080SOL    HW252682   5.857   2.986   2.488  0.7395 -0.7431 -0.6985
17081SOL     OW52683   1.665   7.064   6.438  0.2960 -0.2846 -0.2821
17081SOL    HW152684   1.714   7.141   6.407 -1.1045  0.8270  0.1368
17081SOL    HW252685   1.603   7.045   6.369  1.6291 -2.0766 -1.0814
17082SOL     OW52686   0.205   1.422   2.171 -0.0990 -0.0647 -0.2893
17082SOL    HW152687   0.157   1.340   2.184  2.2525 -1.2765  1.6364
17082SOL    HW252688   0.213   1.459   2.259  1.6778  0.5308 -0.6615
17083SOL     OW52689   7.085   3.380   5.944  0.0972  0.4116  0.3504
17083SOL    HW152690   7.070   3.459   5.892 -0.6664 -0.5034 -0.8586
17083SOL    HW252691   7.179   3.384   5.966  0.5909  0.5464 -1.6044
17084SOL     OW52692   4.030   0.380   2.541 -0.5086  0.1700 -0.6990
17084SOL    HW152693   4.104   0.400   2.598 -0.8666  0.7926 -0.4473
17084SOL    HW252694   4.070   0.356   2.458  0.0189 -0.6987 -0.2103
17085SOL     OW52695   7.706   6.596   5.043  0.2220 -0.2677  0.0899
17085SOL    HW152696   7.701   6.503   5.021 -0.5220 -0.4933  1.1312
17085SOL    HW252697   7.776   6.602   5.109 -0.5495 -0.2906  0.9283
17086SOL     OW52698   3.756   7.009   9.671 -0.4155  0.6087  0.6836
17086SOL    HW152699   3.749   7.062   9.750 -1.8592 -0.7287  1.5135
17086SOL    HW252700   3.666   6.991   9.646  0.0007  1.1367 -1.4122
17087SOL     OW52701   3.077   2.781   9.408  0.0038 -0.5434 -0.0382
17087SOL    HW152702   3.097   2.863   9.453 -1.8043  0.6787 -1.3271
17087SOL    HW252703   3.128   2.715   9.455 -0.5700  0.8681  2.7971
17088SOL     OW52704   5.224   3.535   4.700 -0.2427 -0.4389 -0.1013
17088SOL    HW152705   5.310   3.506   4.669 -0.6560 -1.1155 -0.6509
17088SOL    HW252706   5.239   3.563   4.790  0.4957 -0.8216 -0.0970
17089SOL     OW52707   7.501   6.191   8.871  0.4037 -0.6774  0.4040
17089SOL    HW152708   7.450   6.267   8.900  2.6557  1.3603 -0.6669
17089SOL    HW252709   7.448   6.150   8.803 -0.3675  0.6044  0.2162
17090SOL     OW52710   5.972   7.793   9.343 -0.6999  0.1866  0.3095
17090SOL    HW152711   5.883   7.791   9.376 -0.4665 -0.9408  0.9056
17090SOL    HW252712   5.964   7.835   9.257 -1.6006  1.2836  0.9072
17091SOL     OW52713   4.796   6.544   9.527 -0.1551  0.4044  0.6392
17091SOL    HW152714   4.704   6.545   9.499  0.3235  2.3844 -1.1531
17091SOL    HW252715   4.846   6.535   9.446  1.2798  0.9023  1.4261
17092SOL     OW52716   1.762   0.461   7.783  0.0737 -0.2097  0.0859
17092SOL    HW152717   1.853   0.487   7.796 -0.0192  1.3015 -1.6875
17092SOL    HW252718   1.712   0.523   7.835  0.0273 -0.4286  0.3020
17093SOL     OW52719   5.348   5.784  11.584 -0.5169  0.8392 -0.5897
17093SOL    HW152720   5.346   5.738  11.500 -0.9726  0.6685 -0.4841
17093SOL    HW252721   5.435   5.763  11.620  0.3150  2.2137 -1.7250
17094SOL     OW52722   6.603   6.945  10.254  0.0006  0.7044  0.6799
17094SOL    HW152723   6.675   6.942  10.192 -0.1261 -1.4938  0.5705
17094SOL    HW252724   6.643   6.977  10.335  2.1932 -3.9306  1.7842
17095SOL     OW52725   3.788   1.559   4.259  0.3320  0.3004  0.4384
17095SOL    HW152726   3.779   1.470   4.227 -1.4666  0.5924 -0.0001
17095SOL    HW252727   3.868   1.558   4.312 -0.5417 -2.0193  1.8988
17096SOL     OW52728   6.783   6.730   2.756 -0.2040  0.5907  0.1850
17096SOL    HW152729   6.725   6.701   2.827 -0.5602 -0.3175 -0.4636
17096SOL    HW252730   6.872   6.717   2.792 -0.3514 -1.2434 -0.0336
17097SOL     OW52731   2.956   5.794   5.338  0.5829  0.4049  0.2347
17097SOL    HW152732   2.913   5.764   5.417 -0.5170 -1.4372 -0.9872
17097SOL    HW252733   3.043   5.822   5.367 -0.3689  1.4245  2.3036
17098SOL     OW52734   0.239   5.161   0.850 -0.1207  0.4810 -0.1857
17098SOL    HW152735   0.305   5.128   0.789  0.9260  0.5508  0.8725
17098SOL    HW252736   0.166   5.099   0.842  0.0766  0.3825 -1.3493
17099SOL     OW52737   7.833   7.300   9.084 -0.2877 -0.1569 -0.9740
17099SOL    HW152738   7.781   7.370   9.043 -1.0309  0.2586  0.5892
17099SOL    HW252739   7.920   7.338   9.093 -0.0945 -0.2788 -2.1892
17100SOL     OW52740   2.283   4.168   0.431  0.9057  0.5931  0.4413
17100SOL    HW152741   2.209   4.213   0.389  0.7224 -0.3771 -0.3157
17100SOL    HW252742   2.242   4.109   0.494  1.1515  1.5211  1.5064
17101SOL     OW52743   4.695   6.135   8.569 -0.5294  0.8110  0.0357
17101SOL    HW152744   4.779   6.180   8.574 -0.5244  1.1653 -2.0448
17101SOL    HW252745   4.705   6.075   8.495 -1.3453 -0.8665  1.2456
17102SOL     OW52746   7.239   5.707   8.218  0.0764 -0.1066  0.1663
17102SOL    HW152747   7.216   5.770   8.150 -1.9027  0.2293  1.0721
17102SOL    HW252748   7.329   5.683   8.199  0.2784  1.5976 -1.2932
17103SOL     OW52749   4.214   5.247  10.870  0.4786 -0.4462 -0.0778
17103SOL    HW152750   4.170   5.205  10.796 -1.1619  1.4208 -0.2318
17103SOL    HW252751   4.205   5.183  10.942 -2.2209 -0.3538 -0.2083
17104SOL     OW52752   3.834   7.323   9.615 -0.2982  0.1030  0.3574
17104SOL    HW152753   3.740   7.308   9.622 -0.5160  0.7447 -0.8978
17104SOL    HW252754   3.866   7.250   9.561 -0.3741  0.8254 -0.6821
17105SOL     OW52755   1.411   7.599   3.962 -0.3333  0.0333 -0.1392
17105SOL    HW152756   1.396   7.536   4.032  0.4816 -0.7790 -0.6769
17105SOL    HW252757   1.506   7.603   3.953 -0.4153  0.4207 -0.9250
17106SOL     OW52758   2.391   4.692   2.555  0.5517 -0.1673  0.0114
17106SOL    HW152759   2.389   4.597   2.539 -0.1919 -0.2219  0.4056
17106SOL    HW252760   2.300   4.716   2.573  0.8356  0.4966  0.6436
17107SOL     OW52761   4.967   2.266   7.448 -0.4219  0.3494  0.0199
17107SOL    HW152762   4.922   2.190   7.412  1.6792 -0.4116 -1.1584
17107SOL    HW252763   4.981   2.244   7.540 -0.6021 -0.3113 -0.1040
17108SOL     OW52764   3.416   2.695   9.989 -0.5733  0.4298 -0.1063
17108SOL    HW152765   3.410   2.783  10.027  1.6776  1.2113 -1.4142
17108SOL    HW252766   3.416   2.709   9.894 -2.6227 -1.2247 -0.4356
17109SOL     OW52767   1.689   2.727  11.703 -0.0417 -0.2752 -0.5422
17109SOL    HW152768   1.687   2.636  11.734 -1.6013 -0.1600 -0.2150
17109SOL    HW252769   1.760   2.767  11.753  0.8744 -1.3826 -0.9129
17110SOL     OW52770   0.712   5.718   7.968  0.0637  0.0573  0.0538
17110SOL    HW152771   0.639   5.659   7.947  0.6390 -0.3779 -0.8259
17110SOL    HW252772   0.716   5.777   7.893 -0.4981  1.2368  0.9285
17111SOL     OW52773   2.943   1.117   5.531 -0.4207 -0.0119  0.3762
17111SOL    HW152774   2.848   1.104   5.530 -0.3522 -0.5413 -0.9100
17111SOL    HW252775   2.969   1.110   5.439  0.5933  2.2132  0.4380
17112SOL     OW52776   7.102   7.388   5.549 -0.1210  0.0473  0.3014
17112SOL    HW152777   7.088   7.475   5.585 -1.7284  0.9897 -2.2802
17112SOL    HW252778   7.138   7.403   5.462  2.4352 -2.0408  0.8691
17113SOL     OW52779   5.023   2.199   9.694 -0.0871  0.3057  0.5553
17113SOL    HW152780   4.958   2.176   9.628  1.8721  0.3293 -1.4782
17113SOL    HW252781   5.063   2.115   9.719 -0.0848  0.4139  0.9238
17114SOL     OW52782   3.692   2.945  11.574  0.2389  0.2013 -0.3949
17114SOL    HW152783   3.670   3.038  11.567  2.7256  0.8383 -0.7371
17114SOL    HW252784   3.785   2.945  11.596 -0.0420 -2.2178  1.1146
17115SOL     OW52785   4.481   4.632   4.831 -0.5157 -0.6016  0.3471
17115SOL    HW152786   4.553   4.570   4.841 -0.0657 -0.5605 -2.0965
17115SOL    HW252787   4.485   4.687   4.909  1.7655 -0.9403  0.5158
17116SOL     OW52788   0.330   3.971   3.667 -0.0576 -0.7299  0.2561
17116SOL    HW152789   0.303   3.897   3.721  0.3796 -0.9541  0.1707
17116SOL    HW252790   0.425   3.972   3.673  0.1109 -1.6131 -1.6074
17117SOL     OW52791   7.553   7.498   3.142  0.1462 -0.0920  0.8890
17117SOL    HW152792   7.497   7.531   3.213 -2.3891 -0.4138 -0.8352
17117SOL    HW252793   7.545   7.403   3.147 -1.9316 -0.0908 -1.1357
17118SOL     OW52794   4.340   5.470   3.368  0.0626  0.1475  0.0114
17118SOL    HW152795   4.335   5.399   3.432  2.5518  0.9946  1.2883
17118SOL    HW252796   4.354   5.426   3.284 -1.6788 -0.9281  0.2293
17119SOL     OW52797   0.844   2.313   0.065  0.1064 -0.3754 -0.3525
17119SOL    HW152798   0.787   2.383   0.098 -0.7617 -1.1875 -0.0749
17119SOL    HW252799   0.837   2.319  -0.031 -0.3224 -0.3669 -0.3213
17120SOL     OW52800   6.744   6.195   2.219  0.0581 -0.3477 -0.5880
17120SOL    HW152801   6.709   6.214   2.307  0.2189  1.2371 -0.8328
17120SOL    HW252802   6.680   6.234   2.159  0.7284 -0.0455 -1.1192
17121SOL     OW52803   7.222   5.243   5.628  0.3667 -0.0466  0.1048
17121SOL    HW152804   7.265   5.266   5.710 -0.0602 -0.0550  0.3336
17121SOL    HW252805   7.129   5.257   5.645  0.2390 -0.4718 -0.2399
17122SOL     OW52806   6.033   0.163   0.766  0.1841 -0.0725 -0.3437
17122SOL    HW152807   6.071   0.103   0.701  0.3238  0.3316 -0.6438
17122SOL    HW252808   6.041   0.249   0.725 -0.5063  0.0893 -0.1440
17123SOL     OW52809   4.773   1.475   3.042  0.3578  0.0644 -0.4500
17123SOL    HW152810   4.748   1.540   3.108  2.1200  0.9715 -0.5968
17123SOL    HW252811   4.732   1.394   3.071  0.1955  0.6885  1.1747
17124SOL     OW52812   7.326   7.257  10.445 -0.1572  0.2163 -0.5215
17124SOL    HW152813   7.367   7.264  10.531 -1.3581  1.7210 -0.0355
17124SOL    HW252814   7.305   7.164  10.436 -1.3842  0.2509  1.4764
17125SOL     OW52815   2.782   0.078   8.698 -0.0975 -0.3921 -0.5293
17125SOL    HW152816   2.848   0.085   8.767  1.0333  1.3760 -1.7016
17125SOL    HW252817   2.704   0.047   8.742  1.4719 -2.5395  0.9365
17126SOL     OW52818   4.230   2.977   9.517 -0.1867  0.1264 -0.2304
17126SOL    HW152819   4.189   3.064   9.527  2.3418  1.3085  0.5574
17126SOL    HW252820   4.256   2.974   9.425 -0.4513  0.0976 -0.3070
17127SOL     OW52821   1.582   6.183  10.668 -0.1297  0.4172  0.5653
17127SOL    HW152822   1.554   6.267  10.631  1.5566  0.7190 -0.1428
17127SOL    HW252823   1.648   6.151  10.606 -0.4573 -1.2538  1.0297
17128SOL     OW52824   6.206   0.976   1.228  0.0074 -0.2415 -0.1147
17128SOL    HW152825   6.215   0.947   1.137  0.4137  0.4316 -0.2964
17128SOL    HW252826   6.140   1.046   1.225 -1.1031 -1.2315  0.3467
17129SOL     OW52827   1.003   6.326   9.577 -0.4184 -0.5926 -0.1098
17129SOL    HW152828   1.081   6.304   9.527  0.1124 -0.7116  0.7592
17129SOL    HW252829   1.014   6.280   9.660 -0.7653  0.4770  0.5436
17130SOL     OW52830   6.402   2.012  10.739 -0.1845  0.3097 -0.0667
17130SOL    HW152831   6.324   2.007  10.793  0.2114  1.4947  0.6667
17130SOL    HW252832   6.441   2.097  10.761  1.4918 -0.3967 -0.1541
17131SOL     OW52833   3.528   7.377   6.343 -0.3185 -0.2805 -0.5485
17131SOL    HW152834   3.434   7.387   6.330 -0.5236 -0.9413  0.3053
17131SOL    HW252835   3.541   7.392   6.437  0.3101 -0.9142 -0.5210
17132SOL     OW52836   0.718   3.888   5.159 -0.2704 -0.5574 -0.5282
17132SOL    HW152837   0.785   3.821   5.176 -0.6982 -0.5973  1.1532
17132SOL    HW252838   0.637   3.850   5.193 -0.5559  0.7278  0.2630
17133SOL     OW52839   1.192   5.188   5.913  0.2082 -0.0684 -0.5236
17133SOL    HW152840   1.283   5.205   5.892  0.1209 -1.4071 -2.2718
17133SOL    HW252841   1.188   5.094   5.929 -0.9353 -0.1379 -1.0797
17134SOL     OW52842   0.930   7.915   3.622  0.4163 -0.1701 -0.4240
17134SOL    HW152843   0.857   7.872   3.666  1.8937 -2.3881  0.0045
17134SOL    HW252844   0.995   7.929   3.691  1.6674 -1.1877 -1.3527
17135SOL     OW52845   5.267   0.605   9.892 -0.0316 -0.8801  0.6849
17135SOL    HW152846   5.245   0.515   9.870 -3.3354 -0.1658  0.6031
17135SOL    HW252847   5.276   0.650   9.808 -1.6079 -0.4975  0.6959
17136SOL     OW52848   0.052   4.593   4.666 -0.7379  0.4064 -0.0306
17136SOL    HW152849  -0.023   4.534   4.683  0.1151 -0.3961  1.1488
17136SOL    HW252850   0.128   4.542   4.693  0.1446  1.6023 -0.2049
17137SOL     OW52851   6.467   6.710   4.409  0.0708  0.0666  0.1497
17137SOL    HW152852   6.430   6.624   4.427 -1.0046  0.8926  2.1010
17137SOL    HW252853   6.392   6.764   4.387  0.2663  1.2943  2.2761
17138SOL     OW52854   0.763   3.714   2.443  0.6642  0.6192  0.1882
17138SOL    HW152855   0.685   3.668   2.475  0.9486 -2.0145 -2.4486
17138SOL    HW252856   0.732   3.802   2.421 -1.4629 -0.1728 -0.2605
17139SOL     OW52857   5.613   1.966  11.716  0.1591 -0.1372 -0.4363
17139SOL    HW152858   5.539   2.003  11.667 -0.1963 -0.0742  0.1385
17139SOL    HW252859   5.572   1.902  11.775  0.4421  0.6352  0.6143
17140SOL     OW52860   2.441   5.976   0.639  0.4109  0.3597  0.8173
17140SOL    HW152861   2.508   6.034   0.675  0.0903 -0.3413  2.6660
17140SOL    HW252862   2.433   5.906   0.704 -2.1316  0.4372  0.6734
17141SOL     OW52863   3.164   1.242  10.896 -0.5156  0.2377  0.4791
17141SOL    HW152864   3.139   1.334  10.888  1.0472  0.6538  0.1071
17141SOL    HW252865   3.237   1.242  10.957 -0.5970 -0.7851  0.5951
17142SOL     OW52866   4.348   2.965   1.053  0.1563 -0.3938  1.1233
17142SOL    HW152867   4.408   2.940   0.983 -0.5428  0.9131  0.0253
17142SOL    HW252868   4.336   2.884   1.103  0.9531 -1.2719 -0.0405
17143SOL     OW52869   3.332   7.737   2.526  0.7137  0.1494 -0.0624
17143SOL    HW152870   3.370   7.654   2.498  1.6768  1.2994 -2.4975
17143SOL    HW252871   3.408   7.790   2.553  0.2927  0.7677 -0.0603
17144SOL     OW52872   7.713   0.086  10.457  0.5375 -0.4847  0.1869
17144SOL    HW152873   7.621   0.077  10.482  0.4109  0.2091 -0.0220
17144SOL    HW252874   7.711   0.091  10.361  0.7467  0.0137  0.2072
17145SOL     OW52875   5.651   5.207   0.490  0.3522 -0.5365  0.0643
17145SOL    HW152876   5.658   5.113   0.503 -0.9100 -0.7157 -0.4396
17145SOL    HW252877   5.654   5.243   0.579  1.2229 -1.0149  0.2356
17146SOL     OW52878   0.426   0.755   1.167 -0.2796  0.7150  0.0222
17146SOL    HW152879   0.431   0.695   1.242  1.2427 -0.8322 -1.2526
17146SOL    HW252880   0.340   0.797   1.177 -1.1691 -1.2201  1.3196
17147SOL     OW52881   7.115   3.850  10.566 -0.5652 -0.1821 -0.4354
17147SOL    HW152882   7.166   3.798  10.629  0.5825  1.2324 -0.1583
17147SOL    HW252883   7.109   3.794  10.488  0.3468 -0.8652 -0.0337
17148SOL     OW52884   2.996   0.861   3.232 -0.0898  0.1080 -0.0942
17148SOL    HW152885   2.931   0.893   3.294 -0.8437 -0.0241 -0.8072
17148SOL    HW252886   2.976   0.768   3.221 -0.2510  0.2274 -0.8742
17149SOL     OW52887   2.113   0.910  10.621 -0.0544 -0.5587 -0.0069
17149SOL    HW152888   2.114   0.856  10.542 -0.5257 -0.5873  0.0045
17149SOL    HW252889   2.079   0.995  10.592  1.8821  0.1754 -0.2950
17150SOL     OW52890   6.285   2.518  12.448 -0.5530 -0.3663 -0.0341
17150SOL    HW152891   6.371   2.476  12.455  0.0868  1.0070  1.0569
17150SOL    HW252892   6.292   2.595  12.505 -1.8516  0.8712 -1.4686
17151SOL     OW52893   0.526   6.926   2.767 -0.1166 -0.3137  0.9405
17151SOL    HW152894   0.523   6.835   2.798  1.6008 -0.1294  1.7120
17151SOL    HW252895   0.576   6.973   2.833  0.4138  0.8782 -0.2662
17152SOL     OW52896   7.783   5.401   2.923 -0.1545 -0.5291  0.5916
17152SOL    HW152897   7.798   5.439   2.836  0.3103 -1.8297  0.0693
17152SOL    HW252898   7.783   5.306   2.907  0.1248 -0.7864  2.0493
17153SOL     OW52899   1.776   0.925   9.869  0.2085  0.2606 -1.1700
17153SOL    HW152900   1.761   0.908   9.962 -0.4107  1.6540 -0.9914
17153SOL    HW252901   1.691   0.910   9.828  0.9655 -2.5580 -1.9181
17154SOL     OW52902   0.265   5.879   7.229 -0.3839  0.1982 -0.0004
17154SOL    HW152903   0.302   5.917   7.149  1.1654  0.6621  0.8735
17154SOL    HW252904   0.188   5.830   7.200 -0.4689  1.2175 -1.6186
17155SOL     OW52905   7.532   3.454  11.250 -0.4553 -0.3137 -0.3271
17155SOL    HW152906   7.553   3.362  11.236  0.9169 -0.3351  1.5099
17155SOL    HW252907   7.602   3.502  11.206 -1.7302 -0.0426 -2.2045
17156SOL     OW52908   7.237   0.070   6.279  0.0850 -0.2627 -0.0002
17156SOL    HW152909   7.327   0.043   6.262  1.0231  0.7447  2.7358
17156SOL    HW252910   7.192   0.059   6.196  2.4131 -2.0143 -1.1335
17157SOL     OW52911   6.513   2.410   4.249 -0.4452 -0.0753 -0.0981
17157SOL    HW152912   6.585   2.466   4.219  0.2721 -1.7342 -1.6965
17157SOL    HW252913   6.556   2.340   4.297 -1.1152 -0.3531  0.1046
17158SOL     OW52914   2.340   1.218   8.867  0.2292  0.2165 -0.3823
17158SOL    HW152915   2.268   1.158   8.850 -0.2923  1.1033 -1.3279
17158SOL    HW252916   2.308   1.304   8.840  1.7481  0.5731 -1.1456
17159SOL     OW52917   0.614   1.797   3.977  0.1589  0.2761  0.0608
17159SOL    HW152918   0.561   1.873   3.954  1.2501  0.8580 -0.6321
17159SOL    HW252919   0.586   1.773   4.065 -1.3276  0.4767 -0.3350
17160SOL     OW52920   3.404   2.790   8.409  0.0927 -0.0707  0.1916
17160SOL    HW152921   3.492   2.816   8.383 -0.2154  0.9677  0.1414
17160SOL    HW252922   3.389   2.836   8.492 -0.0519 -0.9879  0.6854
17161SOL     OW52923   4.712   7.546   1.130 -0.5203  0.5969 -0.3504
17161SOL    HW152924   4.634   7.566   1.181 -0.1304  0.6523  0.2345
17161SOL    HW252925   4.744   7.632   1.102  0.5850  0.7772  1.3115
17162SOL     OW52926   0.778   6.754   6.920 -0.0210 -0.0965  0.3889
17162SOL    HW152927   0.787   6.695   6.845  0.5389  0.7862 -0.2534
17162SOL    HW252928   0.704   6.811   6.896 -0.3426 -0.3094  0.8603
17163SOL     OW52929   7.660   5.916   3.166  0.3830 -0.5230  0.1724
17163SOL    HW152930   7.733   5.978   3.172 -0.5657  0.6494  0.1298
17163SOL    HW252931   7.688   5.840   3.215  1.6035 -0.0649  0.2157
17164SOL     OW52932   5.715   5.643  11.420  0.2188 -0.1048  0.3374
17164SOL    HW152933   5.692   5.557  11.386 -0.2218 -0.1201  0.6682
17164SOL    HW252934   5.647   5.663  11.484  0.9553 -0.0129  1.1095
17165SOL     OW52935   2.165   1.156   3.397 -0.4732  0.3528  0.3763
17165SOL    HW152936   2.090   1.206   3.364 -1.3899 -1.1106  0.1112
17165SOL    HW252937   2.127   1.097   3.462  0.5148 -0.1633  0.5002
17166SOL     OW52938   7.430   3.183   1.790 -0.1355  0.0804  0.1884
17166SOL    HW152939   7.356   3.224   1.745 -0.7831 -0.8533  0.3801
17166SOL    HW252940   7.492   3.163   1.721 -0.1025  0.7613  0.0106
17167SOL     OW52941   4.462   7.516   4.624  0.0232 -0.1939  0.5247
17167SOL    HW152942   4.458   7.612   4.615 -1.3525 -0.1936  1.0019
17167SOL    HW252943   4.462   7.501   4.718  2.6022 -0.6129  0.5254
17168SOL     OW52944   3.638   7.312  10.726 -0.1376  0.1476  1.0288
17168SOL    HW152945   3.618   7.218  10.721 -0.1335  0.1607  0.7749
17168SOL    HW252946   3.734   7.316  10.728 -0.0589  0.2343 -0.9532
17169SOL     OW52947   4.095   1.406   6.848  0.0039  0.0710  0.3141
17169SOL    HW152948   4.081   1.420   6.754 -0.1597  1.4211  0.5081
17169SOL    HW252949   4.174   1.457   6.868  0.3728 -0.6798  0.8042
17170SOL     OW52950   6.862   7.826   4.534  0.4762  0.1601 -0.1967
17170SOL    HW152951   6.872   7.805   4.441 -0.3363 -0.2955 -0.1887
17170SOL    HW252952   6.922   7.766   4.579  1.1105  0.6037 -0.4438
17171SOL     OW52953   3.074   5.906   4.664  0.1007 -0.2119 -0.7631
17171SOL    HW152954   3.137   5.936   4.598  1.0976 -0.8330 -0.1092
17171SOL    HW252955   3.067   5.812   4.649 -0.7522 -0.1413 -0.8785
17172SOL     OW52956   5.215   6.388   0.792  0.4575  0.2128 -0.6521
17172SOL    HW152957   5.252   6.301   0.806  0.8198  0.4201 -0.3081
17172SOL    HW252958   5.242   6.438   0.868 -2.3178 -0.2063  0.7297
17173SOL     OW52959   6.750   0.355   5.105  0.3167  0.1518  0.2653
17173SOL    HW152960   6.681   0.385   5.164 -0.6280 -0.7912 -0.3295
17173SOL    HW252961   6.704   0.308   5.036  1.4106  1.1798 -1.2032
17174SOL     OW52962   0.587   2.777  12.425  0.2924 -0.2307  0.2454
17174SOL    HW152963   0.551   2.707  12.371  0.9236 -0.2082 -0.2252
17174SOL    HW252964   0.680   2.779  12.402  0.1219  1.3478 -0.4367
17175SOL     OW52965   1.310   3.244   0.180  0.5432 -0.3892  0.2388
17175SOL    HW152966   1.304   3.152   0.153  0.9164 -0.8514  1.6131
17175SOL    HW252967   1.225   3.263   0.219  0.4729 -0.1510 -0.0275
17176SOL     OW52968   0.414   3.497   2.480 -0.3050 -0.4261 -0.4704
17176SOL    HW152969   0.324   3.468   2.493 -0.0917 -0.6149  0.5966
17176SOL    HW252970   0.410   3.592   2.489 -0.6078 -0.2972 -1.7255
17177SOL     OW52971   3.848   2.660  11.895  0.0500 -0.1716 -0.0619
17177SOL    HW152972   3.813   2.726  11.954 -0.3943  0.3978 -0.9485
17177SOL    HW252973   3.943   2.666  11.905 -0.0350 -0.9684  1.5397
17178SOL     OW52974   0.015   4.443  12.368  0.0958  0.2417 -0.0612
17178SOL    HW152975  -0.026   4.464  12.452  0.3916  1.7446 -0.2672
17178SOL    HW252976  -0.014   4.513  12.309  1.9281  0.6391 -0.5323
17179SOL     OW52977   6.459   4.150   6.912  0.1002  0.0335  0.0495
17179SOL    HW152978   6.450   4.128   7.004  1.1052  1.4563  0.5226
17179SOL    HW252979   6.427   4.240   6.906  1.5568  0.5231 -0.6687
17180SOL     OW52980   4.106   6.000   5.995  0.0064  0.4214  0.1456
17180SOL    HW152981   4.121   6.031   5.906  0.6584 -0.6610 -0.1333
17180SOL    HW252982   4.193   5.978   6.028 -0.4654 -1.8428  0.0391
17181SOL     OW52983   0.302   7.945   9.729  0.3893  0.4929 -0.6514
17181SOL    HW152984   0.234   8.011   9.745  0.6890  0.7320 -0.3379
17181SOL    HW252985   0.339   7.968   9.644  1.5170  1.6470  0.1243
17182SOL     OW52986   5.463   5.379   3.476  0.0488 -1.1131 -0.2817
17182SOL    HW152987   5.471   5.424   3.393  0.0755  2.1582  1.3289
17182SOL    HW252988   5.372   5.393   3.503  0.3140 -1.1809  0.7049
17183SOL     OW52989   3.510   6.062   2.469 -0.0325 -0.1012  0.3640
17183SOL    HW152990   3.443   6.118   2.430 -0.0031  0.2068  0.7570
17183SOL    HW252991   3.515   5.986   2.410  3.1779  2.3392 -2.9441
17184SOL     OW52992   0.930   5.451  11.754  0.0198 -0.6282 -0.2232
17184SOL    HW152993   0.889   5.535  11.734  1.2021  0.1983  0.7085
17184SOL    HW252994   0.861   5.386  11.737 -1.2902  0.6093  0.1831
17185SOL     OW52995   0.034   6.528   1.726 -0.2968 -0.2793  0.8180
17185SOL    HW152996   0.009   6.453   1.672  0.6546 -1.3326  1.7840
17185SOL    HW252997  -0.030   6.529   1.797  0.3251 -0.8475  1.3934
17186SOL     OW52998   0.459   4.191   5.360  0.2505  0.0492 -0.0531
17186SOL    HW152999   0.363   4.190   5.359  0.2338 -2.1528 -0.0941
17186SOL    HW253000   0.483   4.250   5.288 -1.0929 -1.0592 -1.4685
17187SOL     OW53001   6.281   6.369   8.855  0.2672  0.2965  0.4021
17187SOL    HW153002   6.321   6.330   8.933 -0.4420  0.0559  0.6496
17187SOL    HW253003   6.187   6.360   8.868  0.1399 -0.2081 -0.7125
17188SOL     OW53004   1.940   3.612  11.605 -0.0806  0.1446 -0.1290
17188SOL    HW153005   1.880   3.685  11.593  0.9961  1.3401  1.4272
17188SOL    HW253006   2.021   3.641  11.563  0.1036 -0.5338 -0.2554
17189SOL     OW53007   4.011   1.144   1.909 -0.1790  0.2179  0.2723
17189SOL    HW153008   4.022   1.168   1.817  2.4315 -2.3597 -0.2205
17189SOL    HW253009   3.924   1.104   1.912  0.3931 -1.3908 -1.6114
17190SOL     OW53010   7.158   5.222   6.591 -0.0738  0.4152 -0.3280
17190SOL    HW153011   7.164   5.284   6.518 -0.0149  0.1701 -0.5314
17190SOL    HW253012   7.239   5.172   6.587 -1.3015 -1.5600 -1.8629
17191SOL     OW53013   4.058   5.063  11.188  0.2294  0.6959  0.0398
17191SOL    HW153014   3.977   5.061  11.239 -0.0301  0.1447 -0.3812
17191SOL    HW253015   4.055   5.148  11.144  0.5361  1.2445  1.0508
17192SOL     OW53016   6.804   4.197  10.183  0.1711 -0.0273  0.5600
17192SOL    HW153017   6.831   4.287  10.163  0.4492 -0.6910 -2.4748
17192SOL    HW253018   6.713   4.205  10.212  0.4846  1.2868  1.2566
17193SOL     OW53019   7.282   3.714   2.073  0.0639  0.4151  0.3012
17193SOL    HW153020   7.369   3.675   2.080 -0.4651 -0.6215  1.4789
17193SOL    HW253021   7.234   3.653   2.016  0.4296  1.6613 -1.4434
17194SOL     OW53022   6.358   2.457   8.330  0.0262 -0.1247 -0.4883
17194SOL    HW153023   6.345   2.543   8.368 -0.0514 -0.1490 -0.4597
17194SOL    HW253024   6.380   2.474   8.238  3.2900  0.1104  0.2042
17195SOL     OW53025   1.689   2.530   6.203  0.2136 -0.6243  0.0371
17195SOL    HW153026   1.746   2.471   6.153  1.2404  0.6253 -0.3097
17195SOL    HW253027   1.749   2.582   6.256 -0.8130 -1.3364  1.9702
17196SOL     OW53028   3.447   0.983   3.775  0.1140 -0.4413  0.3163
17196SOL    HW153029   3.379   1.032   3.728  0.0247  1.5237  2.3182
17196SOL    HW253030   3.523   0.985   3.716 -0.9661 -1.0430 -1.1579
17197SOL     OW53031   6.227   4.779   7.758 -0.0018  0.1871  0.3780
17197SOL    HW153032   6.221   4.790   7.853 -0.7770  0.3340  0.3196
17197SOL    HW253033   6.224   4.685   7.744 -1.0227  0.1947  0.4452
17198SOL     OW53034   4.567   7.676   6.364  0.0623 -0.1891  0.0828
17198SOL    HW153035   4.634   7.721   6.313 -0.9355  0.1409 -1.0118
17198SOL    HW253036   4.613   7.638   6.438  1.2970  0.7612 -0.1738
17199SOL     OW53037   4.603   4.878  12.313  0.0509 -0.0252  0.4716
17199SOL    HW153038   4.514   4.907  12.292  0.6985  0.4515 -1.8678
17199SOL    HW253039   4.630   4.934  12.386 -0.4435  2.1005 -0.8814
17200SOL     OW53040   6.353   2.905   6.295 -0.4058 -0.2615  0.3091
17200SOL    HW153041   6.391   2.939   6.377 -0.1865  0.6004 -0.1328
17200SOL    HW253042   6.422   2.850   6.258 -0.3649 -0.3551  0.5208
17201SOL     OW53043   1.598   1.133   6.478  0.3459  0.2735 -0.6620
17201SOL    HW153044   1.611   1.039   6.491  1.5627  0.4826 -0.1825
17201SOL    HW253045   1.506   1.143   6.456 -0.4378 -0.7698  1.8333
17202SOL     OW53046   5.696   1.108   0.477  0.1737 -0.1781 -0.1305
17202SOL    HW153047   5.651   1.026   0.456  1.3258 -0.3193 -2.3279
17202SOL    HW253048   5.681   1.120   0.571 -0.3358 -2.7192  0.1872
17203SOL     OW53049   7.669   5.393   7.799  0.3394  0.1272  0.0002
17203SOL    HW153050   7.670   5.488   7.787 -0.4241  0.1054 -0.3136
17203SOL    HW253051   7.584   5.366   7.765 -0.3748 -0.3922  2.0736
17204SOL     OW53052   6.941   0.948   5.253 -0.2878 -0.1056  0.3911
17204SOL    HW153053   6.966   0.968   5.163 -0.3370  0.1219  0.4262
17204SOL    HW253054   7.020   0.913   5.293 -0.0598  0.4857  0.4650
17205SOL     OW53055   1.989   3.136   7.400 -0.2897  0.2158  0.5446
17205SOL    HW153056   1.894   3.143   7.397 -0.5411 -2.6437 -0.4677
17205SOL    HW253057   2.007   3.046   7.427  2.0953  0.1557 -0.9249
17206SOL     OW53058   3.574   3.449   5.285 -0.2531  0.4358 -0.1314
17206SOL    HW153059   3.536   3.361   5.283 -1.2577  0.8054  1.4349
17206SOL    HW253060   3.504   3.505   5.316  0.7986  1.5882  0.2544
17207SOL     OW53061   7.650   1.780   5.007 -0.3970  0.0376 -0.0197
17207SOL    HW153062   7.702   1.760   4.930  0.1466 -0.8296  0.5480
17207SOL    HW253063   7.571   1.822   4.973  0.4393  0.9308 -0.9298
17208SOL     OW53064   6.092   5.006   6.844  0.4023 -0.2538 -0.6106
17208SOL    HW153065   6.104   5.023   6.751 -0.6484 -0.5757 -0.8127
17208SOL    HW253066   6.181   5.003   6.880  0.8191 -0.3634 -1.6382
17209SOL     OW53067   7.495   1.471  10.531 -0.7436 -0.1561  0.1582
17209SOL    HW153068   7.425   1.408  10.550 -0.7202 -0.4747 -0.7770
17209SOL    HW253069   7.546   1.475  10.612 -2.6406  1.1465  1.4065
17210SOL     OW53070   5.056   0.779   2.330  0.3728 -0.1883  0.4238
17210SOL    HW153071   5.114   0.709   2.300  1.6686  1.0869 -0.2016
17210SOL    HW253072   4.979   0.773   2.274 -0.0844 -1.8513  1.1884
17211SOL     OW53073   2.484   7.957  11.793 -0.0965 -0.7280 -0.0999
17211SOL    HW153074   2.478   7.862  11.783  0.1622 -0.6925 -0.6306
17211SOL    HW253075   2.577   7.976  11.782 -0.1225 -0.4330  0.1829
17212SOL     OW53076   6.339   1.224   9.798  0.5046 -0.3288  0.1311
17212SOL    HW153077   6.315   1.294   9.737 -0.6165  1.1818  2.1721
17212SOL    HW253078   6.258   1.174   9.810  0.1371  0.5803  1.7823
17213SOL     OW53079   3.790   3.251   2.849  0.2580  0.3155 -1.0644
17213SOL    HW153080   3.741   3.319   2.895 -1.1114 -0.6003 -1.1032
17213SOL    HW253081   3.763   3.261   2.757  0.0619 -0.2541 -1.0716
17214SOL     OW53082   7.278   4.692   3.064  0.0673 -0.3997 -0.1778
17214SOL    HW153083   7.194   4.703   3.110 -1.3513 -0.0589 -2.6658
17214SOL    HW253084   7.341   4.740   3.118 -1.1985 -1.1046  2.0538
17215SOL     OW53085   5.986   2.851   7.929  0.1891 -0.2129 -0.2776
17215SOL    HW153086   5.892   2.832   7.939 -0.1293  0.7345 -1.2435
17215SOL    HW253087   5.990   2.910   7.854  1.7163 -1.5965 -1.3765
17216SOL     OW53088   2.438   6.522   3.955  0.0043 -0.1259 -0.3409
17216SOL    HW153089   2.349   6.537   3.923 -0.7726 -1.8191  0.8281
17216SOL    HW253090   2.492   6.516   3.876 -1.0350  0.2141 -1.0969
17217SOL     OW53091   7.704   0.243   3.069 -0.2608  0.0709  0.1147
17217SOL    HW153092   7.689   0.231   3.163  1.2867 -0.5924  0.3170
17217SOL    HW253093   7.731   0.334   3.060 -3.1107  0.9844 -0.1261
17218SOL     OW53094   5.323   7.144  10.831  0.1499  0.1356 -0.8242
17218SOL    HW153095   5.393   7.194  10.872 -2.4310  2.3541  1.3005
17218SOL    HW253096   5.312   7.066  10.886  0.4610  0.1750 -0.7085
17219SOL     OW53097   6.003   7.688   6.393  1.0739 -0.0198 -0.7596
17219SOL    HW153098   5.945   7.612   6.398 -0.3211  1.0019 -0.9558
17219SOL    HW253099   6.076   7.659   6.337 -0.5236 -0.5609 -2.6841
17220SOL     OW53100   6.861   6.899   7.379 -0.3986 -1.2155  0.6957
17220SOL    HW153101   6.916   6.851   7.440 -0.2869 -1.9933  0.0074
17220SOL    HW253102   6.842   6.836   7.309  0.8390  0.1121 -0.9360
17221SOL     OW53103   2.212   1.096   9.615 -0.7925 -0.2626  0.2580
17221SOL    HW153104   2.138   1.062   9.564 -0.5724  1.2409 -1.1413
17221SOL    HW253105   2.264   1.018   9.636 -3.0437 -1.4424  1.8440
17222SOL     OW53106   0.020   1.343   9.390 -0.4303 -0.3262 -0.0330
17222SOL    HW153107   0.043   1.291   9.468  3.2301  0.9011 -0.1013
17222SOL    HW253108   0.007   1.432   9.424 -0.0468 -0.0316 -0.6475
17223SOL     OW53109   4.172   4.203   0.755 -0.4182  0.4869  0.2153
17223SOL    HW153110   4.115   4.126   0.751  1.7675 -1.1719 -2.7709
17223SOL    HW253111   4.127   4.268   0.702 -0.4858 -0.1187 -0.4880
17224SOL     OW53112   2.845   0.568   6.972 -0.0726  0.1209  0.2598
17224SOL    HW153113   2.803   0.528   6.896 -0.4945 -0.2361  0.6803
17224SOL    HW253114   2.772   0.597   7.027  0.2324 -0.2472  0.8575
17225SOL     OW53115   6.401   6.303   1.669  0.2159  0.0032 -0.1131
17225SOL    HW153116   6.400   6.398   1.677  1.2286  0.0181 -0.0414
17225SOL    HW253117   6.475   6.275   1.724  0.1217 -0.7987 -0.3795
17226SOL     OW53118   3.427   5.661  11.504 -0.2985 -0.0609 -0.1049
17226SOL    HW153119   3.488   5.590  11.480  0.1556  0.0310  0.7388
17226SOL    HW253120   3.445   5.678  11.596 -2.8196 -1.2372  0.6976
17227SOL     OW53121   1.587   6.775   2.645 -0.1175 -0.3215 -0.0974
17227SOL    HW153122   1.642   6.697   2.650 -1.4371 -1.2549  0.2038
17227SOL    HW253123   1.614   6.818   2.564 -0.5026 -1.9559 -1.1389
17228SOL     OW53124   1.059   2.489   5.026  0.5559  0.3605 -0.1565
17228SOL    HW153125   1.142   2.532   5.005  0.3097  1.1910  0.4936
17228SOL    HW253126   0.995   2.530   4.968  0.0596  1.9413  1.4384
17229SOL     OW53127   2.453   5.076   0.587  0.0657 -0.7027  0.5324
17229SOL    HW153128   2.471   5.165   0.556 -0.5021 -0.7050  0.1926
17229SOL    HW253129   2.508   5.020   0.531 -0.9836 -0.7120 -0.5311
17230SOL     OW53130   3.158   2.311   9.131 -0.9510 -0.0803 -0.4139
17230SOL    HW153131   3.167   2.405   9.119  0.2762 -0.0567  0.4240
17230SOL    HW253132   3.248   2.279   9.137 -1.3527 -1.1415  0.4301
17231SOL     OW53133   5.319   1.913  11.925  0.1913 -0.2472 -0.5990
17231SOL    HW153134   5.258   1.840  11.916  0.9224 -1.1294  1.0472
17231SOL    HW253135   5.264   1.991  11.923 -0.6630 -0.8570 -1.8684
17232SOL     OW53136   7.697   1.295  10.405 -0.5776 -0.4242 -0.1032
17232SOL    HW153137   7.631   1.354  10.368  0.7507 -0.1038 -2.0885
17232SOL    HW253138   7.648   1.239  10.464 -2.7397 -0.5240 -1.8701
17233SOL     OW53139   4.461   2.329  11.275  0.2401  0.1593 -0.4345
17233SOL    HW153140   4.401   2.371  11.213 -0.1514 -2.1577 -1.7696
17233SOL    HW253141   4.451   2.235  11.257  1.5133 -0.5005  1.9104
17234SOL     OW53142   6.180   7.236   8.235  0.1536  0.2620 -0.2431
17234SOL    HW153143   6.150   7.145   8.230  1.4847 -0.2124  0.0830
17234SOL    HW253144   6.099   7.287   8.249 -0.7697 -0.7128 -1.7255
17235SOL     OW53145   4.304   2.331  10.844  0.4126 -0.8897  0.2195
17235SOL    HW153146   4.328   2.422  10.864  0.6473 -0.8134 -0.4061
17235SOL    HW253147   4.307   2.287  10.929  1.4074 -0.5656  0.3637
17236SOL     OW53148   7.889   4.419   0.536 -0.0530 -0.5750 -0.0527
17236SOL    HW153149   7.976   4.450   0.511  0.4433 -2.4123 -0.7495
17236SOL    HW253150   7.864   4.358   0.467 -1.8382 -0.2117  0.2244
17237SOL     OW53151   4.914   1.855   1.495 -0.0687 -0.6441  0.2524
17237SOL    HW153152   4.986   1.810   1.451 -0.3107  0.5431 -1.4723
17237SOL    HW253153   4.839   1.845   1.436 -0.4499  0.9051  0.4073
17238SOL     OW53154   6.395   2.360   2.178 -0.1908 -0.0312  0.4495
17238SOL    HW153155   6.464   2.294   2.173 -0.1551 -0.0177  0.7402
17238SOL    HW253156   6.403   2.410   2.096 -0.7991 -0.9511 -0.1813
17239SOL     OW53157   0.374   5.611   9.211  0.0520 -0.0967  0.0992
17239SOL    HW153158   0.310   5.672   9.249  1.2355  0.4147  1.3871
17239SOL    HW253159   0.389   5.644   9.123 -0.1748  0.8176  0.3856
17240SOL     OW53160   4.359   6.218   1.555  0.0153 -0.1436 -0.6895
17240SOL    HW153161   4.429   6.267   1.511  2.0640 -1.8203  0.5695
17240SOL    HW253162   4.293   6.285   1.574  2.7942  2.3071  1.2214
17241SOL     OW53163   2.660   6.894   2.426  0.0169 -0.3498  0.3571
17241SOL    HW153164   2.714   6.958   2.473 -0.6560  2.2476 -2.0894
17241SOL    HW253165   2.722   6.848   2.369  0.1789 -0.0469  0.2842
17242SOL     OW53166   7.672   2.691   0.918 -0.1056  0.0056 -0.2629
17242SOL    HW153167   7.676   2.597   0.898  0.6930  0.0586 -0.3574
17242SOL    HW253168   7.624   2.729   0.845  0.1658 -0.2315 -0.5688
17243SOL     OW53169   5.858   3.454   2.986 -0.1369  0.3951  0.2815
17243SOL    HW153170   5.876   3.480   2.896 -1.7439  2.3175  0.4615
17243SOL    HW253171   5.814   3.369   2.979 -0.4089  0.6154 -0.7565
17244SOL     OW53172   4.706   6.742  10.951 -0.5769 -0.2845  0.2637
17244SOL    HW153173   4.782   6.755  10.895 -0.3384 -2.8103 -0.1195
17244SOL    HW253174   4.698   6.824  11.000  1.0194  0.8703 -1.2754
17245SOL     OW53175   6.966   6.961  12.031  0.0592  0.4170  0.4543
17245SOL    HW153176   6.878   6.959  12.067 -0.7562  0.5541 -1.4400
17245SOL    HW253177   6.981   7.053  12.008 -0.4365 -0.0181 -1.7988
17246SOL     OW53178   5.839   0.051   8.647  0.4265  1.0858 -0.0375
17246SOL    HW153179   5.773  -0.017   8.663  1.3938 -0.1140 -0.9548
17246SOL    HW253180   5.791   0.121   8.603 -0.3085  0.3457 -0.4504
17247SOL     OW53181   4.622   5.861   8.690 -0.1547 -0.5668 -0.2475
17247SOL    HW153182   4.673   5.782   8.672 -1.0493 -0.7248 -2.2714
17247SOL    HW253183   4.638   5.918   8.615  0.0841  1.0182  0.9443
17248SOL     OW53184   5.095   4.803   5.997 -0.5847 -0.0396 -0.3064
17248SOL    HW153185   5.158   4.868   6.026  0.2683 -1.7774  2.1224
17248SOL    HW253186   5.123   4.780   5.908  1.6300  0.0020  0.3097
17249SOL     OW53187   1.265   3.745   3.841  0.2732  0.2472 -0.7143
17249SOL    HW153188   1.252   3.661   3.797  1.3639 -0.5479  0.4146
17249SOL    HW253189   1.240   3.728   3.932 -0.8548  1.5430 -0.7665
17250SOL     OW53190   1.294   3.945   3.306 -0.0532  0.2760  0.3513
17250SOL    HW153191   1.357   4.002   3.263  1.4189 -0.1720  1.8093
17250SOL    HW253192   1.238   3.913   3.235 -0.7213  3.1642 -0.5825
17251SOL     OW53193   5.904   3.999   8.409 -0.1029  0.3723 -0.2431
17251SOL    HW153194   5.813   4.028   8.417  0.2120  0.9517  2.5077
17251SOL    HW253195   5.945   4.064   8.352 -1.1570  0.7921 -0.5431
17252SOL     OW53196   1.849   2.013   8.844 -0.3202 -0.0320  0.0081
17252SOL    HW153197   1.920   2.075   8.829 -0.1042  0.0482  1.2051
17252SOL    HW253198   1.893   1.933   8.872 -0.6856  0.4594  2.2341
17253SOL     OW53199   4.525   3.045  11.368 -0.0231 -0.1172 -0.4859
17253SOL    HW153200   4.441   3.028  11.325  0.0001 -0.8994 -0.2384
17253SOL    HW253201   4.570   3.105  11.309 -0.2725 -0.6300 -1.2143
17254SOL     OW53202   7.295   7.275   4.055  1.0803  0.0346 -0.0209
17254SOL    HW153203   7.286   7.363   4.019 -0.2842 -0.0684  0.0173
17254SOL    HW253204   7.317   7.220   3.980 -0.2822  0.0656 -0.4794
17255SOL     OW53205   7.553   4.389   2.317 -0.4013 -0.3286  0.0071
17255SOL    HW153206   7.520   4.300   2.306 -0.0927 -0.2984 -1.2626
17255SOL    HW253207   7.492   4.443   2.266  0.2576  0.0042 -0.4388
17256SOL     OW53208   6.421   1.465   8.408 -0.0455 -0.3171  0.0960
17256SOL    HW153209   6.469   1.490   8.329 -1.6503 -0.8243 -1.0949
17256SOL    HW253210   6.424   1.544   8.463  1.9568 -0.2791  0.0165
17257SOL     OW53211   0.269   1.328   0.724  0.4797 -0.0688 -1.0023
17257SOL    HW153212   0.201   1.387   0.693 -0.0093  0.8458  1.6140
17257SOL    HW253213   0.331   1.384   0.771  0.7108 -1.4242  0.3928
17258SOL     OW53214   5.308   5.562   7.637 -0.0596 -0.1983 -0.9102
17258SOL    HW153215   5.360   5.631   7.597 -0.2127  0.6372  0.2864
17258SOL    HW253216   5.218   5.594   7.632 -0.1482 -0.3820 -0.4847
17259SOL     OW53217   7.138   2.948   4.269 -0.0805 -0.2915  0.4278
17259SOL    HW153218   7.052   2.979   4.298  0.8419 -0.4532  3.7455
17259SOL    HW253219   7.135   2.854   4.285  0.7348 -0.2900  0.5882
17260SOL     OW53220   6.301   5.237  12.314 -0.3180 -0.1644  0.0226
17260SOL    HW153221   6.237   5.274  12.375 -1.7318 -0.5375 -1.1749
17260SOL    HW253222   6.372   5.300  12.313 -0.7325  0.3614  1.2598
17261SOL     OW53223   4.461   1.979   6.415 -0.2725 -0.3604  0.0058
17261SOL    HW153224   4.432   1.928   6.490 -0.2849 -0.3504  0.0077
17261SOL    HW253225   4.556   1.971   6.415 -0.3070 -0.7985 -0.2860
17262SOL     OW53226   4.284   2.444   6.876  0.5683  0.3297 -0.2988
17262SOL    HW153227   4.339   2.370   6.900 -0.3846 -0.6249 -0.9616
17262SOL    HW253228   4.199   2.425   6.916 -0.1426  0.2455 -1.7796
17263SOL     OW53229   4.258   0.872  12.428  0.3375 -0.3345 -0.6678
17263SOL    HW153230   4.278   0.853  12.519 -1.2836  0.0067 -0.2076
17263SOL    HW253231   4.192   0.942  12.432  0.6545  0.0817 -2.1149
17264SOL     OW53232   7.834   2.191   6.309 -0.3541 -0.0235 -0.8107
17264SOL    HW153233   7.791   2.277   6.311 -1.8718 -0.7493  1.5271
17264SOL    HW253234   7.904   2.198   6.373 -0.0859 -0.3486 -1.0645
17265SOL     OW53235   2.772   1.128   8.892 -0.2137  0.1941  0.1117
17265SOL    HW153236   2.703   1.193   8.904 -1.5298 -0.6867 -2.1151
17265SOL    HW253237   2.740   1.050   8.937  0.3008  0.3584  0.7909
17266SOL     OW53238   3.681   0.111   2.945 -0.3172 -0.1493  0.0725
17266SOL    HW153239   3.764   0.159   2.942  0.3934 -1.3163  0.3577
17266SOL    HW253240   3.632   0.143   2.870  0.4609  0.4500 -0.1957
17267SOL     OW53241   5.986   0.900   1.586 -0.2137  0.1142 -0.1324
17267SOL    HW153242   5.917   0.961   1.560 -0.2063  0.1780 -0.0051
17267SOL    HW253243   6.066   0.937   1.547 -0.0757  0.6390  0.6326
17268SOL     OW53244   0.337   1.938  11.821 -0.1724  0.4448 -0.1604
17268SOL    HW153245   0.280   1.978  11.888 -1.2338 -0.0661 -0.7317
17268SOL    HW253246   0.344   2.004  11.753 -0.3559  0.3800 -0.2420
17269SOL     OW53247   3.476   2.497  11.457  0.7082 -0.1295  0.1639
17269SOL    HW153248   3.505   2.587  11.442 -2.4567  0.6569 -2.2940
17269SOL    HW253249   3.411   2.504  11.527  1.2215 -0.7217  0.7153
17270SOL     OW53250   5.655   4.187   7.053 -0.1226  0.0409  0.3445
17270SOL    HW153251   5.738   4.232   7.069  0.9086 -2.1777  1.6719
17270SOL    HW253252   5.625   4.222   6.969  1.4180  1.9304  0.5109
17271SOL     OW53253   3.783   6.459   3.178 -0.5841 -0.2853 -0.0582
17271SOL    HW153254   3.692   6.431   3.170  0.1195 -2.6353 -0.6810
17271SOL    HW253255   3.781   6.527   3.245 -2.8574  0.1724 -0.4867
17272SOL     OW53256   5.758   4.261   8.804  0.0218 -0.0867 -0.5465
17272SOL    HW153257   5.663   4.251   8.790  0.2479 -2.3071 -0.7550
17272SOL    HW253258   5.797   4.232   8.722  0.9824 -2.3520  0.6481
17273SOL     OW53259   4.871   1.955   5.288  0.1847  0.0279  0.1503
17273SOL    HW153260   4.816   1.878   5.303 -1.3107  0.7153 -1.4830
17273SOL    HW253261   4.880   1.961   5.193  0.9908  1.4025  0.2812
17274SOL     OW53262   7.395   5.466   4.081 -0.2768  0.6847  0.5605
17274SOL    HW153263   7.415   5.465   4.174 -0.2748 -2.0859  0.6078
17274SOL    HW253264   7.459   5.407   4.042 -0.3018  1.7497 -1.2413
17275SOL     OW53265   6.954   2.867   7.441  0.1341 -0.0464  0.1014
17275SOL    HW153266   6.908   2.942   7.404  1.3319  0.3282 -0.6957
17275SOL    HW253267   6.895   2.834   7.509 -0.2523  1.8702  0.7681
17276SOL     OW53268   4.601   1.278   9.643  0.9246  0.3319  0.2604
17276SOL    HW153269   4.638   1.202   9.687  0.9792 -0.1241 -0.5444
17276SOL    HW253270   4.560   1.329   9.713  0.3471 -0.7492  0.7362
17277SOL     OW53271   1.497   7.480   3.676 -0.1364  0.1970 -0.1168
17277SOL    HW153272   1.431   7.538   3.637  1.2274  1.8771 -0.0069
17277SOL    HW253273   1.536   7.532   3.746  2.0062 -0.3599 -0.8315
17278SOL     OW53274   4.991   5.682   8.434  0.1163 -0.0598  0.3425
17278SOL    HW153275   5.080   5.712   8.456 -0.1647  1.0660  0.0115
17278SOL    HW253276   4.940   5.701   8.512  0.4308 -2.0793  1.1106
17279SOL     OW53277   7.048   6.170  12.157  0.2063  0.5971 -0.0625
17279SOL    HW153278   7.091   6.126  12.231 -0.1946  0.7147  0.2430
17279SOL    HW253279   6.962   6.196  12.191  0.3443  1.4061 -0.3068
17280SOL     OW53280   6.249   0.734  10.782 -0.0252 -0.0119  0.0323
17280SOL    HW153281   6.230   0.677  10.708  2.4243 -0.5908 -0.2461
17280SOL    HW253282   6.309   0.683  10.837 -0.3639  1.0887  1.4914
17281SOL     OW53283   3.438   4.097   4.594  0.3272  0.2539 -0.4295
17281SOL    HW153284   3.414   4.178   4.551  1.0406  0.4679 -0.4293
17281SOL    HW253285   3.390   4.099   4.677  0.0150  0.4741 -0.6161
17282SOL     OW53286   7.001   0.010  11.333 -0.9274  0.4379 -0.0154
17282SOL    HW153287   7.033  -0.050  11.401 -1.2372  0.5701  0.2489
17282SOL    HW253288   6.910  -0.014  11.319 -1.3525  1.4658  0.8046
17283SOL     OW53289   7.108   0.555   4.727 -0.1255 -0.2314  0.2593
17283SOL    HW153290   7.024   0.508   4.733 -0.7121  0.8118  0.4410
17283SOL    HW253291   7.165   0.509   4.789 -0.4090 -1.2283 -0.1889
17284SOL     OW53292   6.815   3.112   7.422 -0.6221 -0.2778 -0.0160
17284SOL    HW153293   6.863   3.179   7.472 -1.8382  0.3853  0.2964
17284SOL    HW253294   6.781   3.158   7.346 -0.4115 -0.8441 -0.4600
17285SOL     OW53295   4.339   5.234   9.590 -0.9280 -0.0921  0.2137
17285SOL    HW153296   4.406   5.218   9.524 -0.6748 -1.6822  0.8116
17285SOL    HW253297   4.315   5.326   9.579 -1.5455 -0.5091 -2.6870
17286SOL     OW53298   5.964   4.300   5.258  0.6042 -0.1785  0.0235
17286SOL    HW153299   6.056   4.326   5.251  0.3018  0.8674 -0.2370
17286SOL    HW253300   5.917   4.367   5.209 -0.2242 -1.2220 -0.6690
17287SOL     OW53301   3.429   7.656   5.574  0.5532  0.2739 -0.4629
17287SOL    HW153302   3.374   7.584   5.543  0.0359  0.8473 -0.8858
17287SOL    HW253303   3.500   7.613   5.622 -0.4995 -0.4650  0.4806
17288SOL     OW53304   5.143   5.398  12.263 -0.1641 -0.0596 -0.2002
17288SOL    HW153305   5.093   5.407  12.182 -0.3685 -2.3437 -0.3904
17288SOL    HW253306   5.182   5.311  12.258  0.0379 -0.1676  2.0423
17289SOL     OW53307   6.229   7.567   9.701  0.0366 -0.1894 -0.0368
17289SOL    HW153308   6.145   7.588   9.741 -0.7808 -1.4735 -1.0287
17289SOL    HW253309   6.218   7.587   9.608  0.2319 -1.9769 -0.4792
17290SOL     OW53310   4.354   4.621   3.253  0.7283 -0.0578  0.0377
17290SOL    HW153311   4.399   4.561   3.193  0.8349 -0.8136  0.8556
17290SOL    HW253312   4.425   4.666   3.298  0.6510  1.0528 -0.9114
17291SOL     OW53313   0.568   2.957   1.452 -0.0339  0.0003 -0.0820
17291SOL    HW153314   0.596   2.955   1.543 -1.3183  0.1018  0.3396
17291SOL    HW253315   0.622   2.891   1.408  0.7193  0.0821  0.7089
17292SOL     OW53316   0.161   1.599   6.169 -0.4552 -0.1369 -0.0207
17292SOL    HW153317   0.155   1.687   6.130 -0.7386 -0.1857 -0.0911
17292SOL    HW253318   0.228   1.607   6.236 -0.0897 -0.0048 -0.4016
17293SOL     OW53319   4.886   3.056   0.681  0.5581 -0.0696 -0.3271
17293SOL    HW153320   4.977   3.026   0.681  0.8777  0.8235  0.9588
17293SOL    HW253321   4.892   3.150   0.700 -0.6300  0.0402 -0.4332
17294SOL     OW53322   1.040   2.866   7.100 -0.4435 -0.4063 -0.5475
17294SOL    HW153323   0.978   2.877   7.172  0.3735 -0.8780  0.2487
17294SOL    HW253324   1.046   2.953   7.059 -1.1903 -0.2296 -0.2761
17295SOL     OW53325   3.688   6.541   9.483 -0.3890  0.0292  0.1568
17295SOL    HW153326   3.705   6.480   9.555 -3.3554  1.1318  1.9938
17295SOL    HW253327   3.765   6.597   9.480  0.6812 -1.3211  1.0818
17296SOL     OW53328   7.347   5.018   5.891 -0.0163 -0.1537 -0.0772
17296SOL    HW153329   7.392   5.031   5.807  0.7211 -0.2100  0.3023
17296SOL    HW253330   7.285   5.090   5.897  2.5221  2.1012  1.0373
17297SOL     OW53331   0.911   3.498   9.536  0.2845  0.7341 -0.3961
17297SOL    HW153332   0.823   3.470   9.512  0.3465 -0.7161  0.8832
17297SOL    HW253333   0.916   3.481   9.630  1.8869  0.8921 -0.4276
17298SOL     OW53334   0.490   7.517   9.788 -0.5076  0.2900 -0.1205
17298SOL    HW153335   0.404   7.476   9.787 -1.3022  1.8461  0.6721
17298SOL    HW253336   0.515   7.518   9.881  0.3327 -0.0687 -0.3332
17299SOL     OW53337   2.962   3.894   5.629 -0.1471 -0.1575 -0.0808
17299SOL    HW153338   3.029   3.960   5.647 -0.3762  0.4111 -1.1847
17299SOL    HW253339   2.978   3.825   5.692  2.4035 -0.7107 -1.2184
17300SOL     OW53340   6.242   3.951   2.624  0.2572  0.6330  0.0285
17300SOL    HW153341   6.162   4.001   2.641 -0.2073  0.1772 -0.7737
17300SOL    HW253342   6.311   4.018   2.617 -0.3355  1.1689 -0.8970
17301SOL     OW53343   3.134   1.291  12.471  0.2965 -0.0462 -0.0333
17301SOL    HW153344   3.045   1.263  12.491  0.1944  0.7083  0.6117
17301SOL    HW253345   3.154   1.358  12.536  1.4131 -0.3475 -0.0415
17302SOL     OW53346   4.243   1.528   6.388  0.2876 -0.6801  0.3683
17302SOL    HW153347   4.201   1.597   6.440  1.7527 -0.3823  1.2259
17302SOL    HW253348   4.291   1.576   6.320  2.1322 -0.7214  1.5660
17303SOL     OW53349   3.130   6.056   7.723  0.5251  0.1106 -0.5129
17303SOL    HW153350   3.206   6.070   7.667  0.6176  0.1386 -0.3799
17303SOL    HW253351   3.061   6.027   7.663  0.7780 -0.3936 -0.5612
17304SOL     OW53352   3.705   2.729   5.422 -0.0407 -0.0726 -0.1614
17304SOL    HW153353   3.788   2.767   5.452  0.3526 -0.2429 -1.0141
17304SOL    HW253354   3.645   2.803   5.419  0.3195  0.2132 -0.3891
17305SOL     OW53355   5.409   1.486   3.829  0.3090 -0.1938  0.0633
17305SOL    HW153356   5.362   1.431   3.765  0.3629  1.0411 -1.0858
17305SOL    HW253357   5.500   1.458   3.820  0.1530 -0.8558  0.4775
17306SOL     OW53358   1.890   3.273   4.612 -0.0748  0.1767 -0.0805
17306SOL    HW153359   1.845   3.204   4.563 -0.6653  2.1924 -2.5241
17306SOL    HW253360   1.983   3.257   4.596 -0.0775 -1.0431  0.8850
17307SOL     OW53361   0.290   1.855   4.944 -0.1437  0.0950 -0.0897
17307SOL    HW153362   0.237   1.856   5.024 -0.8068  2.4447 -0.4673
17307SOL    HW253363   0.228   1.872   4.874  0.7023 -0.0146 -0.8779
17308SOL     OW53364   2.774   6.484   4.182 -0.1633  0.1256  0.0484
17308SOL    HW153365   2.743   6.451   4.267  1.7373 -1.9108  0.0456
17308SOL    HW253366   2.694   6.506   4.134 -1.5187 -2.2715  1.0145
17309SOL     OW53367   3.600   5.758   0.247 -0.1705  0.0712 -0.2547
17309SOL    HW153368   3.520   5.751   0.194  1.1928  1.1909 -2.6450
17309SOL    HW253369   3.667   5.715   0.194  0.8101 -1.1574  1.8617
17310SOL     OW53370   6.041   4.735   4.706 -0.4340  0.3699  0.0175
17310SOL    HW153371   5.999   4.782   4.779 -0.9671  0.6966 -0.4921
17310SOL    HW253372   6.013   4.644   4.718 -0.4534  0.4070  0.2715
17311SOL     OW53373   5.614   6.453   9.610 -0.2234  0.2471 -0.1385
17311SOL    HW153374   5.597   6.429   9.701  0.4586 -1.3612 -0.4028
17311SOL    HW253375   5.666   6.381   9.576  1.6511  1.9746 -1.1289
17312SOL     OW53376   5.278   7.253   6.910  0.2843  0.4902  0.0080
17312SOL    HW153377   5.324   7.169   6.905 -0.9279 -0.2330  0.6654
17312SOL    HW253378   5.200   7.235   6.962 -0.2426  1.9263 -0.2386
17313SOL     OW53379   5.857   2.309   2.882  0.1661 -0.1519 -0.5684
17313SOL    HW153380   5.893   2.383   2.833  0.8909 -0.2114 -0.1496
17313SOL    HW253381   5.935   2.263   2.915 -0.2670 -1.2374 -1.0291
17314SOL     OW53382   4.729   4.502   4.859  0.3924 -0.0397  0.0580
17314SOL    HW153383   4.695   4.422   4.900  1.0068 -0.7528 -0.7961
17314SOL    HW253384   4.813   4.517   4.901  0.0955  0.4013  0.5079
17315SOL     OW53385   3.003   1.692   1.929 -0.4957  0.3957 -0.1279
17315SOL    HW153386   3.001   1.778   1.888 -1.0059  0.2420 -0.4379
17315SOL    HW253387   3.005   1.630   1.856  1.0370  0.1509  0.0858
17316SOL     OW53388   2.872   4.642   0.033  0.2914 -0.0886  0.2623
17316SOL    HW153389   2.964   4.661   0.051  0.1484  0.0617  0.8696
17316SOL    HW253390   2.824   4.692   0.099 -0.3054  1.0978 -1.0025
17317SOL     OW53391   3.354   3.168   1.860  0.0608  0.9553  0.3756
17317SOL    HW153392   3.426   3.227   1.839  0.1782  0.4194 -0.7715
17317SOL    HW253393   3.274   3.218   1.843  0.1615  0.8918 -0.3074
17318SOL     OW53394   0.080   1.612   0.878  0.6832  0.3605  0.4069
17318SOL    HW153395   0.127   1.691   0.905  0.4160  0.6992 -0.0797
17318SOL    HW253396   0.098   1.548   0.946  0.1641  1.1286  1.3017
17319SOL     OW53397   5.997   5.986   0.939 -0.0691  0.4786 -0.0612
17319SOL    HW153398   6.063   6.010   0.875 -1.1799  0.9573 -1.0531
17319SOL    HW253399   5.920   5.962   0.887 -0.1150 -1.9749  0.9621
17320SOL     OW53400   2.831   0.468   0.625 -0.3537 -0.4759 -0.1008
17320SOL    HW153401   2.868   0.555   0.613  1.5745 -1.4663 -1.9319
17320SOL    HW253402   2.793   0.445   0.540 -1.4990 -1.1473  0.5647
17321SOL     OW53403   0.782   6.072   7.248 -0.1416 -0.2173 -0.4182
17321SOL    HW153404   0.711   6.059   7.312  0.7592 -0.7904  0.4928
17321SOL    HW253405   0.796   5.985   7.211  0.7963 -0.3231  0.1751
17322SOL     OW53406   6.401   7.609  10.542 -0.0005 -0.5664  0.2136
17322SOL    HW153407   6.338   7.538  10.527  0.3598 -0.9712  0.5799
17322SOL    HW253408   6.486   7.571  10.518 -0.0592  0.4902 -1.8859
17323SOL     OW53409   1.968   4.262   1.209  1.1040  0.3675 -0.1179
17323SOL    HW153410   2.045   4.256   1.266  2.4075 -1.2930 -1.8970
17323SOL    HW253411   1.999   4.309   1.132 -0.1493  1.1106 -0.1940
17324SOL     OW53412   1.100   0.533   9.951  0.4952  0.3296 -0.0765
17324SOL    HW153413   1.192   0.514   9.936 -0.0722 -1.0983 -2.0869
17324SOL    HW253414   1.093   0.628   9.941  1.6891  0.4241 -0.1244
17325SOL     OW53415   1.824   0.429   2.395 -0.1443 -0.2567 -0.1546
17325SOL    HW153416   1.903   0.471   2.361 -0.4421  0.5370  0.0898
17325SOL    HW253417   1.853   0.343   2.425  0.3240 -0.5658 -1.4302
17326SOL     OW53418   6.205   2.594   9.837 -0.1340 -0.0086  0.1432
17326SOL    HW153419   6.138   2.620   9.774 -0.6389  2.0306  1.4358
17326SOL    HW253420   6.288   2.606   9.791 -0.4612  2.0904 -0.0125
17327SOL     OW53421   6.756   7.345   6.057 -0.4176  0.6777 -0.1180
17327SOL    HW153422   6.794   7.257   6.065  1.7062  1.2207 -2.6862
17327SOL    HW253423   6.713   7.344   5.971  0.1357  2.2746 -0.4447
17328SOL     OW53424   0.224   6.432  10.790  0.5130  0.4209  0.1238
17328SOL    HW153425   0.207   6.491  10.863 -1.6873 -1.2837  1.0818
17328SOL    HW253426   0.186   6.477  10.714 -1.2729  0.2169  0.8655
17329SOL     OW53427   2.980   2.042   7.549 -0.1942  0.0409  0.1536
17329SOL    HW153428   3.036   2.100   7.600  0.9261 -1.3606  0.5500
17329SOL    HW253429   2.969   2.088   7.465  1.3901  0.4571  0.1367
17330SOL     OW53430   0.370   2.231   8.395 -0.2467  0.8393 -0.4667
17330SOL    HW153431   0.402   2.267   8.312 -2.0782  2.1202 -0.6669
17330SOL    HW253432   0.419   2.150   8.406  0.7389  1.1319 -2.3022
17331SOL     OW53433   3.932   0.994   7.027 -0.1181  0.2187  0.6240
17331SOL    HW153434   3.994   0.985   7.098 -0.7421 -1.0046  1.0418
17331SOL    HW253435   3.979   1.043   6.959  1.2896 -0.6590  0.9319
17332SOL     OW53436   0.232   2.993   9.408 -0.5581 -0.1700  0.4111
17332SOL    HW153437   0.288   3.042   9.348 -0.5095 -0.1774  0.4501
17332SOL    HW253438   0.288   2.973   9.482 -1.0934  1.3922  1.2806
17333SOL     OW53439   5.437   2.989   7.639  0.4829 -0.4085  0.4206
17333SOL    HW153440   5.462   2.901   7.611 -1.1900 -0.4929 -0.9865
17333SOL    HW253441   5.403   3.030   7.560  1.2510  1.5320  1.0558
17334SOL     OW53442   1.268   5.685   5.921 -0.2017  0.0398 -0.1315
17334SOL    HW153443   1.194   5.745   5.905 -0.8747 -1.1108 -1.5473
17334SOL    HW253444   1.247   5.607   5.870  1.9054 -0.4215 -0.3829
17335SOL     OW53445   5.492   5.789   3.100  0.0683  0.1729  0.6177
17335SOL    HW153446   5.419   5.828   3.052 -1.0500  0.2611  2.2791
17335SOL    HW253447   5.552   5.862   3.117 -0.5058  0.5533  1.0481
17336SOL     OW53448   6.046   5.844   4.219  0.1118  0.3208  0.4131
17336SOL    HW153449   6.024   5.911   4.154  1.2707  0.2386 -0.0720
17336SOL    HW253450   6.082   5.894   4.292  1.9894  0.1820 -0.3748
17337SOL     OW53451   5.919   1.162   9.576  0.2892 -0.6870 -0.2703
17337SOL    HW153452   5.928   1.085   9.632 -0.0824  0.2149  1.0725
17337SOL    HW253453   5.991   1.219   9.602 -1.6229  1.0540  1.5099
17338SOL     OW53454   5.574   0.062   4.379 -0.6915 -0.2775 -0.3166
17338SOL    HW153455   5.506   0.106   4.430 -0.4483 -2.1793  1.8018
17338SOL    HW253456   5.535  -0.021   4.353 -0.5151  0.2976 -2.6590
17339SOL     OW53457   6.995   4.547  11.770  0.1650 -0.2284 -0.2802
17339SOL    HW153458   6.981   4.640  11.787  0.1927  0.5140 -3.7438
17339SOL    HW253459   7.078   4.527  11.815  0.8650  1.7776 -0.5826
17340SOL     OW53460   5.205   4.180   7.910  0.2902  0.6288 -0.1144
17340SOL    HW153461   5.240   4.125   7.981 -1.5959 -0.7210 -0.1571
17340SOL    HW253462   5.135   4.230   7.952 -0.5060  0.1892 -0.9008
17341SOL     OW53463   5.525   3.524   7.913 -0.1213 -0.1587 -0.0456
17341SOL    HW153464   5.611   3.545   7.948  0.9812 -0.4356 -2.4092
17341SOL    HW253465   5.464   3.579   7.963  1.2957 -0.4122  2.1025
17342SOL     OW53466   4.254   5.320   1.435 -0.0354 -0.0711  0.1081
17342SOL    HW153467   4.213   5.406   1.430 -0.9488 -0.4340  1.0158
17342SOL    HW253468   4.293   5.317   1.522  0.5643 -0.3346 -0.1627
17343SOL     OW53469   2.670   6.667   1.847 -0.1990  0.0859  0.2411
17343SOL    HW153470   2.592   6.701   1.805 -0.9354 -2.3611 -0.5585
17343SOL    HW253471   2.657   6.572   1.848  2.2334 -0.3142  1.1731
17344SOL     OW53472   2.025   5.681   9.889 -0.6228 -0.4437  0.0967
17344SOL    HW153473   1.979   5.753   9.845  2.1835  1.6886  0.3206
17344SOL    HW253474   2.050   5.621   9.819 -3.1840 -1.4321 -0.0721
17345SOL     OW53475   0.670   7.903   5.648  0.2554 -0.2229  0.0231
17345SOL    HW153476   0.590   7.872   5.688 -0.2908  3.1931  2.0004
17345SOL    HW253477   0.740   7.877   5.709  0.3593 -1.1535 -0.4861
17346SOL     OW53478   2.668   7.274   4.082  0.5455 -0.1824 -0.5965
17346SOL    HW153479   2.605   7.315   4.023  0.5756  0.0866 -0.4438
17346SOL    HW253480   2.616   7.244   4.157  0.7697  1.2462  0.1676
17347SOL     OW53481   3.475   0.164  10.708 -0.8001 -0.0211 -0.0019
17347SOL    HW153482   3.384   0.191  10.720 -0.4493  0.8171  0.9060
17347SOL    HW253483   3.470   0.074  10.676 -1.9717  0.4469 -1.2032
17348SOL     OW53484   5.843   4.748   6.325  0.2953 -0.6890 -1.0194
17348SOL    HW153485   5.886   4.667   6.352  1.4266  0.1303 -0.2345
17348SOL    HW253486   5.756   4.743   6.365 -0.4301 -2.3993 -2.6837
17349SOL     OW53487   2.990   4.281   8.724  0.2637  0.2547 -0.2918
17349SOL    HW153488   2.972   4.310   8.635 -0.9105  0.6004  0.0443
17349SOL    HW253489   3.012   4.361   8.772  0.5226  0.1182 -0.1792
17350SOL     OW53490   7.528   4.976   0.930 -1.2276  0.2703 -0.5776
17350SOL    HW153491   7.469   5.034   0.979 -2.2262  0.2831 -1.7333
17350SOL    HW253492   7.472   4.903   0.903  0.1556 -1.6368  1.4185
17351SOL     OW53493   3.074   0.372   5.066 -0.1074  0.4450  0.8641
17351SOL    HW153494   3.044   0.310   4.999  1.0745 -0.2946  0.9800
17351SOL    HW253495   3.135   0.430   5.020 -0.1496  0.6435  1.0549
17352SOL     OW53496   3.892   4.490   2.150  0.0383 -0.4449 -0.4143
17352SOL    HW153497   3.931   4.536   2.225  0.4118 -2.1870  0.5252
17352SOL    HW253498   3.929   4.402   2.155 -1.1842 -1.0686 -1.7192
17353SOL     OW53499   4.304   0.324   6.051 -0.0783  0.0556 -0.1783
17353SOL    HW153500   4.393   0.296   6.071 -0.2890  0.6292  1.7288
17353SOL    HW253501   4.264   0.342   6.136 -1.4406  1.5959 -1.0751
17354SOL     OW53502   3.396   5.638   1.669 -0.0475 -0.7985 -0.2507
17354SOL    HW153503   3.438   5.724   1.664 -2.6791  0.5165 -2.6927
17354SOL    HW253504   3.421   5.604   1.755  2.8494  1.4146 -0.0665
17355SOL     OW53505   6.176   3.894   7.594  0.2270 -0.9939 -0.0506
17355SOL    HW153506   6.252   3.952   7.590  0.2752 -1.1110 -1.1470
17355SOL    HW253507   6.214   3.807   7.606  0.1621 -0.8560  1.3901
17356SOL     OW53508   3.405   5.897   5.920 -0.0349  0.0672  0.5661
17356SOL    HW153509   3.331   5.858   5.967 -0.1016  0.2525  0.6166
17356SOL    HW253510   3.368   5.975   5.878  0.1676  0.2445  0.7142
17357SOL     OW53511   5.403   1.303  11.899  0.4214  0.1276 -0.1129
17357SOL    HW153512   5.446   1.267  11.976  1.9171  1.4200 -0.2952
17357SOL    HW253513   5.474   1.341  11.847 -0.7827  1.0948 -1.1222
17358SOL     OW53514   2.894   7.913   2.163  0.1379 -0.5330 -0.3129
17358SOL    HW153515   2.970   7.866   2.197 -0.6158 -1.2707  0.4049
17358SOL    HW253516   2.880   7.876   2.076 -0.4704 -1.7083  0.2588
17359SOL     OW53517   6.432   7.564  11.300 -0.6421  0.1373  0.0736
17359SOL    HW153518   6.379   7.490  11.270 -2.4021  0.7882  1.3948
17359SOL    HW253519   6.444   7.548  11.394  2.8845 -0.7537 -0.4011
17360SOL     OW53520   3.777   0.962   1.963 -0.4962 -0.1454 -0.0272
17360SOL    HW153521   3.754   0.905   1.889  2.4493 -0.4676 -0.8248
17360SOL    HW253522   3.774   0.905   2.039 -1.8225 -0.2600 -0.1513
17361SOL     OW53523   3.290   7.402   8.592  0.6585 -0.1880 -0.0118
17361SOL    HW153524   3.292   7.378   8.499 -0.4625  0.6428 -0.2774
17361SOL    HW253525   3.381   7.422   8.614  0.6274  2.0608 -1.6109
17362SOL     OW53526   7.503   3.053   6.726 -0.2102  0.4576 -0.1113
17362SOL    HW153527   7.534   3.137   6.761 -0.1253  0.2898  0.2257
17362SOL    HW253528   7.428   3.030   6.781 -0.4167  0.4539 -0.3909
17363SOL     OW53529   7.933   6.860   1.392 -0.0078 -0.0580  0.3322
17363SOL    HW153530   7.969   6.801   1.326 -0.6826  0.4269 -0.4905
17363SOL    HW253531   7.976   6.944   1.374  0.2020 -0.0444  0.8608
17364SOL     OW53532   5.793   6.398  12.346 -0.1344  1.2208 -0.9109
17364SOL    HW153533   5.705   6.386  12.382  0.5330 -0.3196  0.2870
17364SOL    HW253534   5.785   6.475  12.289 -2.1798  1.2769 -0.6160
17365SOL     OW53535   5.743   5.985   1.416 -0.1101  0.0813  0.1659
17365SOL    HW153536   5.823   6.038   1.415 -0.7158  1.0217  0.1043
17365SOL    HW253537   5.672   6.049   1.406 -0.7954 -0.8713 -1.3378
17366SOL     OW53538   1.671   3.554   4.811 -0.6559 -0.2740 -0.4036
17366SOL    HW153539   1.627   3.562   4.726 -2.5730 -1.5116  0.4079
17366SOL    HW253540   1.624   3.614   4.868  0.5248  0.4340 -0.1310
17367SOL     OW53541   1.892   5.635   3.947  0.1460  0.3033 -0.1514
17367SOL    HW153542   1.917   5.699   4.013 -1.4059  2.2020 -1.3261
17367SOL    HW253543   1.837   5.572   3.995  2.5932 -0.9207  1.2582
17368SOL     OW53544   2.266   5.398   1.772  0.3909 -0.0646  0.2486
17368SOL    HW153545   2.311   5.442   1.699 -0.3919  0.9665  0.3698
17368SOL    HW253546   2.331   5.397   1.842  0.3592  1.1674  0.3306
17369SOL     OW53547   4.189   4.097   2.069  0.3352  0.5581 -0.1555
17369SOL    HW153548   4.127   4.161   2.104  1.7593  0.3000  3.2068
17369SOL    HW253549   4.251   4.149   2.018  0.4019  1.6242  0.9690
17370SOL     OW53550   3.360   6.378   6.237 -0.2872 -0.4424 -0.0553
17370SOL    HW153551   3.456   6.379   6.229 -0.1784 -0.8479  1.0474
17370SOL    HW253552   3.329   6.406   6.151  0.8309  0.3552 -0.2269
17371SOL     OW53553   2.545   7.247   8.252  0.2909  0.0305  0.1629
17371SOL    HW153554   2.476   7.180   8.257  1.7310 -1.5040  0.3339
17371SOL    HW253555   2.549   7.270   8.160  0.1449 -0.5261  0.0130
17372SOL     OW53556   0.232   1.851   5.942 -0.6234 -0.3954  0.4703
17372SOL    HW153557   0.323   1.862   5.968 -0.6503  1.1025  0.0183
17372SOL    HW253558   0.182   1.888   6.014 -0.8484 -0.4535  0.3455
17373SOL     OW53559   0.997   0.181   4.372 -0.0312  0.2124  0.2469
17373SOL    HW153560   0.991   0.253   4.435  0.2966 -0.5723  1.1915
17373SOL    HW253561   1.060   0.212   4.307  1.0493  0.3042  1.3083
17374SOL     OW53562   7.115   5.406   0.855 -0.0611 -0.0374  0.5402
17374SOL    HW153563   7.107   5.335   0.792 -0.2687  0.1596  0.3416
17374SOL    HW253564   7.190   5.458   0.825  0.0279 -0.1169  0.6268
17375SOL     OW53565   1.980   0.254   3.030 -0.1876  0.1323 -0.1162
17375SOL    HW153566   1.930   0.303   2.965  1.2050  2.4213  0.3886
17375SOL    HW253567   2.039   0.320   3.068  0.5840 -1.6161  1.8855
17376SOL     OW53568   0.208   0.119   9.293 -0.0646 -0.4844  0.0666
17376SOL    HW153569   0.167   0.080   9.370  0.2324 -0.9982 -0.0307
17376SOL    HW253570   0.201   0.214   9.306  1.9414 -0.5086  1.7758
17377SOL     OW53571   7.600   1.432  11.711  0.1906  0.3855  0.8530
17377SOL    HW153572   7.669   1.366  11.718 -0.7874 -1.0054 -1.3962
17377SOL    HW253573   7.609   1.466  11.622 -1.8856  0.3012  0.5730
17378SOL     OW53574   3.717   5.959   9.356 -0.0666 -0.1240  0.1692
17378SOL    HW153575   3.679   6.045   9.374  0.3209 -0.2539  1.7730
17378SOL    HW253576   3.775   5.942   9.431  0.2550 -1.5554 -0.3709
17379SOL     OW53577   4.489   7.949   9.913  0.3685 -0.0427  0.1437
17379SOL    HW153578   4.417   8.011   9.924  0.2961 -0.4354  2.1755
17379SOL    HW253579   4.448   7.869   9.880  0.5197  1.0129 -2.9760
17380SOL     OW53580   2.235   7.544   9.142 -0.3264 -0.2746 -0.7434
17380SOL    HW153581   2.258   7.552   9.235  0.5235  0.2845 -0.9932
17380SOL    HW253582   2.158   7.601   9.132  0.3747  0.7220 -0.6429
17381SOL     OW53583   2.158   5.146   5.432  0.3508  0.1212  0.2250
17381SOL    HW153584   2.199   5.095   5.362  0.0147 -0.0100  0.1227
17381SOL    HW253585   2.222   5.215   5.452 -0.0869  0.9659 -1.1245
17382SOL     OW53586   3.348   6.661  10.154 -0.3468 -0.6474  0.6723
17382SOL    HW153587   3.301   6.689  10.232 -0.3782  0.1446  0.3742
17382SOL    HW253588   3.279   6.642  10.090 -0.2835 -0.1327  0.4501
17383SOL     OW53589   1.265   0.125   8.838 -0.3523  0.0104 -0.3946
17383SOL    HW153590   1.195   0.156   8.894 -0.7981 -0.6842 -0.5566
17383SOL    HW253591   1.305   0.205   8.802  0.6763  0.5460  1.7439
17384SOL     OW53592   7.494   3.574   4.553  0.1385  0.0787  0.0891
17384SOL    HW153593   7.572   3.551   4.503  0.7112  2.4489 -0.2397
17384SOL    HW253594   7.456   3.648   4.506  0.6921  2.4391  3.0209
17385SOL     OW53595   6.173   2.143   2.213 -0.0733  0.0648 -0.1755
17385SOL    HW153596   6.196   2.154   2.305 -2.0614  2.3455  0.1430
17385SOL    HW253597   6.208   2.220   2.169 -2.7047  1.2067 -0.4826
17386SOL     OW53598   1.187   4.720   3.796  0.3097  0.6827  0.6652
17386SOL    HW153599   1.156   4.669   3.870  0.2331 -0.8773 -0.3983
17386SOL    HW253600   1.208   4.655   3.729  1.1739  1.9935 -0.3940
17387SOL     OW53601   0.906   5.693   8.666 -0.1254 -0.7117  0.5224
17387SOL    HW153602   0.857   5.614   8.646 -1.9877  0.4449  0.2248
17387SOL    HW253603   0.930   5.684   8.759 -0.4376 -1.5311  0.5304
17388SOL     OW53604   0.229   0.705  10.070 -0.6762 -0.3790  0.0343
17388SOL    HW153605   0.254   0.618  10.038  0.1416  0.1593 -0.8540
17388SOL    HW253606   0.289   0.765  10.025 -0.8343  0.5948  1.0884
17389SOL     OW53607   3.840   6.843   4.545  0.3351  0.2611 -1.0762
17389SOL    HW153608   3.844   6.920   4.488 -0.6009  2.1705  1.2785
17389SOL    HW253609   3.897   6.865   4.619  2.0496 -2.4137 -1.4709
17390SOL     OW53610   6.472   0.224   0.620 -0.1218  0.2038 -0.0316
17390SOL    HW153611   6.532   0.259   0.686  1.1987 -2.8684  0.5952
17390SOL    HW253612   6.530   0.200   0.547 -0.7765 -1.2870 -0.0963
17391SOL     OW53613   3.256   6.221  10.090  0.2507 -0.6232 -0.0103
17391SOL    HW153614   3.301   6.138  10.100 -0.9564 -1.0995  2.1597
17391SOL    HW253615   3.210   6.234  10.174 -0.5430  1.6478 -0.7136
17392SOL     OW53616   5.913   0.953   9.788  0.1335 -0.1398  0.5587
17392SOL    HW153617   5.968   0.880   9.762 -1.0117 -1.0547  0.6078
17392SOL    HW253618   5.849   0.915   9.849 -1.2946  0.5913 -0.4112
17393SOL     OW53619   5.809   5.090   5.285 -0.0389  0.4109 -0.7484
17393SOL    HW153620   5.793   5.026   5.353  2.2663  0.1602 -0.3538
17393SOL    HW253621   5.737   5.079   5.223 -0.7585 -1.1462  0.3208
17394SOL     OW53622   3.035   5.217  11.308  0.3371  0.3788  0.0503
17394SOL    HW153623   2.972   5.175  11.368  1.5091 -0.7455  0.5595
17394SOL    HW253624   3.101   5.150  11.294  0.6425  1.0082 -1.6960
17395SOL     OW53625   0.373   3.133  11.815 -0.4609  0.0003 -0.2137
17395SOL    HW153626   0.363   3.120  11.720  1.9421 -0.1314 -0.5143
17395SOL    HW253627   0.429   3.061  11.843 -0.0850  0.7609  1.0774
17396SOL     OW53628   3.479   7.827   6.546  0.5463 -0.5287 -0.6716
17396SOL    HW153629   3.412   7.781   6.596 -0.7765  0.8964 -1.0508
17396SOL    HW253630   3.544   7.760   6.525  0.4658 -1.4438  1.7501
17397SOL     OW53631   1.036   0.480  10.974  0.0703 -0.6174  0.3382
17397SOL    HW153632   0.956   0.529  10.991  1.0573  1.0961  0.3145
17397SOL    HW253633   1.015   0.424  10.899 -0.3068  1.9356 -1.5807
17398SOL     OW53634   5.308   0.119   9.053  0.1302  0.1563 -0.0942
17398SOL    HW153635   5.240   0.053   9.064  1.6930 -1.4802  0.1845
17398SOL    HW253636   5.272   0.198   9.093 -1.6921 -0.5781 -0.2104
17399SOL     OW53637   5.566   5.198   5.177 -0.3429  0.3057 -0.6670
17399SOL    HW153638   5.474   5.185   5.154 -0.2456 -0.5459 -0.6099
17399SOL    HW253639   5.603   5.245   5.102 -0.4450 -0.8460 -1.4804
17400SOL     OW53640   0.452   7.755   4.083  0.1457 -0.2036 -0.4001
17400SOL    HW153641   0.359   7.769   4.066  0.2837 -0.4971 -1.4466
17400SOL    HW253642   0.493   7.839   4.063  0.2146 -0.3277 -0.7792
17401SOL     OW53643   2.847   1.394   5.670 -0.0089  0.1163 -0.0840
17401SOL    HW153644   2.933   1.435   5.670  0.1947 -0.2449 -1.6870
17401SOL    HW253645   2.802   1.433   5.595 -0.6448 -0.8859 -0.2431
17402SOL     OW53646   2.384   2.577   6.972 -0.0589 -0.0392 -0.3399
17402SOL    HW153647   2.419   2.660   7.005 -0.0509  0.5090 -1.6556
17402SOL    HW253648   2.289   2.587   6.977 -0.1108  0.7970 -2.1364
17403SOL     OW53649   2.727   0.748  10.586 -0.1838  0.3699 -0.3422
17403SOL    HW153650   2.738   0.679  10.652 -0.3407  0.3803 -0.3040
17403SOL    HW253651   2.816   0.782  10.572 -0.2272  0.8308  0.3742
17404SOL     OW53652   1.926   6.924   5.102  0.0495  0.3077 -0.0761
17404SOL    HW153653   1.935   6.839   5.145  0.3161 -0.3489 -1.3488
17404SOL    HW253654   1.833   6.933   5.084 -0.1389  0.8468  1.1140
17405SOL     OW53655   5.942   5.244   8.011  0.0207  0.4546  0.0410
17405SOL    HW153656   5.991   5.300   8.072  0.3444 -0.4293  0.6166
17405SOL    HW253657   5.861   5.223   8.057 -0.4830  1.1300 -0.5202
17406SOL     OW53658   4.158   0.880  10.507  0.5003 -0.0893  0.2572
17406SOL    HW153659   4.071   0.845  10.527 -0.3239  1.7769  0.1517
17406SOL    HW253660   4.163   0.962  10.555  3.3042 -1.3749  2.4119
17407SOL     OW53661   3.940   2.144  10.013 -0.6212  0.1341 -0.0575
17407SOL    HW153662   4.022   2.180  10.047 -1.5083  0.7253  1.5785
17407SOL    HW253663   3.872   2.185  10.067 -1.8480 -2.0557  0.1560
17408SOL     OW53664   1.710   1.912   5.110 -0.1112 -0.3270 -0.8398
17408SOL    HW153665   1.802   1.926   5.087  0.0227  0.7114  0.2481
17408SOL    HW253666   1.713   1.847   5.180  0.0197  1.4911  0.9178
17409SOL     OW53667   4.317   2.601   0.881  0.5509 -0.2848  0.1378
17409SOL    HW153668   4.386   2.536   0.897 -0.1189 -1.4853 -1.5624
17409SOL    HW253669   4.364   2.679   0.851  1.2216 -0.9678 -0.6424
17410SOL     OW53670   7.697   4.538   9.516 -0.3464  0.0987 -0.2745
17410SOL    HW153671   7.783   4.548   9.474 -0.8936 -0.8695 -1.6983
17410SOL    HW253672   7.685   4.619   9.566  0.2013  1.4862 -2.2648
17411SOL     OW53673   3.362   0.242   1.007  0.3496 -0.4645  0.3983
17411SOL    HW153674   3.419   0.192   1.066 -0.0590 -0.1080  1.1038
17411SOL    HW253675   3.422   0.297   0.957  0.5533  0.8595  2.0360
17412SOL     OW53676   7.624   4.706   6.046  0.5062 -0.4729 -0.1435
17412SOL    HW153677   7.529   4.712   6.036 -0.0526 -0.2426  3.7438
17412SOL    HW253678   7.647   4.619   6.011 -1.3159 -1.0210 -0.0523
17413SOL     OW53679   1.299   7.860   6.394 -0.0207  0.7372  0.7291
17413SOL    HW153680   1.311   7.883   6.486 -0.1011 -0.8331  1.1618
17413SOL    HW253681   1.215   7.899   6.370  0.4649  2.0031  1.0158
17414SOL     OW53682   1.444   1.815   2.910 -0.2255  0.1553  0.2273
17414SOL    HW153683   1.389   1.751   2.865 -0.5433  0.3976  0.2709
17414SOL    HW253684   1.516   1.830   2.850  0.6348 -1.3231  0.8125
17415SOL     OW53685   7.976   2.890   8.467  0.1769  0.2043 -0.2886
17415SOL    HW153686   8.049   2.859   8.522 -0.5813 -1.6729 -0.2951
17415SOL    HW253687   7.937   2.811   8.431  0.2164  1.3397 -3.0529
17416SOL     OW53688   1.359   2.729  11.221 -0.2380  0.7802  0.0785
17416SOL    HW153689   1.400   2.813  11.245 -0.8330  1.1679 -0.2401
17416SOL    HW253690   1.297   2.711  11.291 -0.6878  1.0151 -0.2524
17417SOL     OW53691   1.822   4.063  11.039 -0.7321  0.5019 -0.8193
17417SOL    HW153692   1.759   4.125  11.003 -0.8542 -0.3011 -2.0965
17417SOL    HW253693   1.905   4.110  11.041 -1.1645  1.2501 -0.0772
17418SOL     OW53694   6.135   3.209   2.724  0.0366  0.1043 -0.1903
17418SOL    HW153695   6.074   3.247   2.660  0.7839 -0.7421 -1.4635
17418SOL    HW253696   6.115   3.116   2.724  0.3497  0.0317  0.4749
17419SOL     OW53697   6.889   0.324  10.144  0.8264  0.1655  0.1968
17419SOL    HW153698   6.956   0.300  10.207  0.3167 -0.0292  0.6673
17419SOL    HW253699   6.852   0.405  10.178  1.3888  0.7358 -0.5044
17420SOL     OW53700   0.594   5.690   3.479 -0.1794 -0.3138  0.3296
17420SOL    HW153701   0.672   5.665   3.430 -0.5492 -0.3253 -0.2675
17420SOL    HW253702   0.592   5.785   3.475  0.4217 -0.2417  1.3355
17421SOL     OW53703   0.615   5.485   7.867  0.3871 -0.3301  0.0883
17421SOL    HW153704   0.571   5.509   7.785 -0.1555  1.9620  0.9633
17421SOL    HW253705   0.695   5.441   7.839 -1.0765 -2.1157 -1.5980
17422SOL     OW53706   2.365   2.757   6.156 -0.3295 -0.4563 -0.3152
17422SOL    HW153707   2.401   2.678   6.116 -0.1269 -1.0366  0.9756
17422SOL    HW253708   2.284   2.729   6.198 -0.9246  0.3006 -0.9103
17423SOL     OW53709   3.051   2.177   4.299 -0.5497 -0.5802  0.5614
17423SOL    HW153710   3.028   2.084   4.301 -0.2434 -0.6719  0.1682
17423SOL    HW253711   3.088   2.190   4.211 -0.7634 -0.0435  0.5480
17424SOL     OW53712   3.682   6.999   3.310  0.2490 -0.3456  0.1617
17424SOL    HW153713   3.657   6.913   3.278  1.7630 -1.0295  0.7375
17424SOL    HW253714   3.745   7.031   3.246  0.4728 -0.1138  0.4951
17425SOL     OW53715   0.311   2.338   2.987 -0.7105 -0.3472 -0.3559
17425SOL    HW153716   0.219   2.341   2.962 -0.8832 -3.8117 -0.6729
17425SOL    HW253717   0.311   2.346   3.082 -1.1970  0.7857 -0.4376
17426SOL     OW53718   0.606   6.096   7.458 -0.2128 -0.0346 -0.0377
17426SOL    HW153719   0.656   6.129   7.533  0.3092  0.0021 -0.3972
17426SOL    HW253720   0.528   6.056   7.497 -1.3878  2.4766  0.3805
17427SOL     OW53721   6.187   0.491   0.385 -0.4498  0.1114 -0.5860
17427SOL    HW153722   6.277   0.460   0.396 -1.1342 -2.1708 -1.0369
17427SOL    HW253723   6.182   0.569   0.441  1.3847 -0.5503  0.5794
17428SOL     OW53724   0.027   2.482  11.000 -0.4651  0.1844 -0.7315
17428SOL    HW153725  -0.042   2.489  11.067 -0.6157  0.1429 -0.8811
17428SOL    HW253726   0.017   2.394  10.965  0.8248 -0.4895  0.5012
17429SOL     OW53727   0.078   0.687   2.106  0.0986  0.5417 -0.2796
17429SOL    HW153728   0.159   0.641   2.129  0.9220  1.8432 -0.4973
17429SOL    HW253729   0.009   0.626   2.131  1.1401 -0.7130 -0.3372
17430SOL     OW53730   0.144   4.588   5.148  0.5239 -0.1210 -0.5090
17430SOL    HW153731   0.139   4.519   5.215 -0.8655 -0.8318 -1.3045
17430SOL    HW253732   0.068   4.573   5.092  0.5647  1.6651 -1.1092
17431SOL     OW53733   6.168   6.941   2.332 -0.6488 -0.5718  0.1207
17431SOL    HW153734   6.109   7.002   2.288 -0.9020 -1.4052 -0.7107
17431SOL    HW253735   6.187   6.983   2.416 -2.5247 -0.3119  0.4745
17432SOL     OW53736   7.215   3.038   5.758 -0.7297 -0.4471  0.4739
17432SOL    HW153737   7.195   3.060   5.849 -0.9045  2.9856 -0.2565
17432SOL    HW253738   7.132   3.049   5.712 -0.2225 -0.1033 -0.3897
17433SOL     OW53739   0.639   4.825   6.771 -0.0721 -0.3237 -0.3039
17433SOL    HW153740   0.725   4.783   6.766 -0.0117 -0.3317  0.5972
17433SOL    HW253741   0.610   4.832   6.680  0.3168 -1.4932 -0.5354
17434SOL     OW53742   2.255   5.163   8.893  0.4778  0.0386  0.3147
17434SOL    HW153743   2.182   5.201   8.845 -0.0220 -0.3706  0.7365
17434SOL    HW253744   2.285   5.091   8.838  1.3413  0.9330 -0.4236
17435SOL     OW53745   3.831   7.041   3.532 -0.0338 -0.2185 -0.5412
17435SOL    HW153746   3.774   7.045   3.456  1.0371  1.1231 -1.3129
17435SOL    HW253747   3.917   7.018   3.497  0.5553  0.7661  0.2009
17436SOL     OW53748   1.883   3.643   6.467  0.2640  0.0482  0.0676
17436SOL    HW153749   1.795   3.676   6.487  0.1572  0.4971 -1.0745
17436SOL    HW253750   1.869   3.550   6.447 -0.3150  0.5988 -2.2746
17437SOL     OW53751   5.453   2.661   8.362 -0.9105  0.8097 -0.2874
17437SOL    HW153752   5.413   2.703   8.438 -0.6610 -1.4142  1.1569
17437SOL    HW253753   5.385   2.663   8.295 -2.1513  0.3696  0.9124
17438SOL     OW53754   1.049   3.378   0.715 -0.7358 -0.0815 -0.6500
17438SOL    HW153755   1.076   3.459   0.759 -1.4866 -0.0588 -0.2109
17438SOL    HW253756   1.102   3.375   0.636  0.4273  0.0481  0.0911
17439SOL     OW53757   5.918   4.484   4.801 -0.2779 -0.3115 -0.4471
17439SOL    HW153758   5.906   4.525   4.887  2.4871  0.3976 -0.2997
17439SOL    HW253759   5.976   4.410   4.818  0.3309 -0.1404 -1.6910
17440SOL     OW53760   5.088   5.376   5.601 -0.0626  0.3543 -0.5927
17440SOL    HW153761   5.111   5.469   5.599 -0.8775  0.6052  0.8084
17440SOL    HW253762   5.110   5.348   5.690 -1.7456 -0.2600 -0.3298
17441SOL     OW53763   0.538   5.287   8.076 -0.2958  0.3481  0.2057
17441SOL    HW153764   0.545   5.354   8.008  2.9036 -0.4490 -0.4392
17441SOL    HW253765   0.539   5.204   8.027 -4.6021 -0.3655  0.9383
17442SOL     OW53766   5.929   0.306   6.503  0.0139 -0.3372  0.0737
17442SOL    HW153767   5.881   0.263   6.574 -0.0983  1.1202  0.9313
17442SOL    HW253768   5.881   0.388   6.488  1.7962  0.8655  0.5046
17443SOL     OW53769   5.276   5.751   9.279  0.0652  0.1867  0.1570
17443SOL    HW153770   5.364   5.737   9.245 -0.2709 -1.2900 -0.1564
17443SOL    HW253771   5.273   5.845   9.298  0.9089  0.7148 -2.0608
17444SOL     OW53772   2.471   5.315   2.439  0.5625 -0.3129  0.2746
17444SOL    HW153773   2.433   5.328   2.526  1.0218 -0.1483  0.4514
17444SOL    HW253774   2.458   5.222   2.422 -0.3635 -0.1740  0.1198
17445SOL     OW53775   6.146   1.999  10.887 -0.0074  0.2192  0.0167
17445SOL    HW153776   6.172   1.941  10.959  1.7736  1.5292  0.5188
17445SOL    HW253777   6.147   2.087  10.926 -1.3691  0.7502 -1.0366
17446SOL     OW53778   4.662   2.719   3.323 -0.9709 -0.4058 -0.0967
17446SOL    HW153779   4.688   2.780   3.254  0.0920 -2.4663 -1.6360
17446SOL    HW253780   4.737   2.716   3.382 -0.7046 -0.7935 -0.4515
17447SOL     OW53781   1.428   1.903  12.470  0.2658  0.1721 -0.1732
17447SOL    HW153782   1.435   1.919  12.564  0.8398 -1.0053 -0.0046
17447SOL    HW253783   1.495   1.959  12.431  0.8535 -0.2441  0.2269
17448SOL     OW53784   2.029   5.739   6.897  0.0455  0.4222 -0.1911
17448SOL    HW153785   2.032   5.776   6.985 -0.8898 -0.4541  0.2344
17448SOL    HW253786   1.949   5.685   6.896  0.0093  0.4541 -1.5897
17449SOL     OW53787   2.332   3.531   3.034 -0.8065  0.0474 -0.2443
17449SOL    HW153788   2.400   3.592   3.007 -1.2835  1.6144  1.8935
17449SOL    HW253789   2.252   3.565   2.994 -0.6618 -0.7540 -1.2542
17450SOL     OW53790   6.788   6.891   3.503  0.0923 -0.3452  0.7999
17450SOL    HW153791   6.825   6.979   3.501 -2.4306  0.8249 -0.7785
17450SOL    HW253792   6.769   6.875   3.595 -2.3570  2.2637  0.8971
17451SOL     OW53793   6.974   7.436   6.591 -0.5602 -0.4361  0.0428
17451SOL    HW153794   6.971   7.447   6.686 -0.1895 -0.8603  0.1038
17451SOL    HW253795   6.981   7.525   6.556  0.7511 -0.3534  0.4662
17452SOL     OW53796   0.162   2.831   1.877  0.3699 -0.2933 -0.4922
17452SOL    HW153797   0.217   2.877   1.813 -0.3763  1.6126  0.1641
17452SOL    HW253798   0.222   2.810   1.949  0.3682  1.4670  0.0682
17453SOL     OW53799   0.496   0.108  10.530 -0.3042  0.2839  0.0017
17453SOL    HW153800   0.474   0.200  10.519 -0.6156  0.0079 -2.2065
17453SOL    HW253801   0.450   0.081  10.609 -0.5970  1.8952  0.4080
17454SOL     OW53802   2.054   1.637  10.856 -0.3416 -0.3452  0.6287
17454SOL    HW153803   2.083   1.693  10.784 -0.9782 -0.6832  0.1041
17454SOL    HW253804   2.013   1.562  10.814 -0.0884 -0.8957  1.3361
17455SOL     OW53805   2.677   1.976   2.720 -0.6462 -0.2203 -0.2083
17455SOL    HW153806   2.651   1.946   2.808  0.7842  0.5369  0.5026
17455SOL    HW253807   2.640   2.064   2.713 -1.6961 -0.6969 -0.8225
17456SOL     OW53808   3.440   3.558   3.960 -0.5427 -0.3700 -0.2483
17456SOL    HW153809   3.386   3.635   3.979 -1.1315 -1.0885  1.1319
17456SOL    HW253810   3.506   3.590   3.898  0.0091  1.5674  1.2194
17457SOL     OW53811   0.222   3.781   5.240 -0.2121  0.5272 -0.0512
17457SOL    HW153812   0.168   3.706   5.265 -0.5751 -0.5847 -3.5248
17457SOL    HW253813   0.160   3.854   5.230 -0.1515  0.8039  1.4364
17458SOL     OW53814   3.070   6.656   0.251 -0.3887 -0.4828  0.3485
17458SOL    HW153815   3.158   6.668   0.216 -0.3117 -0.2225  0.6309
17458SOL    HW253816   3.033   6.583   0.199  0.6130 -1.7753  1.3796
17459SOL     OW53817   0.702   2.370   2.483 -0.0813 -0.1240 -0.3665
17459SOL    HW153818   0.640   2.418   2.427  0.8318  0.5193 -0.8526
17459SOL    HW253819   0.746   2.438   2.534 -0.5451 -0.6640  0.7939
17460SOL     OW53820   5.448   2.912   7.096  0.2386 -0.0241 -0.3348
17460SOL    HW153821   5.369   2.955   7.128  1.5447  0.3947  2.6713
17460SOL    HW253822   5.496   2.981   7.050  0.2183  0.5405  0.4704
17461SOL     OW53823   6.216   3.106   6.823  0.0751 -0.3761 -0.1722
17461SOL    HW153824   6.178   3.188   6.854 -0.5539 -0.7515  0.0883
17461SOL    HW253825   6.310   3.115   6.838  0.3921  1.3283 -2.5295
17462SOL     OW53826   3.435   4.787   3.158 -0.0238 -0.1009  0.0095
17462SOL    HW153827   3.457   4.790   3.251 -0.1337 -1.6245  0.1173
17462SOL    HW253828   3.346   4.823   3.153  0.5153  1.3212  0.2703
17463SOL     OW53829   1.247   5.839   2.099  0.2613  0.2543  0.0152
17463SOL    HW153830   1.164   5.853   2.053 -0.2348 -0.3216  0.7018
17463SOL    HW253831   1.301   5.915   2.076 -0.1281  0.1996 -1.1450
17464SOL     OW53832   5.832   3.915   5.326 -0.3841  0.2083  0.2670
17464SOL    HW153833   5.919   3.903   5.289  0.3121  0.7591  1.6217
17464SOL    HW253834   5.804   3.827   5.352 -1.0550 -0.2424 -1.8326
17465SOL     OW53835   4.727   5.168   7.049  0.1131  0.4777 -0.1549
17465SOL    HW153836   4.807   5.186   7.097 -0.0158 -0.3444  0.3784
17465SOL    HW253837   4.734   5.076   7.024 -0.3959  0.5604 -0.6212
17466SOL     OW53838   5.034   2.348   0.038 -0.1493  0.3481  0.1758
17466SOL    HW153839   5.102   2.291   0.076  1.1706  1.8789  0.1980
17466SOL    HW253840   5.059   2.436   0.064 -0.0670  1.3458 -2.9123
17467SOL     OW53841   2.450   2.813   2.266 -0.2533  0.2883  0.2520
17467SOL    HW153842   2.504   2.798   2.344 -0.8976  0.8928  0.8208
17467SOL    HW253843   2.363   2.832   2.300 -1.1057 -1.6834 -0.6835
17468SOL     OW53844   6.687   0.591   7.409 -0.2046 -0.3771 -0.2424
17468SOL    HW153845   6.612   0.608   7.465  0.2540 -0.4523  0.4056
17468SOL    HW253846   6.675   0.648   7.334 -1.0032 -0.5239 -0.2283
17469SOL     OW53847   3.470   3.250  10.011  0.2776 -0.1712 -0.5618
17469SOL    HW153848   3.507   3.272  10.096 -1.0845  1.5374 -0.3446
17469SOL    HW253849   3.537   3.274   9.948  0.0650  1.6851 -0.1193
17470SOL     OW53850   1.160   5.756   4.753 -0.0142 -0.3445 -0.4432
17470SOL    HW153851   1.161   5.741   4.659 -0.9839  1.6485 -0.8218
17470SOL    HW253852   1.126   5.845   4.763  2.0208  0.3105  1.6866
17471SOL     OW53853   3.992   2.645   9.719 -0.3091 -0.2484  0.2059
17471SOL    HW153854   3.947   2.619   9.800  1.1641  0.2974  1.2248
17471SOL    HW253855   4.081   2.664   9.746  0.4010 -0.7238 -1.6802
17472SOL     OW53856   7.928   6.400   6.891 -0.0246 -0.2720  0.2398
17472SOL    HW153857   8.018   6.422   6.916  0.8087 -2.8320 -0.1795
17472SOL    HW253858   7.921   6.306   6.907 -1.4057 -0.9077 -3.2159
17473SOL     OW53859   2.148   7.018   8.454  0.2701  0.4864  0.5827
17473SOL    HW153860   2.137   6.926   8.478 -0.5026  0.5036  0.3082
17473SOL    HW253861   2.069   7.061   8.486  1.2646  1.3471  2.0452
17474SOL     OW53862   0.376   2.274   1.885  0.3550 -0.1806  0.1691
17474SOL    HW153863   0.327   2.219   1.946 -0.6197  0.9422  0.4268
17474SOL    HW253864   0.345   2.247   1.798 -0.2917  0.1123  0.3063
17475SOL     OW53865   4.948   2.502   8.413  0.5382  0.0091  0.2469
17475SOL    HW153866   4.930   2.581   8.362 -2.1517 -1.5449 -1.4621
17475SOL    HW253867   4.936   2.529   8.504 -2.1436  1.2511 -0.3705
17476SOL     OW53868   3.267   5.107   0.525 -0.0441  0.6161  0.6313
17476SOL    HW153869   3.264   5.175   0.593  0.0167  1.3199 -0.0448
17476SOL    HW253870   3.316   5.035   0.565  0.7066  1.3423  1.0602
17477SOL     OW53871   2.578   6.350  10.978 -0.3049 -0.2427  0.0036
17477SOL    HW153872   2.526   6.299  11.041  1.5494 -0.3725  1.5040
17477SOL    HW253873   2.617   6.284  10.921 -2.0341 -0.1222 -1.4232
17478SOL     OW53874   1.613   0.644   5.234 -0.3809  0.1211  0.4165
17478SOL    HW153875   1.682   0.707   5.213 -0.8981  0.5941  0.1348
17478SOL    HW253876   1.658   0.576   5.285  0.7613 -0.6899 -1.5486
17479SOL     OW53877   3.098   5.448   4.947 -0.0677 -0.4367  0.3019
17479SOL    HW153878   3.061   5.407   4.869 -1.7188 -0.3474  0.9993
17479SOL    HW253879   3.117   5.375   5.005  0.9858 -0.4886 -0.0849
17480SOL     OW53880   0.023   0.783   7.789  0.4210  0.3562  0.4135
17480SOL    HW153881   0.075   0.719   7.836 -0.7858 -1.1305 -0.1968
17480SOL    HW253882   0.064   0.788   7.702  0.5816  0.4998  0.4972
17481SOL     OW53883   3.582   7.713   3.866 -0.0550 -0.0303 -0.2678
17481SOL    HW153884   3.672   7.732   3.839 -0.3558 -2.4898 -3.6886
17481SOL    HW253885   3.586   7.623   3.900 -1.2257 -0.3595 -0.9285
17482SOL     OW53886   2.415   0.159   3.696  0.2671 -0.1330  0.0254
17482SOL    HW153887   2.412   0.182   3.789 -1.4743 -0.3934  0.0611
17482SOL    HW253888   2.506   0.133   3.681  0.9839  1.4918  1.2490
17483SOL     OW53889   6.303   7.311   8.777 -0.0940  0.2946  0.5727
17483SOL    HW153890   6.239   7.250   8.814 -0.5186  0.3605 -0.0353
17483SOL    HW253891   6.250   7.377   8.733  0.3638 -1.0090 -2.1499
17484SOL     OW53892   0.858   1.964   7.661  0.2185 -0.3885 -0.1675
17484SOL    HW153893   0.904   1.880   7.664  2.2216  0.6376 -0.3441
17484SOL    HW253894   0.927   2.029   7.648 -0.8510  1.5952  2.7617
17485SOL     OW53895   6.382   0.935   7.949 -0.3251 -0.3356 -0.1667
17485SOL    HW153896   6.338   0.898   7.873 -0.3321 -1.3799  0.3302
17485SOL    HW253897   6.311   0.961   8.007 -0.3558  1.5801 -0.9964
17486SOL     OW53898   7.759   3.757   8.586  0.2344  0.3157  0.0992
17486SOL    HW153899   7.821   3.829   8.578  2.0211 -1.1783 -0.1671
17486SOL    HW253900   7.772   3.725   8.676 -0.4110  0.2156  0.1593
17487SOL     OW53901   6.481   0.403   6.456 -1.0385  0.1085  0.1225
17487SOL    HW153902   6.519   0.321   6.489  1.2023  0.9252 -0.2304
17487SOL    HW253903   6.472   0.389   6.362  0.7276  0.6868 -0.1829
17488SOL     OW53904   6.505   4.081   5.586 -0.3000  0.0788  0.0043
17488SOL    HW153905   6.493   3.996   5.629 -2.4487  0.7654  0.8975
17488SOL    HW253906   6.544   4.137   5.654  0.8168 -0.0878 -0.4836
17489SOL     OW53907   7.020   6.927   9.175 -0.3322 -0.5083 -0.2815
17489SOL    HW153908   6.986   6.917   9.086  1.2568 -1.1966 -0.8449
17489SOL    HW253909   7.055   7.016   9.177 -0.3927 -0.4827 -0.3404
17490SOL     OW53910   4.450   6.880  10.129  0.3874  0.3757 -0.3213
17490SOL    HW153911   4.381   6.935  10.164 -0.8812 -1.2745 -0.0823
17490SOL    HW253912   4.513   6.871  10.201  0.1455  0.7670 -0.0625
17491SOL     OW53913   1.535   2.667   6.956  0.0124 -0.1266  0.1675
17491SOL    HW153914   1.493   2.652   6.872 -2.2167 -1.0846  1.3793
17491SOL    HW253915   1.466   2.704   7.012  1.7759  1.7938  1.2467
17492SOL     OW53916   0.934   7.691   3.349  0.0482 -0.2373  0.3454
17492SOL    HW153917   0.932   7.785   3.366  0.5109 -0.4088  1.4955
17492SOL    HW253918   0.842   7.667   3.336  0.0268  0.5434 -1.1243
17493SOL     OW53919   6.974   7.201  11.963  0.7409  0.1093 -0.0964
17493SOL    HW153920   7.024   7.282  11.952 -1.2198  1.4559  0.3786
17493SOL    HW253921   6.891   7.217  11.917  0.4024 -1.7342 -0.2102
17494SOL     OW53922   1.699   7.728  11.393  0.0304 -0.3732 -0.2973
17494SOL    HW153923   1.776   7.698  11.441  0.9990  1.2882 -0.7493
17494SOL    HW253924   1.723   7.814  11.360 -1.5486 -0.3851 -1.5936
17495SOL     OW53925   3.493   2.684   0.261  0.0499  0.1300  0.0239
17495SOL    HW153926   3.486   2.751   0.193 -0.2586  0.0226 -0.0530
17495SOL    HW253927   3.422   2.622   0.241  0.1139 -0.0340  0.2964
17496SOL     OW53928   5.408   0.446   9.062 -0.6269 -0.2611 -0.0417
17496SOL    HW153929   5.449   0.504   8.998 -1.0566  0.1978  0.0936
17496SOL    HW253930   5.481   0.415   9.117 -0.4416  0.4454  0.1209
17497SOL     OW53931   6.722   3.819   5.414 -0.3509 -0.1414  0.8428
17497SOL    HW153932   6.748   3.832   5.506 -0.1195 -0.9866  0.9063
17497SOL    HW253933   6.675   3.736   5.414  2.6172 -1.9900 -0.3216
17498SOL     OW53934   0.948   1.689  11.374 -0.0392 -0.0771  0.6660
17498SOL    HW153935   1.035   1.654  11.394  0.3839  0.0251 -0.8701
17498SOL    HW253936   0.929   1.749  11.447  1.3054  0.1353  0.8686
17499SOL     OW53937   1.217   5.295   6.345  0.0729  0.0032  0.2119
17499SOL    HW153938   1.129   5.273   6.314  0.5497 -1.7717 -0.0052
17499SOL    HW253939   1.261   5.332   6.268  0.5416 -2.2850 -0.7045
17500SOL     OW53940   6.069   3.545   4.039  0.3457 -0.5203  0.2952
17500SOL    HW153941   5.994   3.560   4.097  0.9084 -0.9434  1.1389
17500SOL    HW253942   6.122   3.480   4.084  0.3931 -1.4820 -1.0693
17501SOL     OW53943   1.241   7.508   4.948  0.3934 -0.0250  0.1028
17501SOL    HW153944   1.157   7.502   4.904  0.1722 -1.2863  0.6520
17501SOL    HW253945   1.227   7.467   5.033  1.6605 -0.6433  0.0388
17502SOL     OW53946   2.077   4.356   9.767  0.1321  0.3751 -0.2601
17502SOL    HW153947   2.169   4.366   9.791 -0.2718  1.2989  1.0240
17502SOL    HW253948   2.032   4.425   9.816 -1.0009  1.3183 -2.4766
17503SOL     OW53949   0.673   0.849   9.137 -0.0509 -0.4587  0.1487
17503SOL    HW153950   0.756   0.888   9.110 -0.0738 -0.9976 -0.7316
17503SOL    HW253951   0.617   0.857   9.060 -0.7766 -0.2241  0.6910
17504SOL     OW53952   1.835   3.670   1.765 -0.9656  0.3403 -0.0214
17504SOL    HW153953   1.790   3.609   1.707  0.9189 -1.5044  0.3112
17504SOL    HW253954   1.884   3.728   1.706 -1.4192  0.4170 -0.3214
17505SOL     OW53955   0.864   3.838   0.173 -0.1599 -0.1058 -0.1961
17505SOL    HW153956   0.813   3.905   0.218 -0.6349 -0.3885 -0.3110
17505SOL    HW253957   0.912   3.793   0.242 -0.3817 -0.1090 -0.0445
17506SOL     OW53958   7.843   4.994   1.733  0.4202 -0.2369  0.0120
17506SOL    HW153959   7.782   5.023   1.802 -0.3689 -1.4478 -0.1368
17506SOL    HW253960   7.925   5.039   1.753 -0.4500  1.2696  0.3512
17507SOL     OW53961   2.948   2.172  12.223 -0.3429 -0.0355  0.5883
17507SOL    HW153962   2.976   2.209  12.140 -2.0485  1.4455  0.6139
17507SOL    HW253963   3.019   2.192  12.284  0.9899 -1.2777 -0.4941
17508SOL     OW53964   7.519   5.025   5.641  0.2089 -0.7078 -0.0352
17508SOL    HW153965   7.545   4.970   5.568  0.0024  1.0174 -1.4852
17508SOL    HW253966   7.540   5.114   5.613  0.2890  0.0159  2.0897
17509SOL     OW53967   5.509   2.766   0.323  0.0141  0.1325 -0.1065
17509SOL    HW153968   5.598   2.789   0.296 -0.1825 -1.5114 -2.5284
17509SOL    HW253969   5.461   2.848   0.323  1.4483  1.0101  1.0018
17510SOL     OW53970   4.088   4.177   2.612 -0.0918  0.2734  0.2188
17510SOL    HW153971   4.128   4.168   2.525  0.8099 -3.2959  0.8427
17510SOL    HW253972   4.154   4.144   2.672 -1.6013  0.3700  2.0202
17511SOL     OW53973   6.006   4.198   8.263 -0.3736 -0.1623  0.2256
17511SOL    HW153974   6.096   4.227   8.276 -0.7419  1.5448 -0.7195
17511SOL    HW253975   5.954   4.278   8.264 -1.5664 -0.8145 -1.7288
17512SOL     OW53976   2.573   2.506   1.528 -0.2459  0.5015  0.1605
17512SOL    HW153977   2.583   2.581   1.470  1.0310  2.4519  2.7072
17512SOL    HW253978   2.646   2.448   1.506 -0.0846  0.9471 -0.5020
17513SOL     OW53979   5.471   6.864   5.391  0.2039  0.3521  0.1422
17513SOL    HW153980   5.538   6.909   5.442 -0.5355  1.2806  0.3347
17513SOL    HW253981   5.494   6.883   5.300  0.5703  0.1104  0.1817
17514SOL     OW53982   5.986   6.133  11.611 -0.1919 -0.1976  0.2828
17514SOL    HW153983   5.897   6.111  11.640 -0.2315 -1.8331 -0.9643
17514SOL    HW253984   5.976   6.161  11.520  0.6615 -1.4430 -0.2266
17515SOL     OW53985   7.184   0.203  11.237  0.3374 -0.7989 -0.2910
17515SOL    HW153986   7.106   0.148  11.234  0.7085 -1.2703 -1.6588
17515SOL    HW253987   7.162   0.278  11.181  0.4764 -0.3998  0.1848
17516SOL     OW53988   0.293   0.745   1.881  0.1410 -0.3837 -0.3988
17516SOL    HW153989   0.264   0.825   1.925 -1.0642 -1.2408  0.4224
17516SOL    HW253990   0.213   0.710   1.841 -0.2261 -3.0842  2.3412
17517SOL     OW53991   3.036   1.210   8.738 -0.3773 -0.7117 -0.2161
17517SOL    HW153992   2.951   1.189   8.776  0.1585 -2.0366  0.3148
17517SOL    HW253993   3.075   1.274   8.797 -0.5374 -0.9624  0.1582
17518SOL     OW53994   7.137   7.724  10.673 -0.4833  0.1736 -0.1578
17518SOL    HW153995   7.108   7.703  10.761  0.0162  1.3273  0.2949
17518SOL    HW253996   7.225   7.760  10.684 -1.0409  1.9020 -0.9383
17519SOL     OW53997   5.769   6.052   2.785  0.0626  0.2311 -0.0316
17519SOL    HW153998   5.821   5.991   2.837  1.1892  0.2003 -1.1504
17519SOL    HW253999   5.788   6.138   2.823  2.4609  0.4517 -1.5821
17520SOL     OW54000   4.972   4.307   0.441  0.5591  0.1722  0.0586
17520SOL    HW154001   4.901   4.323   0.379  0.0544  1.8658  1.0069
17520SOL    HW254002   4.941   4.235   0.496 -0.1395  0.4617  0.0484
17521SOL     OW54003   7.286   2.836   4.549 -0.2264  0.1261  0.6008
17521SOL    HW154004   7.339   2.825   4.627  1.0146  1.4678  0.0005
17521SOL    HW254005   7.347   2.823   4.476 -1.1642 -0.2429 -0.1453
17522SOL     OW54006   0.818   7.397   5.384  0.4977 -0.1374 -0.0132
17522SOL    HW154007   0.830   7.483   5.344  0.9724 -0.0043  0.4067
17522SOL    HW254008   0.881   7.341   5.339  1.0852  0.0300  0.5953
17523SOL     OW54009   0.928   5.151   3.706 -0.2078  0.1632  0.5433
17523SOL    HW154010   0.898   5.176   3.794  0.2876 -2.4551  1.5297
17523SOL    HW254011   0.876   5.074   3.684  0.0335  0.4720 -1.2940
17524SOL     OW54012   4.228   7.350   6.741 -0.0151 -0.0302 -0.0415
17524SOL    HW154013   4.246   7.438   6.775 -0.2021 -0.1712  0.4316
17524SOL    HW254014   4.313   7.306   6.742 -0.1878 -0.3739  1.2542
17525SOL     OW54015   7.058   0.176  12.299  0.1678 -0.1357 -0.0092
17525SOL    HW154016   7.152   0.163  12.291  0.6401  0.6000  2.9225
17525SOL    HW254017   7.043   0.264  12.265  0.5404 -0.2520 -0.4821
17526SOL     OW54018   0.955   3.466   2.628 -0.0035  0.7035 -0.1533
17526SOL    HW154019   0.868   3.483   2.664 -1.2834 -2.2971 -1.4975
17526SOL    HW254020   1.015   3.500   2.694 -2.1193  3.2560  0.6301
17527SOL     OW54021   5.376   2.390  10.642 -0.4934 -1.1963 -0.5219
17527SOL    HW154022   5.450   2.331  10.625 -0.2757 -1.1024  0.0727
17527SOL    HW254023   5.352   2.424  10.555 -0.1978 -1.6523 -0.7868
17528SOL     OW54024   4.789   3.300   6.589  0.2683 -0.0647  0.2016
17528SOL    HW154025   4.837   3.377   6.559  1.5598  0.0485  2.3280
17528SOL    HW254026   4.812   3.293   6.682 -2.3657 -1.1612  0.8465
17529SOL     OW54027   4.223   2.979   6.427  0.1617  0.0708  0.0553
17529SOL    HW154028   4.259   3.031   6.355 -0.2190  0.5481  0.2022
17529SOL    HW254029   4.249   2.889   6.408 -1.1297 -0.0350 -1.4323
17530SOL     OW54030   6.992   7.304   6.273 -0.2250 -0.2567 -0.2478
17530SOL    HW154031   7.022   7.394   6.276  0.8426 -0.5644 -1.1321
17530SOL    HW254032   6.988   7.283   6.180  1.7151 -1.8026 -0.0344
17531SOL     OW54033   7.005   5.819   5.977  0.3623  0.2068 -0.6001
17531SOL    HW154034   6.915   5.785   5.978  0.1651  0.7240 -0.0554
17531SOL    HW254035   7.048   5.769   5.908 -0.7586  1.0074 -1.9392
17532SOL     OW54036   7.878   0.985  11.272  0.1124  0.3569  0.2589
17532SOL    HW154037   7.944   0.928  11.314  1.2874  0.1738 -1.7098
17532SOL    HW254038   7.885   1.067  11.320 -0.4367 -0.5833  2.0765
17533SOL     OW54039   6.825   0.972  11.780 -0.0538 -0.1299 -0.6243
17533SOL    HW154040   6.843   0.878  11.788  1.8251  0.1009 -1.6777
17533SOL    HW254041   6.729   0.977  11.772 -0.1714 -1.9608 -0.8785
17534SOL     OW54042   2.531   2.101   7.908 -0.5371 -0.2139  0.1429
17534SOL    HW154043   2.499   2.100   7.818 -0.7065  0.7647  0.1852
17534SOL    HW254044   2.459   2.138   7.959 -0.2347 -0.2501  0.6021
17535SOL     OW54045   1.544   3.248   9.028 -0.4312  0.5981 -0.0614
17535SOL    HW154046   1.510   3.335   9.006 -0.1355  1.0809  1.2790
17535SOL    HW254047   1.537   3.243   9.123 -0.4144 -0.8488 -0.1201
17536SOL     OW54048   4.365   4.341   8.613 -0.1507 -0.1127  0.0099
17536SOL    HW154049   4.457   4.356   8.638  0.3038 -1.3680 -0.8115
17536SOL    HW254050   4.315   4.369   8.690  1.0550 -1.4616  1.3517
17537SOL     OW54051   1.991   6.070   5.025 -0.0445  0.1173  0.0116
17537SOL    HW154052   2.057   6.017   4.981 -0.1951  0.2200 -0.3403
17537SOL    HW254053   1.918   6.072   4.964 -0.0854  0.6296  0.0795
17538SOL     OW54054   6.972   3.656   1.917 -0.2715  0.4357  0.3841
17538SOL    HW154055   7.049   3.700   1.880 -0.3056  0.6409  0.5549
17538SOL    HW254056   6.915   3.639   1.842  0.7288 -1.3707 -0.0430
17539SOL     OW54057   7.344   1.650   4.708 -0.3485 -0.1948 -0.3585
17539SOL    HW154058   7.429   1.674   4.673  0.3572  2.0703  2.5175
17539SOL    HW254059   7.364   1.583   4.775 -1.1549 -1.3726 -1.2513
17540SOL     OW54060   1.073   2.089  11.269 -0.5597 -0.5523 -0.1443
17540SOL    HW154061   1.068   2.009  11.216  1.6712 -0.8260 -0.0527
17540SOL    HW254062   1.142   2.072  11.332 -1.1428  0.8783  0.9451
17541SOL     OW54063   7.886   4.001   7.679  0.4819 -0.0552  1.1525
17541SOL    HW154064   7.963   4.015   7.625  0.3747 -1.3633  0.6317
17541SOL    HW254065   7.851   4.089   7.693  2.0808  0.5622  1.4592
17542SOL     OW54066   7.792   4.851   3.344  0.1350 -0.1139 -0.0990
17542SOL    HW154067   7.756   4.880   3.260  1.6429  0.1751 -0.6717
17542SOL    HW254068   7.790   4.755   3.339 -0.4780 -0.0998 -0.1495
17543SOL     OW54069   6.455   1.886  10.186  0.4468  0.6569  0.1689
17543SOL    HW154070   6.392   1.827  10.228 -0.7856  1.9220  0.1677
17543SOL    HW254071   6.476   1.843  10.103  1.4885 -0.9648  1.2221
17544SOL     OW54072   1.790   0.969   4.775  0.1164  0.3893  0.1819
17544SOL    HW154073   1.855   1.005   4.835 -2.5553  1.2215  2.8041
17544SOL    HW254074   1.737   1.045   4.749  0.6518 -0.0904 -2.7107
17545SOL     OW54075   6.925   7.588   0.711 -0.1617 -0.0644  0.3150
17545SOL    HW154076   6.899   7.609   0.801 -1.0286 -0.7266  0.2341
17545SOL    HW254077   7.021   7.580   0.715 -0.2346 -0.6110  1.3012
17546SOL     OW54078   7.720   2.157   2.190  0.2498 -0.2743  0.3474
17546SOL    HW154079   7.663   2.206   2.131  0.4864  0.2568  0.5614
17546SOL    HW254080   7.750   2.082   2.137  0.8054  0.4301 -0.3567
17547SOL     OW54081   2.022   6.211   6.903 -0.7452  0.0847 -0.2793
17547SOL    HW154082   1.931   6.184   6.918 -1.3186  1.1125 -1.7168
17547SOL    HW254083   2.033   6.288   6.959 -0.2987 -0.8419  0.9453
17548SOL     OW54084   6.403   6.806   8.945 -0.1545  0.6249  0.0990
17548SOL    HW154085   6.443   6.770   8.866 -0.3402 -0.2634  0.3995
17548SOL    HW254086   6.319   6.841   8.916 -0.2215  0.3014 -0.0916
17549SOL     OW54087   3.698   6.657   2.588  0.0129  0.3014  0.1683
17549SOL    HW154088   3.604   6.653   2.569 -0.1433  2.9133  0.0438
17549SOL    HW254089   3.705   6.638   2.681 -0.6650  0.2478  0.2094
17550SOL     OW54090   7.716   2.940   7.232 -0.2499 -0.7030  0.0845
17550SOL    HW154091   7.772   2.897   7.167  1.2406 -2.3157  2.2593
17550SOL    HW254092   7.628   2.911   7.211  0.2782 -1.7072 -0.8523
17551SOL     OW54093   3.293   0.942  10.674 -0.5532  0.4380  0.1184
17551SOL    HW154094   3.311   0.975  10.585 -0.8590  0.9935  0.2586
17551SOL    HW254095   3.257   0.855  10.660 -1.1093  0.7379 -0.3341
17552SOL     OW54096   2.150   6.019   0.190  0.3068 -0.0840 -0.3024
17552SOL    HW154097   2.196   6.094   0.152 -0.6795  0.6365 -0.1175
17552SOL    HW254098   2.196   5.942   0.157  2.6357  0.6036  1.1157
17553SOL     OW54099   4.691   7.000   5.852  0.1779 -0.2621 -0.0883
17553SOL    HW154100   4.758   7.029   5.914 -0.6432  0.9397  0.2673
17553SOL    HW254101   4.629   6.950   5.905 -0.1414  0.1448 -0.0764
17554SOL     OW54102   1.850   0.035  11.831 -0.0348 -0.5498 -0.1421
17554SOL    HW154103   1.893   0.120  11.835 -0.1061 -0.5559  1.5765
17554SOL    HW254104   1.850   0.012  11.738  2.1042  0.2462 -0.3993
17555SOL     OW54105   1.830   2.346   5.660  0.0233 -0.0031 -0.3546
17555SOL    HW154106   1.828   2.325   5.753 -0.6397 -0.9207 -0.5505
17555SOL    HW254107   1.753   2.300   5.624  0.8186 -0.4820 -1.5110
17556SOL     OW54108   7.183   0.922   5.385 -0.5121 -0.1810  0.3549
17556SOL    HW154109   7.257   0.864   5.369 -0.9908 -1.0841  1.2928
17556SOL    HW254110   7.208   0.972   5.463 -0.8367 -0.4030  0.6017
17557SOL     OW54111   5.530   2.457   6.510 -0.0468 -0.6936  0.7746
17557SOL    HW154112   5.597   2.524   6.504 -0.6889  0.0730  1.9188
17557SOL    HW254113   5.520   2.440   6.604 -2.7393  0.5735  0.8129
17558SOL     OW54114   6.732   7.219  11.833  0.2669  0.5366 -0.9282
17558SOL    HW154115   6.706   7.264  11.752 -0.9350 -1.6338 -1.8338
17558SOL    HW254116   6.654   7.169  11.859  1.5465 -1.1171 -0.0933
17559SOL     OW54117   7.400   0.395   3.620 -0.5096  0.4856  0.4234
17559SOL    HW154118   7.431   0.465   3.562  0.7710 -0.0293  0.4447
17559SOL    HW254119   7.364   0.330   3.560 -2.1123  1.3149  0.4278
17560SOL     OW54120   5.919   5.883   5.670  0.3287 -0.5318 -0.1647
17560SOL    HW154121   5.906   5.949   5.602  0.0138  0.0517  0.4502
17560SOL    HW254122   5.939   5.934   5.749 -1.0166 -1.1149  0.5831
17561SOL     OW54123   1.610   5.750   7.598  0.8823  0.0463 -0.3510
17561SOL    HW154124   1.553   5.827   7.593  0.5066 -0.1929  0.1875
17561SOL    HW254125   1.699   5.787   7.605  0.5921  0.5023  1.6935
17562SOL     OW54126   7.380   0.331   1.354 -0.3055 -0.1574 -0.2460
17562SOL    HW154127   7.362   0.342   1.448  0.2218 -1.4395  0.0268
17562SOL    HW254128   7.343   0.246   1.332 -0.1824  0.0149 -1.1499
17563SOL     OW54129   1.583   5.505  10.294  0.7516 -0.1241 -0.2766
17563SOL    HW154130   1.596   5.479  10.385  2.9071 -1.0919 -0.7940
17563SOL    HW254131   1.656   5.563  10.275 -0.0062  0.5522 -1.2321
17564SOL     OW54132   6.869   3.938   6.975 -0.6343  0.0907  0.2076
17564SOL    HW154133   6.887   3.866   6.914 -1.5678  1.6543 -2.0370
17564SOL    HW254134   6.956   3.971   6.999 -0.2310  0.1749 -1.2552
17565SOL     OW54135   5.007   6.287   3.429 -0.4069 -0.2491 -0.2030
17565SOL    HW154136   5.038   6.221   3.368  0.1083  0.7467 -1.0347
17565SOL    HW254137   5.049   6.368   3.402 -0.8650  0.3994  0.9248
17566SOL     OW54138   5.596   1.013  10.642  0.6667 -0.1316  0.5734
17566SOL    HW154139   5.587   1.058  10.558 -0.8203 -1.2234  0.1040
17566SOL    HW254140   5.528   1.051  10.697  0.8228 -0.3001  0.8851
17567SOL     OW54141   1.131   1.538   8.437 -0.1565 -0.7279  0.5585
17567SOL    HW154142   1.218   1.525   8.399 -0.0344 -1.7818  1.1725
17567SOL    HW254143   1.071   1.513   8.367  0.0369 -0.5817  0.3348
17568SOL     OW54144   2.077   3.558   9.780  0.3932  0.1838  0.6147
17568SOL    HW154145   2.050   3.613   9.706  0.7053  2.1738  1.9072
17568SOL    HW254146   2.170   3.578   9.793  0.7731 -1.3906  0.5526
17569SOL     OW54147   4.677   0.438   9.212  0.4809  0.3614 -0.4389
17569SOL    HW154148   4.771   0.445   9.232  0.3379  1.1640 -0.0102
17569SOL    HW254149   4.657   0.517   9.161 -0.1891  0.7696  0.4278
17570SOL     OW54150   4.284   0.688   1.565  0.4625 -0.4240 -0.0274
17570SOL    HW154151   4.260   0.698   1.657 -1.0341 -1.4995 -0.2560
17570SOL    HW254152   4.278   0.594   1.549  1.0734 -0.2851 -1.1386
17571SOL     OW54153   5.441   3.888  10.949 -0.0780 -0.5267 -0.2713
17571SOL    HW154154   5.418   3.834  11.025  1.0854 -2.0597 -0.9519
17571SOL    HW254155   5.433   3.978  10.981 -1.2527 -1.0875  1.1595
17572SOL     OW54156   4.471   0.608   8.291 -0.1915 -0.0962  0.0166
17572SOL    HW154157   4.379   0.582   8.279  0.0877 -0.5166 -1.2851
17572SOL    HW254158   4.511   0.596   8.205  1.5670 -1.7602  1.0112
17573SOL     OW54159   6.706   5.780   5.700  0.5006  0.5108  0.5253
17573SOL    HW154160   6.771   5.711   5.715  1.0853  1.0574  0.5812
17573SOL    HW254161   6.690   5.778   5.606  1.8762  1.4608  0.2331
17574SOL     OW54162   6.130   5.109   2.888  0.2582 -0.0019  0.2329
17574SOL    HW154163   6.180   5.174   2.938  0.4831 -1.2337  1.6771
17574SOL    HW254164   6.171   5.108   2.802  0.7639  1.1815  0.4385
17575SOL     OW54165   4.150   7.775  12.231  0.8147 -0.2689  0.3236
17575SOL    HW154166   4.079   7.736  12.282  1.4392 -0.0601  1.3856
17575SOL    HW254167   4.223   7.714  12.242  0.9279 -0.2661 -0.4049
17576SOL     OW54168   2.105   7.634   6.734  0.4298  0.2002  0.1359
17576SOL    HW154169   2.093   7.659   6.643  1.1027  0.1661  0.0297
17576SOL    HW254170   2.040   7.685   6.782 -1.3415 -1.2971 -0.5611
17577SOL     OW54171   5.276   5.357   9.022 -0.3898  0.1408  0.0189
17577SOL    HW154172   5.195   5.363   9.072 -1.0517  0.7682 -1.0918
17577SOL    HW254173   5.252   5.309   8.943  0.1361  0.9588 -0.6603
17578SOL     OW54174   0.160   5.754  11.292 -0.7732 -0.6754 -0.0800
17578SOL    HW154175   0.214   5.829  11.268 -1.4238 -0.3883 -0.6827
17578SOL    HW254176   0.221   5.692  11.332 -0.2536  0.2426  0.5838
17579SOL     OW54177   5.606   1.535   5.873 -0.4901  0.0995 -0.0553
17579SOL    HW154178   5.632   1.444   5.855 -1.3828 -0.2403  0.3204
17579SOL    HW254179   5.531   1.550   5.815 -0.0559  0.7493 -0.4477
17580SOL     OW54180   5.213   3.275   3.877  0.2754 -0.5849  0.1629
17580SOL    HW154181   5.202   3.249   3.785 -0.4852 -0.7930  0.3086
17580SOL    HW254182   5.168   3.207   3.927 -0.4157  0.1857  0.6291
17581SOL     OW54183   4.395   5.446   2.204  0.5000  0.3492 -0.4741
17581SOL    HW154184   4.387   5.387   2.129  0.2379 -0.4650  0.1839
17581SOL    HW254185   4.370   5.393   2.280  1.3239  0.9868  0.2718
17582SOL     OW54186   3.937   6.336   0.144 -0.0867  0.4775 -0.3099
17582SOL    HW154187   3.902   6.355   0.231 -1.0076  0.0163 -0.5653
17582SOL    HW254188   3.980   6.252   0.153  0.3825  0.7319 -0.1529
17583SOL     OW54189   6.542   1.205   1.179  0.9153 -0.5231 -0.2444
17583SOL    HW154190   6.515   1.184   1.090 -0.3554  1.8765 -0.5065
17583SOL    HW254191   6.619   1.149   1.194  1.0360 -1.1679 -2.7257
17584SOL     OW54192   7.546   1.171   4.767  0.5971  0.8528 -0.1861
17584SOL    HW154193   7.483   1.100   4.754 -0.7878  2.0543 -0.3606
17584SOL    HW254194   7.588   1.151   4.850  1.6043 -1.1387 -1.1189
17585SOL     OW54195   5.608   6.660   6.719  0.2793  0.0225 -0.5099
17585SOL    HW154196   5.596   6.739   6.771  0.3987  0.1086 -0.6125
17585SOL    HW254197   5.681   6.614   6.762  0.6608  0.3028 -0.8494
17586SOL     OW54198   0.232   5.866  10.242  0.0507 -0.0861 -0.1210
17586SOL    HW154199   0.214   5.787  10.293 -0.8171 -0.6431 -1.2434
17586SOL    HW254200   0.268   5.928  10.305  0.3609 -1.2404  0.8647
17587SOL     OW54201   6.939   5.537  11.850  0.5700 -0.1931  0.0852
17587SOL    HW154202   6.871   5.564  11.789  1.0905  1.1808  0.0746
17587SOL    HW254203   7.021   5.543  11.801  0.8676 -0.2676  0.5560
17588SOL     OW54204   3.011   4.776   1.328  0.4087  0.4272 -0.5940
17588SOL    HW154205   3.065   4.705   1.295  2.2225  1.0916  0.7516
17588SOL    HW254206   3.074   4.842   1.359 -1.1888  2.1570 -0.8207
17589SOL     OW54207   3.297   7.829   6.996 -0.4687  0.1488  0.3531
17589SOL    HW154208   3.309   7.922   7.015  0.1066  0.2034 -0.2508
17589SOL    HW254209   3.384   7.790   7.009 -0.9776 -0.5675  1.9544
17590SOL     OW54210   1.410   1.644   3.235 -0.3528  0.2247 -0.4032
17590SOL    HW154211   1.345   1.659   3.167  0.3038 -1.6068 -1.5106
17590SOL    HW254212   1.416   1.548   3.242  1.0287  0.3551  0.8211
17591SOL     OW54213   0.738   1.900   2.993 -0.3225  1.0879  0.1318
17591SOL    HW154214   0.825   1.923   3.024 -0.3950 -0.2702  1.4723
17591SOL    HW254215   0.728   1.948   2.911  2.2052  0.2299 -0.7542
17592SOL     OW54216   4.457   1.073   7.726 -0.4570  0.3331  0.1779
17592SOL    HW154217   4.481   0.981   7.735  0.2094  0.5409  0.6235
17592SOL    HW254218   4.368   1.078   7.758  0.1385  0.1591  1.9655
17593SOL     OW54219   1.468   2.421   1.054 -0.1861 -0.6759 -0.3353
17593SOL    HW154220   1.548   2.445   1.101 -0.7933 -0.8966  0.8406
17593SOL    HW254221   1.460   2.488   0.986 -1.6682  2.5184  2.6710
17594SOL     OW54222   1.808   1.307   2.295  0.9008 -0.4266  0.0164
17594SOL    HW154223   1.861   1.306   2.215  0.3247  0.8269 -0.4134
17594SOL    HW254224   1.826   1.393   2.334 -1.5691  0.5222 -0.7103
17595SOL     OW54225   7.679   4.705  10.090 -0.3236  0.4522  0.1646
17595SOL    HW154226   7.747   4.747  10.037  0.2377 -0.3727  0.2286
17595SOL    HW254227   7.631   4.779  10.128 -1.5509  1.1373 -2.4311
17596SOL     OW54228   2.696   6.456  11.639  0.5197 -0.1174  0.4121
17596SOL    HW154229   2.692   6.551  11.633  1.7206 -0.0525  0.3418
17596SOL    HW254230   2.671   6.437  11.729 -1.5692  0.0988 -0.0650
17597SOL     OW54231   0.737   7.651   1.529  0.3067  0.5967 -0.2831
17597SOL    HW154232   0.763   7.685   1.444  0.5579 -0.5292 -0.6716
17597SOL    HW254233   0.795   7.576   1.544  0.1512  0.6720  0.8023
17598SOL     OW54234   4.572   2.139   2.026  0.3163  0.3925  0.2310
17598SOL    HW154235   4.604   2.112   2.111  0.0194 -1.4457 -0.1969
17598SOL    HW254236   4.478   2.152   2.039  0.1720 -0.4267  0.0925
17599SOL     OW54237   0.584   0.201   7.659 -0.4400 -0.2533 -0.2886
17599SOL    HW154238   0.630   0.268   7.607  1.0303  0.0132  1.2843
17599SOL    HW254239   0.637   0.191   7.738 -3.0961  0.0455  1.6424
17600SOL     OW54240   7.765   4.486   5.386  0.2155  0.8179  0.3726
17600SOL    HW154241   7.764   4.521   5.475 -0.6640  0.4766  0.5004
17600SOL    HW254242   7.747   4.562   5.330 -0.0072  0.8867  0.5378
17601SOL     OW54243   1.294   6.620   1.711  0.7963 -0.5147  0.2175
17601SOL    HW154244   1.370   6.616   1.769  0.9669 -0.8904 -0.0259
17601SOL    HW254245   1.315   6.560   1.639  1.2142  1.0157 -0.9853
17602SOL     OW54246   5.686   2.110   8.951 -0.2377 -0.3535  0.1071
17602SOL    HW154247   5.682   2.076   8.862  1.3739  0.7855 -0.4356
17602SOL    HW254248   5.779   2.115   8.971 -0.5391  0.5040  1.4288
17603SOL     OW54249   5.084   2.455   7.268 -0.6328 -0.1195 -0.1297
17603SOL    HW154250   5.138   2.391   7.221 -2.0710 -0.8604 -0.8367
17603SOL    HW254251   5.095   2.431   7.361  0.1419 -0.3186 -0.2623
17604SOL     OW54252   1.515   7.556   4.877 -0.0947  0.1983  0.0370
17604SOL    HW154253   1.427   7.531   4.906  0.2302 -0.8619  0.1442
17604SOL    HW254254   1.548   7.479   4.831  0.5978  0.7633 -0.4231
17605SOL     OW54255   4.733   2.213   1.312 -0.5140 -0.1583 -0.6120
17605SOL    HW154256   4.707   2.257   1.231 -0.9311  1.3791  0.3269
17605SOL    HW254257   4.654   2.213   1.366  0.3158  0.8125  0.6459
17606SOL     OW54258   6.566   6.187   1.881 -0.3392  0.0085 -0.3086
17606SOL    HW154259   6.555   6.211   1.974 -1.9591 -2.3533  0.1912
17606SOL    HW254260   6.659   6.199   1.865  0.2345 -0.6999  2.0253
17607SOL     OW54261   1.937   5.496   1.185  0.1415 -0.0472 -0.1047
17607SOL    HW154262   1.987   5.473   1.263 -0.4462 -1.1907 -0.0391
17607SOL    HW254263   2.003   5.520   1.120  0.8206 -1.6154 -0.0486
17608SOL     OW54264   6.134   6.319   0.324  0.1277  0.4461 -0.0878
17608SOL    HW154265   6.054   6.267   0.334  1.9640 -2.4959  0.6027
17608SOL    HW254266   6.138   6.372   0.404 -0.6879 -0.0070  0.2690
17609SOL     OW54267   0.497   0.937  10.089 -0.1794 -0.2261 -0.1730
17609SOL    HW154268   0.418   0.953  10.037 -0.4981  2.4510  0.9658
17609SOL    HW254269   0.465   0.885  10.164 -1.4161  2.4225  1.2964
17610SOL     OW54270   2.996   0.082   2.904 -1.0132 -0.6076 -0.3287
17610SOL    HW154271   2.932   0.012   2.918 -0.7140 -0.6541  0.8978
17610SOL    HW254272   3.034   0.097   2.991  2.1505 -2.0045 -1.3430
17611SOL     OW54273   4.475   6.544   9.445 -0.1781 -0.2589  0.4930
17611SOL    HW154274   4.421   6.612   9.405  0.6769  0.4578  0.5308
17611SOL    HW254275   4.420   6.466   9.443 -0.9490  0.2812 -0.1085
17612SOL     OW54276   4.507   3.269   4.121 -0.5775 -0.2175 -0.6061
17612SOL    HW154277   4.458   3.351   4.112  1.4130  1.0055 -0.9654
17612SOL    HW254278   4.591   3.296   4.157  0.4698 -1.9742 -1.6293
17613SOL     OW54279   4.577   2.222   6.972 -0.0171 -0.0149  0.1027
17613SOL    HW154280   4.657   2.207   7.023 -0.4579  1.4833  1.3238
17613SOL    HW254281   4.595   2.302   6.923 -0.0215 -0.8291 -1.2777
17614SOL     OW54282   0.770   6.258   3.688 -0.5211 -0.4779 -0.0229
17614SOL    HW154283   0.762   6.189   3.754 -0.6043 -0.0333  0.4457
17614SOL    HW254284   0.798   6.335   3.738 -3.5044  0.7108  0.0356
17615SOL     OW54285   7.499   5.857   6.422 -0.2632 -0.2330  0.9196
17615SOL    HW154286   7.442   5.794   6.467  0.2181 -2.9963 -1.9621
17615SOL    HW254287   7.442   5.897   6.356  0.3975 -0.7795 -0.0011
17616SOL     OW54288   4.018   0.340   5.701  0.2248  0.3803 -0.3103
17616SOL    HW154289   4.086   0.398   5.736 -0.2123  0.6279  0.1457
17616SOL    HW254290   3.962   0.397   5.648  0.0513  0.2892 -0.2265
17617SOL     OW54291   2.165   0.826   8.443 -0.0512 -0.3370 -0.1874
17617SOL    HW154292   2.177   0.794   8.354 -1.7663  2.1045 -1.4222
17617SOL    HW254293   2.201   0.914   8.443 -2.1088  0.5839  0.8280
17618SOL     OW54294   2.935   0.724   0.548 -0.5209  0.5304 -0.1242
17618SOL    HW154295   3.008   0.768   0.504  0.3328 -0.6519  0.0748
17618SOL    HW254296   2.924   0.773   0.630  0.5345  0.3026  0.1730
17619SOL     OW54297   6.053   7.744   5.611 -0.6565 -0.6241  0.1071
17619SOL    HW154298   5.962   7.714   5.604 -0.5964 -0.5320 -1.7600
17619SOL    HW254299   6.071   7.782   5.525  1.4384 -1.4955  0.1088
17620SOL     OW54300   0.965   0.946  11.364  0.2866  0.0109  0.1720
17620SOL    HW154301   0.928   0.976  11.447 -0.1756 -0.7842  0.2625
17620SOL    HW254302   1.060   0.953  11.376  0.2047  0.4991  0.5389
17621SOL     OW54303   6.564   2.549   0.562 -0.0172 -0.5337 -0.2516
17621SOL    HW154304   6.476   2.512   0.560 -0.3176  0.1307  0.3295
17621SOL    HW254305   6.567   2.609   0.488  0.4384 -1.6106 -1.1375
17622SOL     OW54306   6.731   2.391   2.812 -0.0069 -0.2761 -0.2567
17622SOL    HW154307   6.781   2.314   2.840  0.1689 -0.5082 -1.1660
17622SOL    HW254308   6.647   2.383   2.857  0.3363 -0.5081  0.3676
17623SOL     OW54309   7.437   2.639  11.573  0.6127 -0.1945  0.1618
17623SOL    HW154310   7.485   2.677  11.500  0.5783 -1.2832 -0.4339
17623SOL    HW254311   7.357   2.692  11.578  1.4849  1.1384  0.6829
17624SOL     OW54312   3.315   2.967   1.338 -0.1054  0.6379  0.0700
17624SOL    HW154313   3.338   3.051   1.299  1.8258 -0.0194 -0.3327
17624SOL    HW254314   3.346   2.974   1.428  0.9010  0.0801 -0.2116
17625SOL     OW54315   4.763   5.435   6.667 -0.0760 -0.2444  0.7101
17625SOL    HW154316   4.682   5.464   6.709 -0.6396 -0.1705 -0.4168
17625SOL    HW254317   4.773   5.491   6.591  1.2328 -0.0207  1.0126
17626SOL     OW54318   5.126   0.115   9.726  0.2455 -0.3040 -0.3725
17626SOL    HW154319   5.036   0.141   9.705  0.0321 -0.8654 -0.1633
17626SOL    HW254320   5.118   0.028   9.764  0.7956  0.0080  0.4821
17627SOL     OW54321   3.978   6.629   1.963 -0.1082  0.6979  0.1847
17627SOL    HW154322   3.902   6.579   1.991 -0.3502 -0.1047 -1.7304
17627SOL    HW254323   3.958   6.719   1.987 -0.6789  0.2171  1.6307
17628SOL     OW54324   5.548   3.335   2.580 -0.2517 -0.0509  0.3281
17628SOL    HW154325   5.634   3.297   2.597  0.4439  0.5065 -1.6524
17628SOL    HW254326   5.489   3.260   2.576  0.4023 -0.5696  0.3307
17629SOL     OW54327   5.811   7.612   1.783  0.2007  0.1341  0.4876
17629SOL    HW154328   5.849   7.627   1.696 -0.2879 -0.3867  0.1690
17629SOL    HW254329   5.838   7.687   1.835  0.9437  0.1898  0.0304
17630SOL     OW54330   7.921   5.460  12.122 -0.0475 -0.0391 -0.0154
17630SOL    HW154331   7.922   5.440  12.028  1.1394  0.5992 -0.1600
17630SOL    HW254332   7.936   5.554  12.127 -1.5858  0.1963  0.7866
17631SOL     OW54333   3.736   2.118   8.832  0.6485  0.7086 -0.1598
17631SOL    HW154334   3.700   2.032   8.853  0.6923  0.5778 -0.6050
17631SOL    HW254335   3.757   2.157   8.917  0.5852  0.2996  0.0449
17632SOL     OW54336   1.299   5.125   2.890  0.6515  0.2438  0.2936
17632SOL    HW154337   1.309   5.210   2.849 -0.4987 -1.0702 -3.0862
17632SOL    HW254338   1.220   5.088   2.850  1.7839 -2.8903  0.6246
17633SOL     OW54339   4.759   5.322  10.360 -0.5001 -0.1872  0.1648
17633SOL    HW154340   4.720   5.248  10.314 -1.2936 -1.3454  2.5102
17633SOL    HW254341   4.752   5.395  10.299 -2.7201 -1.2835 -1.0231
17634SOL     OW54342   6.562   5.475   1.581  0.1146  0.2200 -0.9921
17634SOL    HW154343   6.519   5.559   1.601  2.3732  1.1205  0.4382
17634SOL    HW254344   6.606   5.490   1.497  0.2831  0.3765 -0.8763
17635SOL     OW54345   0.380   7.529  11.093  0.2741  0.1763  0.2824
17635SOL    HW154346   0.397   7.441  11.060 -1.4922 -0.2422  0.3562
17635SOL    HW254347   0.394   7.523  11.187  1.0622  0.2224  0.1702
17636SOL     OW54348   3.064   4.956   1.785 -0.1719 -0.0654  0.1500
17636SOL    HW154349   3.127   5.022   1.754  0.3365 -0.9470 -0.7528
17636SOL    HW254350   2.991   4.962   1.723 -1.4100  1.5269  1.6710
17637SOL     OW54351   1.459   6.302  11.939  0.9943  0.3997  0.6151
17637SOL    HW154352   1.421   6.313  12.026  0.1554  1.0439  0.1921
17637SOL    HW254353   1.391   6.334  11.880  0.8511 -1.6098 -0.3883
17638SOL     OW54354   1.450   5.757  11.867  0.2368  0.0393 -0.0924
17638SOL    HW154355   1.463   5.850  11.848 -1.3331  0.1744 -0.6113
17638SOL    HW254356   1.361   5.739  11.839  0.9988 -1.9995 -1.4317
17639SOL     OW54357   2.167   4.942  12.088 -0.1441  0.1947 -0.4423
17639SOL    HW154358   2.236   4.891  12.131  1.1972  1.1973 -1.3037
17639SOL    HW254359   2.215   5.007  12.037 -1.6023 -1.2804 -3.9592
17640SOL     OW54360   2.582   0.593   2.867  0.2267  0.4697 -0.4119
17640SOL    HW154361   2.628   0.539   2.932  0.0187  0.5271 -0.2198
17640SOL    HW254362   2.531   0.655   2.919  0.0665  0.5197 -0.6301
17641SOL     OW54363   6.665   1.659  12.450  0.3550 -0.9342 -0.3111
17641SOL    HW154364   6.678   1.693  12.539  1.0356  1.3587 -1.2130
17641SOL    HW254365   6.650   1.566  12.462 -3.6517 -0.1477  2.5393
17642SOL     OW54366   2.325   0.028   7.670 -0.0326  0.3244  0.3707
17642SOL    HW154367   2.417   0.052   7.674 -0.0422  0.6360 -0.8670
17642SOL    HW254368   2.310  -0.026   7.748  1.7273 -1.5538 -0.5099
17643SOL     OW54369   2.189   5.586   7.476 -0.1722 -0.3849 -0.7172
17643SOL    HW154370   2.234   5.520   7.424 -2.1295 -1.7311 -0.8061
17643SOL    HW254371   2.112   5.541   7.511 -0.0484  1.0588  1.6330
17644SOL     OW54372   1.137   2.218   8.973 -0.1395 -0.2145 -0.1467
17644SOL    HW154373   1.176   2.239   9.058  1.4647  1.2955 -1.1940
17644SOL    HW254374   1.124   2.304   8.931 -2.6600 -0.7886 -0.7307
17645SOL     OW54375   0.111   1.851   8.425  0.5120 -0.5326  0.3464
17645SOL    HW154376   0.024   1.838   8.461 -0.3460  1.6882 -0.7753
17645SOL    HW254377   0.156   1.906   8.489  0.8824 -1.1051  0.5903
17646SOL     OW54378   6.947   3.147  11.376  0.1350 -0.0515 -0.0103
17646SOL    HW154379   7.032   3.170  11.415 -0.2771  0.8528  0.3757
17646SOL    HW254380   6.948   3.051  11.371  1.4870 -0.0283 -0.7178
17647SOL     OW54381   0.168   2.334   0.577 -0.0913  0.6491  0.1915
17647SOL    HW154382   0.189   2.379   0.495  0.0166 -0.4749 -0.4160
17647SOL    HW254383   0.240   2.272   0.589 -0.7019 -0.0080  0.5157
17648SOL     OW54384   3.465   4.021  12.165  0.0839  0.0638 -0.0146
17648SOL    HW154385   3.533   3.956  12.178 -0.4408 -0.3707  0.6174
17648SOL    HW254386   3.383   3.971  12.163 -0.2412  0.6034 -0.4934
17649SOL     OW54387   2.574   0.592  10.039 -0.0134 -0.1155 -0.0497
17649SOL    HW154388   2.615   0.587  10.125  1.5707  2.1451 -0.5697
17649SOL    HW254389   2.525   0.510  10.030  0.6181 -0.8586  2.5416
17650SOL     OW54390   7.442   2.769   2.920 -0.4286 -0.5357  0.6221
17650SOL    HW154391   7.377   2.764   2.849  0.2010 -0.9540  0.0625
17650SOL    HW254392   7.502   2.837   2.891  0.2761 -1.2541  0.3692
17651SOL     OW54393   2.940   2.455   7.973  0.3885 -0.2824  0.0063
17651SOL    HW154394   2.981   2.370   7.991  1.9858  0.7758  1.8209
17651SOL    HW254395   3.011   2.519   7.985 -1.1998  1.4570  0.7060
17652SOL     OW54396   2.365   4.689  11.425 -0.0851  0.4474 -0.5338
17652SOL    HW154397   2.376   4.594  11.425 -0.9867  0.3401 -0.9694
17652SOL    HW254398   2.441   4.722  11.376  1.3170  0.1050  1.3224
17653SOL     OW54399   2.207   5.474   6.373  0.2042  0.2826  0.2163
17653SOL    HW154400   2.149   5.514   6.438  1.0901 -0.7433  1.6929
17653SOL    HW254401   2.247   5.400   6.419  1.1758 -0.2289 -1.3867
17654SOL     OW54402   7.963   6.145   8.171 -0.0029  0.1061 -0.7881
17654SOL    HW154403   7.883   6.180   8.132 -0.3336 -0.6936 -0.8351
17654SOL    HW254404   7.933   6.093   8.245  0.6487  2.2392  1.1027
17655SOL     OW54405   2.546   3.024   5.598 -0.2021 -0.2702 -0.5109
17655SOL    HW154406   2.521   3.117   5.604 -1.9884 -0.7723  0.9044
17655SOL    HW254407   2.500   2.992   5.520 -0.7213 -0.2773 -0.2041
17656SOL     OW54408   4.648   2.094   2.306  0.4949 -0.2330  0.0796
17656SOL    HW154409   4.608   2.161   2.361 -0.0203  1.1202 -1.8572
17656SOL    HW254410   4.742   2.115   2.308  0.3480  0.5201 -0.4458
17657SOL     OW54411   2.847   7.238   3.423 -0.0798 -0.2740 -0.0641
17657SOL    HW154412   2.874   7.198   3.341 -0.7855 -0.4297 -0.2304
17657SOL    HW254413   2.766   7.284   3.402 -0.2234 -0.2451  0.5254
17658SOL     OW54414   1.356   0.499   1.409 -0.4787 -0.3430 -0.0135
17658SOL    HW154415   1.350   0.566   1.477  0.7768 -1.1221  0.9118
17658SOL    HW254416   1.265   0.479   1.387 -0.8844  1.6027 -0.2917
17659SOL     OW54417   0.573   6.455  11.860  0.1328  0.0602 -0.2097
17659SOL    HW154418   0.496   6.445  11.916  0.9664  1.0596  1.1866
17659SOL    HW254419   0.538   6.458  11.771 -1.4004  0.2026  0.3710
17660SOL     OW54420   3.043   4.883  10.364  0.4542 -0.1778 -0.5792
17660SOL    HW154421   3.036   4.815  10.296  1.7445 -1.4129  0.4615
17660SOL    HW254422   3.067   4.962  10.316 -1.4272 -0.3282 -1.8758
17661SOL     OW54423   6.611   2.045   7.273 -0.3333  0.5555 -0.3369
17661SOL    HW154424   6.650   2.010   7.353  0.1156 -0.9649 -1.1923
17661SOL    HW254425   6.557   1.973   7.240 -0.7310  1.2675 -1.2556
17662SOL     OW54426   4.038   6.641   4.793 -0.2149  0.1221 -0.5183
17662SOL    HW154427   4.120   6.595   4.775 -0.4452 -0.0159 -1.2524
17662SOL    HW254428   4.059   6.734   4.777  0.6497  0.5130  2.3618
17663SOL     OW54429   1.055   2.124   7.188  0.0505  0.2426  0.4922
17663SOL    HW154430   1.122   2.073   7.233 -0.0037  0.9669  1.4125
17663SOL    HW254431   0.976   2.113   7.241  0.2699  2.0252  1.2342
17664SOL     OW54432   2.335   3.730   7.806  0.2787 -0.2459  0.4214
17664SOL    HW154433   2.400   3.735   7.735  0.9426 -1.2122  0.9267
17664SOL    HW254434   2.350   3.644   7.845 -0.5413 -0.0021  1.3001
17665SOL     OW54435   0.557   5.818   8.203 -0.0771  0.2729 -0.1096
17665SOL    HW154436   0.613   5.782   8.134 -0.1363 -0.9651  0.4741
17665SOL    HW254437   0.468   5.795   8.176 -0.1675  0.5399 -0.0451
17666SOL     OW54438   3.476   0.612  10.780  0.1782  0.1329 -0.1288
17666SOL    HW154439   3.513   0.531  10.817 -0.9135 -0.1421  0.3959
17666SOL    HW254440   3.454   0.589  10.690  0.8566  0.1692 -0.3106
17667SOL     OW54441   7.143   4.137   7.483 -0.3586  0.3047  0.1316
17667SOL    HW154442   7.230   4.127   7.520 -0.5007  0.0636  0.4064
17667SOL    HW254443   7.132   4.232   7.473 -0.3958  0.3929  0.9113
17668SOL     OW54444   2.383   1.431   1.426 -0.0982  0.3074 -0.6725
17668SOL    HW154445   2.315   1.384   1.475 -0.2978  0.7719 -0.4895
17668SOL    HW254446   2.349   1.520   1.419  1.5305  1.2042  1.5096
17669SOL     OW54447   2.843   6.431   1.985  0.0781 -0.3375 -0.6271
17669SOL    HW154448   2.901   6.495   1.943  0.1437  0.1482  0.1816
17669SOL    HW254449   2.769   6.423   1.925  0.5327 -0.2524 -1.2129
17670SOL     OW54450   2.513   1.759   1.872  0.4169  0.2066  0.3688
17670SOL    HW154451   2.570   1.706   1.817  2.2402  0.6088  1.7970
17670SOL    HW254452   2.426   1.719   1.862  0.9841 -0.6595 -1.5381
17671SOL     OW54453   1.286   2.591   4.964 -0.3908  0.1934  1.2581
17671SOL    HW154454   1.359   2.541   4.928 -0.6773  0.9160 -0.4312
17671SOL    HW254455   1.326   2.646   5.032  0.2540 -0.8774  1.7676
17672SOL     OW54456   3.531   0.471  12.053 -0.7072 -0.5412 -0.0113
17672SOL    HW154457   3.580   0.530  11.997 -0.5762 -1.1255 -0.5197
17672SOL    HW254458   3.440   0.500  12.046 -0.7987 -1.0620 -1.1100
17673SOL     OW54459   5.019   4.475   0.171 -0.3166  0.1565  0.4357
17673SOL    HW154460   5.026   4.380   0.165  0.4501  0.1599  1.0587
17673SOL    HW254461   5.020   4.505   0.080 -3.3349 -0.5647  0.0684
17674SOL     OW54462   1.044   5.060   7.464 -0.3322 -0.1164 -0.1586
17674SOL    HW154463   0.973   5.041   7.526 -1.6209  1.3787 -1.0938
17674SOL    HW254464   1.124   5.041   7.512 -1.3527 -2.0055  0.8902
17675SOL     OW54465   2.786   5.168   3.501 -0.1016  0.2297 -0.0648
17675SOL    HW154466   2.727   5.229   3.458 -0.5020 -0.9282 -1.2348
17675SOL    HW254467   2.770   5.084   3.457  2.2650 -0.1678 -0.2907
17676SOL     OW54468   3.994   7.888   2.143 -0.1337  0.2544  0.2992
17676SOL    HW154469   3.975   7.957   2.206  0.9537  0.5694  0.3113
17676SOL    HW254470   3.990   7.807   2.194  1.3290  0.5528  0.9388
17677SOL     OW54471   3.433   5.757   9.500  0.1178 -0.0139  0.1265
17677SOL    HW154472   3.407   5.673   9.464 -0.9562  0.0255  0.7905
17677SOL    HW254473   3.432   5.817   9.425 -0.1416 -0.3654 -0.1521
17678SOL     OW54474   3.170   7.037   0.280  0.0581 -0.1379 -0.5875
17678SOL    HW154475   3.106   7.083   0.226 -1.4085 -3.1435 -1.6238
17678SOL    HW254476   3.120   7.005   0.355  0.1669 -2.7481 -1.5343
17679SOL     OW54477   2.215   3.301   6.270 -0.1154  0.1398  0.2156
17679SOL    HW154478   2.137   3.295   6.214 -0.0152 -1.2398  0.1945
17679SOL    HW254479   2.287   3.316   6.209 -0.0089 -1.3468 -0.0519
17680SOL     OW54480   6.787   5.621   2.614 -0.1676  0.2758  0.2850
17680SOL    HW154481   6.717   5.653   2.557 -0.9658 -0.7819  0.6208
17680SOL    HW254482   6.863   5.612   2.557  0.2150  2.9904  0.2370
17681SOL     OW54483   3.414   7.464   5.934 -0.1948  0.7330  0.3942
17681SOL    HW154484   3.431   7.515   6.013 -0.8616  1.8623 -0.1629
17681SOL    HW254485   3.487   7.487   5.875  2.1305 -2.5116  1.7078
17682SOL     OW54486   5.387   6.909  11.055 -0.5469 -0.2561 -0.2174
17682SOL    HW154487   5.391   6.839  10.990 -0.7087  0.1416 -0.6654
17682SOL    HW254488   5.468   6.900  11.105  1.1675  1.3242 -2.4955
17683SOL     OW54489   3.089   7.877   7.806 -0.2529  0.0398  0.5351
17683SOL    HW154490   3.066   7.946   7.743 -1.7893 -0.6748  0.2652
17683SOL    HW254491   3.015   7.816   7.802  1.1862 -1.7809  0.5731
17684SOL     OW54492   3.274   1.208   0.733 -0.0609 -0.1963 -0.0117
17684SOL    HW154493   3.249   1.299   0.748 -0.0326 -0.0896 -0.5829
17684SOL    HW254494   3.313   1.208   0.645 -0.3857 -0.8208 -0.1595
17685SOL     OW54495   1.725   6.512   7.089  0.2341 -0.0204  0.0907
17685SOL    HW154496   1.698   6.603   7.075 -0.5242 -0.2187  0.2104
17685SOL    HW254497   1.806   6.503   7.039  0.1575  0.6417 -0.1605
17686SOL     OW54498   5.809   3.821   3.676  0.4713 -0.0712  0.3407
17686SOL    HW154499   5.812   3.747   3.616  0.8348  0.2346 -0.0246
17686SOL    HW254500   5.897   3.859   3.671 -0.2293  1.4509 -0.8255
17687SOL     OW54501   0.598   6.296   2.219  0.0800 -0.2625 -0.2589
17687SOL    HW154502   0.588   6.389   2.196  1.1279 -0.7302 -2.9114
17687SOL    HW254503   0.512   6.258   2.203 -0.4147  0.2476  1.0433
17688SOL     OW54504   3.733   7.752   8.831  0.0738 -0.2055  0.2918
17688SOL    HW154505   3.724   7.812   8.905  2.9562 -1.1939  1.6075
17688SOL    HW254506   3.644   7.721   8.813 -1.0543  2.1145  1.5335
17689SOL     OW54507   2.585   2.365   7.603  0.7234  0.0918  0.3234
17689SOL    HW154508   2.565   2.452   7.639 -1.1535 -0.4637  0.7151
17689SOL    HW254509   2.665   2.339   7.647  1.3664  1.6521  0.1517
17690SOL     OW54510   3.892   2.846   7.722  0.5889 -0.2886  0.3056
17690SOL    HW154511   3.809   2.890   7.740 -0.0488 -1.5893  0.6542
17690SOL    HW254512   3.958   2.913   7.739 -0.4115  1.3279 -1.6379
17691SOL     OW54513   1.900   0.780   4.456  0.0481  0.5034  0.0301
17691SOL    HW154514   1.826   0.841   4.456  0.4366  0.9912 -0.5172
17691SOL    HW254515   1.870   0.706   4.509 -1.1841  0.2828 -0.9115
17692SOL     OW54516   6.214   0.425   9.515  0.4430 -0.3872  0.3367
17692SOL    HW154517   6.244   0.369   9.586  1.9993  0.7010  0.5925
17692SOL    HW254518   6.139   0.379   9.478 -0.5189 -0.9499  2.7487
17693SOL     OW54519   2.661   2.940   2.727  0.5061  0.5532  0.0849
17693SOL    HW154520   2.605   3.010   2.692  3.5745  2.1110 -2.1920
17693SOL    HW254521   2.669   2.961   2.820 -1.2989  1.2424  0.1219
17694SOL     OW54522   2.661   6.636   0.745 -0.2667  0.0932 -0.2225
17694SOL    HW154523   2.597   6.573   0.712  0.9162 -1.7393  0.7863
17694SOL    HW254524   2.640   6.645   0.838  0.3616  0.1916 -0.0865
17695SOL     OW54525   7.458   3.502  11.790 -0.1762  0.5053 -0.0331
17695SOL    HW154526   7.509   3.422  11.803  1.5701  1.7185  1.0691
17695SOL    HW254527   7.507   3.552  11.726 -1.4061  0.6080 -0.9297
17696SOL     OW54528   7.141   5.715   1.083 -0.1541 -0.9584  0.7734
17696SOL    HW154529   7.127   5.644   1.146  1.7754  0.5413  3.0662
17696SOL    HW254530   7.226   5.752   1.107 -0.3205  1.0883 -1.4055
17697SOL     OW54531   4.347   6.052   7.597  0.8482 -0.0050  0.0812
17697SOL    HW154532   4.273   5.994   7.615  0.7563  0.1061  0.0649
17697SOL    HW254533   4.308   6.129   7.555  1.0115 -0.0748 -0.1954
17698SOL     OW54534   0.592   3.956   3.741  0.3850 -0.4313  0.0331
17698SOL    HW154535   0.666   3.985   3.687  1.5082 -2.2136  0.5336
17698SOL    HW254536   0.609   3.863   3.758 -0.6698 -0.2807  2.2759
17699SOL     OW54537   6.104   1.264   4.460  0.0194  0.1430 -0.4002
17699SOL    HW154538   6.102   1.285   4.366  0.9828  0.3430 -0.3814
17699SOL    HW254539   6.145   1.178   4.464 -0.9431 -0.3218 -0.2241
17700SOL     OW54540   3.470   0.182   8.538  0.3132  0.4818 -0.4812
17700SOL    HW154541   3.554   0.216   8.570  0.1455  0.5722 -0.1267
17700SOL    HW254542   3.477   0.088   8.550 -0.3325  0.6246  1.3059
17701SOL     OW54543   7.501   4.659   6.973 -0.8085 -0.6283  0.1820
17701SOL    HW154544   7.530   4.570   6.990  0.6680  0.0756  1.5902
17701SOL    HW254545   7.573   4.699   6.923 -1.6285 -0.3191 -0.7898
17702SOL     OW54546   0.252   6.253   7.153  0.7223  0.2607 -0.7052
17702SOL    HW154547   0.162   6.223   7.158  0.2835  1.0099 -2.8375
17702SOL    HW254548   0.245   6.345   7.127  2.0721  1.4130  2.5614
17703SOL     OW54549   3.067   0.744   6.016  0.0802  0.0449  0.7389
17703SOL    HW154550   3.140   0.729   6.077  0.6255  1.0500  0.3599
17703SOL    HW254551   3.062   0.840   6.009  0.5428 -0.0354 -1.3856
17704SOL     OW54552   0.554   5.528  11.599 -0.1830  0.1559  0.6130
17704SOL    HW154553   0.554   5.619  11.629  1.3871 -0.0536  1.3532
17704SOL    HW254554   0.505   5.481  11.666 -1.2763  0.4804  0.0661
17705SOL     OW54555   2.649   6.227   1.046  0.2231 -0.1067  0.3749
17705SOL    HW154556   2.595   6.271   1.111 -0.5630 -0.6479  0.0994
17705SOL    HW254557   2.728   6.281   1.040  0.3577 -0.1018  1.8481
17706SOL     OW54558   3.052   2.481   3.359 -0.2964 -0.0883 -0.1210
17706SOL    HW154559   3.085   2.402   3.314  0.7572 -0.1184  0.6434
17706SOL    HW254560   3.107   2.487   3.438 -0.6643  1.1643  0.0542
17707SOL     OW54561   3.018   0.170   0.626 -0.0321  0.1179 -0.0011
17707SOL    HW154562   2.968   0.240   0.583 -0.6244  0.5927  1.3912
17707SOL    HW254563   3.103   0.209   0.643 -0.8664  1.1237  2.2148
17708SOL     OW54564   3.379   6.499   2.677  0.1980  0.4035 -0.5667
17708SOL    HW154565   3.465   6.482   2.716  1.2626 -3.0148 -3.7748
17708SOL    HW254566   3.320   6.438   2.721 -0.1488  1.2008  0.1085
17709SOL     OW54567   7.517   6.462   6.928  0.5280  0.1741 -0.2685
17709SOL    HW154568   7.524   6.549   6.890 -0.7907  0.3859 -0.0545
17709SOL    HW254569   7.544   6.403   6.858 -0.8404  0.6239 -1.1979
17710SOL     OW54570   6.014   0.113  12.255  0.2925 -0.2208 -0.3487
17710SOL    HW154571   5.975   0.200  12.269 -3.9776 -1.6048 -2.1008
17710SOL    HW254572   5.993   0.064  12.335 -0.7743 -0.6928 -0.9020
17711SOL     OW54573   2.259   4.577   7.056  0.8760  0.4534  0.5843
17711SOL    HW154574   2.333   4.542   7.006  1.1792  1.9328 -0.0721
17711SOL    HW254575   2.199   4.611   6.989 -0.4238 -0.7333  1.1063
17712SOL     OW54576   7.433   0.980   6.253 -0.5528 -0.3758  0.1473
17712SOL    HW154577   7.366   0.938   6.307  0.4730 -0.5056  1.3578
17712SOL    HW254578   7.486   0.908   6.220 -1.1466 -0.2916 -1.0279
17713SOL     OW54579   6.600   3.762   3.303 -0.2060 -0.2894  0.2138
17713SOL    HW154580   6.535   3.728   3.241 -0.2579 -0.6612  0.4671
17713SOL    HW254581   6.601   3.698   3.374  1.4231 -1.0662 -0.4302
17714SOL     OW54582   1.493   4.552  11.971  0.5000 -0.2415 -0.4444
17714SOL    HW154583   1.421   4.569  11.910  0.0403  0.3083  0.2342
17714SOL    HW254584   1.465   4.476  12.021  0.9826 -0.8411 -1.0581
17715SOL     OW54585   5.655   0.153   5.090  0.0971  0.7767 -0.2402
17715SOL    HW154586   5.731   0.131   5.036  0.5831  0.2256  0.6534
17715SOL    HW254587   5.613   0.069   5.107 -0.4972  1.0360 -0.3934
17716SOL     OW54588   5.135   7.943   7.783 -0.3601 -0.1065  0.3137
17716SOL    HW154589   5.195   7.880   7.822  0.0157  0.7261  1.1152
17716SOL    HW254590   5.184   7.981   7.710 -0.4035 -0.3694  0.1463
17717SOL     OW54591   3.710   4.778   1.659  0.1139 -0.0429 -0.0983
17717SOL    HW154592   3.657   4.806   1.733  0.3555  0.6338 -0.1709
17717SOL    HW254593   3.801   4.792   1.688  0.2677  4.1214 -1.8656
17718SOL     OW54594   3.161   4.706  11.470 -0.0555  0.3454 -0.0428
17718SOL    HW154595   3.095   4.730  11.535  0.0465  0.5790 -0.0212
17718SOL    HW254596   3.111   4.675  11.395 -0.3051  2.4923 -0.8429
17719SOL     OW54597   1.030   5.307   3.489  0.3256 -0.5422 -0.0275
17719SOL    HW154598   0.972   5.383   3.494 -0.0693 -0.7325 -1.2853
17719SOL    HW254599   1.002   5.250   3.561 -1.5909 -0.9672 -1.0160
17720SOL     OW54600   0.383   0.815   3.680  0.1182  0.4666  0.1974
17720SOL    HW154601   0.356   0.778   3.764 -0.9840 -0.7916 -0.6801
17720SOL    HW254602   0.360   0.908   3.686  0.1240  0.4075  1.3056
17721SOL     OW54603   6.650   0.199   1.043 -0.0853  0.8461  1.0964
17721SOL    HW154604   6.698   0.251   0.979  1.9015 -0.2745  1.5674
17721SOL    HW254605   6.588   0.148   0.992 -1.0037  2.5324  0.4771
17722SOL     OW54606   1.123   3.639  11.144 -0.7159 -0.1166 -0.6280
17722SOL    HW154607   1.107   3.554  11.186  0.5952 -0.6680 -1.1664
17722SOL    HW254608   1.127   3.619  11.051  2.4732 -0.0450 -0.6184
17723SOL     OW54609   5.233   1.444   0.187 -0.0738 -0.5130  0.1061
17723SOL    HW154610   5.259   1.521   0.136  0.5330 -1.0929 -0.4815
17723SOL    HW254611   5.307   1.384   0.178 -1.1456 -1.7588 -0.6731
17724SOL     OW54612   6.138   3.198   7.953 -0.3620 -0.0659  0.4125
17724SOL    HW154613   6.178   3.131   8.007  2.3835  0.0305 -1.3089
17724SOL    HW254614   6.050   3.210   7.990  0.5057 -1.6420  3.2702
17725SOL     OW54615   3.305   2.578   4.600  0.2248 -0.3568 -0.1119
17725SOL    HW154616   3.323   2.650   4.660 -1.0617 -0.7178  0.7393
17725SOL    HW254617   3.328   2.499   4.649 -1.3697 -0.6879  0.1584
17726SOL     OW54618   6.959   5.741   3.532  0.1925  0.3492  0.2131
17726SOL    HW154619   7.035   5.798   3.518  0.3920  0.4576  1.5864
17726SOL    HW254620   6.972   5.705   3.620 -1.6368  0.8111  0.7138
17727SOL     OW54621   1.185   3.481   3.744 -0.7131  0.3116 -0.2316
17727SOL    HW154622   1.093   3.459   3.728 -0.6628 -0.7709  0.7376
17727SOL    HW254623   1.227   3.474   3.659 -1.0109 -2.0940 -0.2680
17728SOL     OW54624   0.392   6.725   3.592 -0.2611  0.1711 -0.2008
17728SOL    HW154625   0.369   6.639   3.556 -3.5739  0.5197  0.6983
17728SOL    HW254626   0.352   6.788   3.533  2.6119  1.2573 -1.1738
17729SOL     OW54627   4.702   1.905   1.958 -0.0708 -0.3718 -0.0809
17729SOL    HW154628   4.735   1.882   1.872 -0.5689 -1.6479  0.0428
17729SOL    HW254629   4.672   1.995   1.949 -0.5998 -0.6479 -1.4021
17730SOL     OW54630   5.431   4.613   7.120 -0.0387  0.1328 -0.0685
17730SOL    HW154631   5.501   4.564   7.163  0.2157  1.5002  1.1438
17730SOL    HW254632   5.352   4.563   7.139  0.4918 -1.0247 -0.8128
17731SOL     OW54633   1.074   6.110   0.289 -0.1430  0.0070 -0.4654
17731SOL    HW154634   1.160   6.103   0.331 -0.3312 -0.0239 -0.0906
17731SOL    HW254635   1.058   6.023   0.253 -0.2785 -0.1486 -0.0322
17732SOL     OW54636   7.071   3.279  12.451  0.4741  0.0799 -0.2028
17732SOL    HW154637   7.013   3.342  12.407  0.9969  0.4371 -0.3937
17732SOL    HW254638   7.012   3.213  12.486 -0.0992  0.7414  0.1055
17733SOL     OW54639   0.564   4.784   8.418  0.6074  0.1668 -0.0345
17733SOL    HW154640   0.568   4.821   8.506  0.0331 -1.3300  0.6503
17733SOL    HW254641   0.629   4.713   8.418  0.3407 -0.0950 -0.6888
17734SOL     OW54642   1.430   5.519   8.735 -0.1135 -0.1924 -0.1757
17734SOL    HW154643   1.413   5.459   8.807 -0.9736  1.2575  0.8885
17734SOL    HW254644   1.402   5.472   8.657  1.1334 -1.9161  0.3545
17735SOL     OW54645   3.556   4.640   8.754 -0.3888 -0.6913 -0.3131
17735SOL    HW154646   3.501   4.597   8.688  0.1723 -0.4275 -0.9573
17735SOL    HW254647   3.527   4.731   8.753 -1.2762 -0.9383  0.7429
17736SOL     OW54648   6.995   7.800   9.215 -0.1311 -0.4217  0.7045
17736SOL    HW154649   6.918   7.753   9.247 -1.2200  1.1477  0.4938
17736SOL    HW254650   7.056   7.731   9.189 -1.7021 -1.7069  0.2797
17737SOL     OW54651   0.647   3.925  10.989 -0.2626  0.0940  0.2056
17737SOL    HW154652   0.629   3.851  11.047  1.7191 -1.7855 -1.4303
17737SOL    HW254653   0.740   3.943  11.000 -0.0151  0.2382 -1.7268
17738SOL     OW54654   7.368   0.507  11.117 -0.2694  0.1890  0.2125
17738SOL    HW154655   7.361   0.523  11.212 -0.4774  0.8813  0.0844
17738SOL    HW254656   7.278   0.514  11.085 -0.1515  0.3203 -0.0932
17739SOL     OW54657   1.075   4.470   1.466  0.4270  0.6839 -0.7201
17739SOL    HW154658   1.157   4.471   1.515 -0.6686 -1.8894  1.3688
17739SOL    HW254659   1.075   4.387   1.419 -2.5748 -1.4672  2.5734
17740SOL     OW54660   7.106   2.147   8.217 -0.1766 -0.1266 -0.0214
17740SOL    HW154661   7.175   2.114   8.276 -0.8591 -0.6060  0.5217
17740SOL    HW254662   7.152   2.206   8.158  0.2237  1.9235  2.2009
17741SOL     OW54663   5.792   1.113   1.507  0.2036 -0.4593  0.7287
17741SOL    HW154664   5.843   1.194   1.516 -1.0569  0.2826  1.4919
17741SOL    HW254665   5.735   1.112   1.584  1.1313 -2.7898  1.4915
17742SOL     OW54666   1.461   2.659   5.939  0.5444  0.1532 -0.1053
17742SOL    HW154667   1.386   2.601   5.954  0.8963 -0.7335 -1.6429
17742SOL    HW254668   1.537   2.603   5.949  0.9844  0.8007  0.2796
17743SOL     OW54669   4.828   6.771  11.466 -0.5347  0.2029  0.1109
17743SOL    HW154670   4.828   6.679  11.494  0.3664 -0.5627 -2.1493
17743SOL    HW254671   4.920   6.798  11.475 -0.6827  0.6837  0.1740
17744SOL     OW54672   3.128   2.254   1.428 -0.2985  0.2377 -0.5893
17744SOL    HW154673   3.175   2.185   1.475 -0.9817 -0.0476 -0.3085
17744SOL    HW254674   3.120   2.325   1.492 -0.4439  0.1919 -0.5536
17745SOL     OW54675   7.609   0.271   3.768 -0.0200  0.1396 -0.2068
17745SOL    HW154676   7.595   0.177   3.763  2.2657 -0.3090  0.4487
17745SOL    HW254677   7.532   0.310   3.725 -0.1885 -2.0612 -2.0890
17746SOL     OW54678   3.992   3.856  10.688  0.4215 -0.3338  0.2998
17746SOL    HW154679   3.992   3.908  10.769 -0.5562  1.0021 -0.5153
17746SOL    HW254680   3.900   3.842  10.667  0.5119  1.6043 -1.9079
17747SOL     OW54681   6.900   4.817  11.778  0.6829 -0.1376  0.2639
17747SOL    HW154682   6.929   4.817  11.686  0.3922  0.6684  0.1683
17747SOL    HW254683   6.814   4.858  11.776  0.2762 -0.9328  0.7873
17748SOL     OW54684   2.500   0.419   5.122 -0.6969  0.1661 -0.1328
17748SOL    HW154685   2.475   0.505   5.088  0.2070  1.3364  1.9530
17748SOL    HW254686   2.596   0.420   5.123 -0.6794 -0.3284  1.0896
17749SOL     OW54687   4.947   3.505   2.019 -0.4225 -0.1974  0.2958
17749SOL    HW154688   4.911   3.437   2.076  0.6466 -0.6349  0.4763
17749SOL    HW254689   5.028   3.467   1.986  0.2759  1.0503  0.5237
17750SOL     OW54690   5.082   7.737   1.650  0.1868  0.0453 -0.3645
17750SOL    HW154691   5.154   7.695   1.697 -0.5911 -0.3749  0.4897
17750SOL    HW254692   5.048   7.668   1.592  1.1202  0.5507 -1.5603
17751SOL     OW54693   1.028   6.827   4.756 -0.0180 -0.4128  0.1219
17751SOL    HW154694   0.977   6.907   4.767 -0.3873 -0.4521 -1.0718
17751SOL    HW254695   0.972   6.772   4.700  0.8838 -0.8828 -0.3301
17752SOL     OW54696   3.237   7.385   3.527  0.1826 -0.1022 -0.5292
17752SOL    HW154697   3.160   7.381   3.583  0.2482 -2.3978 -0.4909
17752SOL    HW254698   3.236   7.473   3.490 -1.7464  0.3275  0.4267
17753SOL     OW54699   0.641   4.076   0.163 -0.7050 -0.1673 -0.1435
17753SOL    HW154700   0.561   4.120   0.193 -1.5543 -1.2436 -0.7427
17753SOL    HW254701   0.617   4.037   0.079  0.6661  0.0616 -0.6653
17754SOL     OW54702   2.271   7.519   1.421  0.0026  0.3267  0.3800
17754SOL    HW154703   2.201   7.496   1.359 -0.2070  3.5542 -0.7658
17754SOL    HW254704   2.341   7.457   1.402 -0.8085 -0.0257 -1.7477
17755SOL     OW54705   0.294   1.299   1.269  0.2330 -0.1155  0.0618
17755SOL    HW154706   0.303   1.248   1.349 -0.5654 -1.2644 -0.5393
17755SOL    HW254707   0.296   1.233   1.199 -1.0569  0.6476 -0.7305
17756SOL     OW54708   0.368   6.548   4.191  0.1630  0.3345 -0.5146
17756SOL    HW154709   0.316   6.625   4.165  0.0851  0.3834 -0.2216
17756SOL    HW254710   0.321   6.474   4.153  0.8369  0.5111 -1.7227
17757SOL     OW54711   3.088   3.633   8.748  0.7627 -0.2470 -0.1744
17757SOL    HW154712   3.139   3.629   8.667  2.3686  2.3069  0.5830
17757SOL    HW254713   3.116   3.557   8.798 -0.2410 -1.8642 -1.9089
17758SOL     OW54714   4.954   6.148  12.076  0.0235 -0.3922  0.5990
17758SOL    HW154715   4.890   6.104  12.131 -0.1460 -0.4602  0.3476
17758SOL    HW254716   4.915   6.232  12.054 -1.3747 -1.6120 -2.0915
17759SOL     OW54717   2.871   7.317  11.871 -0.3125  0.1206  0.0116
17759SOL    HW154718   2.938   7.268  11.919 -1.9826 -1.3679  0.9218
17759SOL    HW254719   2.805   7.338  11.937 -1.5735  0.0128 -1.1759
17760SOL     OW54720   7.567   2.394   6.805 -0.5378 -0.0178  0.1804
17760SOL    HW154721   7.548   2.404   6.898 -1.0244 -0.8922  0.1833
17760SOL    HW254722   7.655   2.356   6.802  0.0655  1.3206  0.2357
17761SOL     OW54723   0.657   2.758   2.802 -0.0199 -0.2167 -0.2222
17761SOL    HW154724   0.678   2.828   2.740  1.4438 -0.9278 -0.5823
17761SOL    HW254725   0.568   2.777   2.832 -0.5858  0.3941 -2.1964
17762SOL     OW54726   5.766   5.007   1.650 -0.2637  0.2866  0.1626
17762SOL    HW154727   5.751   5.100   1.668  0.0545  0.2403  0.6717
17762SOL    HW254728   5.756   4.964   1.734  1.9653  0.1696  0.4291
17763SOL     OW54729   3.775   1.278   3.420  0.2344  0.3917  0.4681
17763SOL    HW154730   3.748   1.250   3.333 -0.3286  0.3589  0.6461
17763SOL    HW254731   3.739   1.367   3.429 -1.2454 -0.2539  1.3194
17764SOL     OW54732   5.219   0.906   9.021 -0.0602  0.5076 -0.3412
17764SOL    HW154733   5.251   0.977   9.077  2.3101  0.4100 -1.4569
17764SOL    HW254734   5.253   0.927   8.934 -1.6391 -0.5880 -1.2585
17765SOL     OW54735   5.218   3.170   8.672 -0.1889  0.3457 -0.3839
17765SOL    HW154736   5.231   3.142   8.581  0.5100 -0.3540 -0.0822
17765SOL    HW254737   5.293   3.226   8.690 -0.4426  0.6590 -0.3084
17766SOL     OW54738   0.659   0.332   0.778  0.1712  0.4220 -0.0163
17766SOL    HW154739   0.591   0.284   0.826  2.1867 -0.7631  1.8496
17766SOL    HW254740   0.642   0.424   0.797  0.4052  0.0235  2.3512
17767SOL     OW54741   6.778   1.253   9.699 -0.5625  0.7279  0.5973
17767SOL    HW154742   6.747   1.288   9.616 -1.8446 -0.0446  0.7302
17767SOL    HW254743   6.783   1.329   9.757 -1.5732  0.9757  0.3696
17768SOL     OW54744   6.699   1.870  10.740  0.2769  0.2328  0.3651
17768SOL    HW154745   6.632   1.932  10.711  1.5548  2.4991  1.9764
17768SOL    HW254746   6.692   1.871  10.836  1.1797 -1.2040  0.4781
17769SOL     OW54747   7.273   0.475   4.947  0.1653 -0.4518  0.6421
17769SOL    HW154748   7.294   0.568   4.956 -0.8776 -0.3317  2.3237
17769SOL    HW254749   7.318   0.434   5.021  0.2077 -1.2228  0.1987
17770SOL     OW54750   2.365   4.284   5.715 -0.0780  0.9107  0.3194
17770SOL    HW154751   2.432   4.281   5.647 -1.3525  1.9426 -1.0388
17770SOL    HW254752   2.398   4.226   5.784  1.9804  1.0479 -0.4914
17771SOL     OW54753   1.457   2.769   4.367 -0.0109  0.2899  0.3869
17771SOL    HW154754   1.446   2.687   4.415 -0.5070 -0.2888 -0.6617
17771SOL    HW254755   1.448   2.838   4.433  0.4654 -0.4960  1.2965
17772SOL     OW54756   3.581   5.065   8.879 -0.1873 -0.2652  0.2070
17772SOL    HW154757   3.590   4.971   8.895  0.5162 -0.2086  0.1764
17772SOL    HW254758   3.629   5.106   8.950  0.4579  0.0487 -0.4056
17773SOL     OW54759   4.179   5.284   4.304 -0.0818  0.6480 -0.2694
17773SOL    HW154760   4.174   5.200   4.258  1.9308  0.0190  0.5773
17773SOL    HW254761   4.132   5.269   4.386  1.0011  0.0354  0.2650
17774SOL     OW54762   1.333   7.307   7.980  0.1731 -0.2623 -0.0559
17774SOL    HW154763   1.423   7.277   7.995 -0.4384 -2.9084 -1.1575
17774SOL    HW254764   1.334   7.343   7.891  0.1250 -0.3593 -0.0955
17775SOL     OW54765   0.526   0.021   3.993  0.4906 -0.4090  0.1558
17775SOL    HW154766   0.431   0.014   3.977  0.3094 -0.0859  1.0372
17775SOL    HW254767   0.556   0.087   3.932  0.5171 -1.9164 -1.5438
17776SOL     OW54768   4.962   7.814  11.911 -0.5173 -0.6801  0.4175
17776SOL    HW154769   4.953   7.836  11.818  0.3881 -1.3331  0.1654
17776SOL    HW254770   4.873   7.792  11.939 -0.9024  0.1052 -0.1319
17777SOL     OW54771   5.650   1.766   4.568  0.3066  0.1896  0.5097
17777SOL    HW154772   5.639   1.683   4.615  0.3449  0.3148  0.7443
17777SOL    HW254773   5.561   1.789   4.540  0.4999 -0.6987 -0.9039
17778SOL     OW54774   2.448   0.832   3.445 -0.1701 -0.2536 -0.3646
17778SOL    HW154775   2.483   0.821   3.357  0.1839 -1.2261 -0.1182
17778SOL    HW254776   2.487   0.761   3.496  1.8587  1.8681  1.2862
17779SOL     OW54777   6.035   0.109   2.337  0.2623 -0.1172  0.3655
17779SOL    HW154778   5.953   0.112   2.288  2.1649  1.0597 -3.0308
17779SOL    HW254779   6.026   0.178   2.403 -1.9701 -1.0362  1.1288
17780SOL     OW54780   5.628   6.253   7.689 -0.1511  0.0732  0.4020
17780SOL    HW154781   5.653   6.305   7.765 -1.2728 -2.0520  2.3490
17780SOL    HW254782   5.670   6.168   7.704 -2.3597 -1.1695 -0.0692
17781SOL     OW54783   0.196   2.784   8.602 -0.3525  0.0358  0.3061
17781SOL    HW154784   0.233   2.740   8.678  0.6176 -0.4434 -0.4215
17781SOL    HW254785   0.269   2.791   8.540 -0.9775  0.9336 -0.3533
17782SOL     OW54786   5.302   6.436   4.847 -0.2226 -0.0024 -0.2004
17782SOL    HW154787   5.337   6.373   4.784 -0.8221  0.5634 -1.1259
17782SOL    HW254788   5.208   6.439   4.829 -0.2107  1.1549 -0.1971
17783SOL     OW54789   7.585   1.725   8.174  0.2292 -0.2969  0.4645
17783SOL    HW154790   7.552   1.638   8.197 -0.6877 -0.2579 -0.6501
17783SOL    HW254791   7.678   1.710   8.153  0.4815 -0.7232  1.7788
17784SOL     OW54792   0.182   6.677  11.836  0.0160 -0.1600  0.4645
17784SOL    HW154793   0.162   6.663  11.744  2.6631 -0.3034 -0.1666
17784SOL    HW254794   0.244   6.750  11.836  0.3186 -0.3728  2.1009
17785SOL     OW54795   4.478   7.255   6.677 -0.5090 -0.1478  0.2083
17785SOL    HW154796   4.561   7.299   6.698 -1.0560  0.6980  0.6344
17785SOL    HW254797   4.505   7.170   6.641  0.5335 -0.2555  1.1836
17786SOL     OW54798   2.259   5.158   0.817 -0.1879  1.0387 -0.6856
17786SOL    HW154799   2.194   5.139   0.749 -0.0526 -1.3321 -0.2475
17786SOL    HW254800   2.344   5.149   0.772 -0.0874 -0.8485 -0.2295
17787SOL     OW54801   6.034   3.612   1.074  0.0600 -0.7465  0.0954
17787SOL    HW154802   6.022   3.698   1.034 -0.8119 -1.0487 -0.3285
17787SOL    HW254803   6.058   3.555   1.000  0.6764 -0.8596  0.3792
17788SOL     OW54804   7.543   1.866   3.833  0.0107  0.1171 -0.4750
17788SOL    HW154805   7.590   1.842   3.753  2.3182  1.4095  0.3771
17788SOL    HW254806   7.552   1.790   3.890  2.4798  0.8055  0.1963
17789SOL     OW54807   4.166   6.654   5.282 -0.5238 -0.1753 -0.2139
17789SOL    HW154808   4.205   6.582   5.233  0.5857 -0.3751  0.9126
17789SOL    HW254809   4.199   6.733   5.240  1.6432 -0.3264  1.0222
17790SOL     OW54810   7.447   4.845   1.925  0.2133 -0.0232  0.4294
17790SOL    HW154811   7.488   4.804   2.001  0.4100 -0.9262 -0.1516
17790SOL    HW254812   7.520   4.860   1.865  0.2037  1.5330  0.7744
17791SOL     OW54813   3.572   7.967   6.812  0.7496  0.2219  0.0692
17791SOL    HW154814   3.660   8.004   6.815  0.1121  2.0014 -1.4992
17791SOL    HW254815   3.560   7.941   6.720 -0.3451 -0.0615  0.2783
17792SOL     OW54816   4.336   1.846   9.205 -0.0300  0.1888 -0.0251
17792SOL    HW154817   4.391   1.919   9.177 -0.1382  0.9353  1.6503
17792SOL    HW254818   4.334   1.788   9.128  2.9186  0.1971 -0.2271
17793SOL     OW54819   6.250   7.251  12.341 -0.0332 -0.4586 -0.0967
17793SOL    HW154820   6.283   7.260  12.430 -0.1667 -1.3060  0.0469
17793SOL    HW254821   6.258   7.339  12.303  2.8200 -0.6718 -0.2327
17794SOL     OW54822   2.953   4.761  11.626  0.0440  0.6184 -0.1995
17794SOL    HW154823   2.890   4.775  11.555 -0.4311  0.3666  0.1636
17794SOL    HW254824   2.900   4.729  11.699  0.6629 -0.0601 -0.0338
17795SOL     OW54825   3.192   7.035   6.466 -0.1005 -0.0809 -0.4214
17795SOL    HW154826   3.278   7.033   6.508 -0.9847 -0.6887  1.4750
17795SOL    HW254827   3.169   7.127   6.462  0.1630  0.0067  0.0935
17796SOL     OW54828   4.379   2.073   3.645 -0.4249  0.0482 -0.1150
17796SOL    HW154829   4.391   2.162   3.679 -2.2700  0.3593 -0.1691
17796SOL    HW254830   4.385   2.017   3.723  2.8886 -0.1057 -0.3200
17797SOL     OW54831   3.577   4.961   5.244  0.1393 -0.0133  0.2552
17797SOL    HW154832   3.506   4.991   5.187  0.0317  0.7914  0.8013
17797SOL    HW254833   3.542   4.971   5.332  0.9335  0.3616  0.5302
17798SOL     OW54834   7.019   3.919  11.065  0.0318  0.0909  0.0901
17798SOL    HW154835   7.030   4.005  11.105  0.2036  0.8318 -1.4609
17798SOL    HW254836   6.978   3.866  11.133 -0.3560  1.4755  0.9859
17799SOL     OW54837   4.597   4.678   2.063 -0.4895  0.2778 -0.2036
17799SOL    HW154838   4.514   4.723   2.076 -0.5295 -0.2796  1.8970
17799SOL    HW254839   4.651   4.741   2.014 -2.3497  0.3314 -2.3372
17800SOL     OW54840   5.768   7.395   2.325 -0.4891  0.8042 -0.2257
17800SOL    HW154841   5.831   7.334   2.363 -0.4506 -0.4459 -2.1047
17800SOL    HW254842   5.687   7.379   2.373  0.1602  1.1761  1.0423
17801SOL     OW54843   7.854   0.354   3.575 -0.1272  0.7131  0.1502
17801SOL    HW154844   7.815   0.336   3.661 -0.2929 -0.3832 -0.1406
17801SOL    HW254845   7.948   0.343   3.588 -0.2738 -1.2500 -0.1968
17802SOL     OW54846   0.223   3.289   7.325 -0.2961  0.0958  0.2499
17802SOL    HW154847   0.190   3.313   7.239 -0.3104 -0.3062  0.1422
17802SOL    HW254848   0.254   3.372   7.363  2.3023 -0.0951 -1.2377
17803SOL     OW54849   4.348   2.223   5.111  0.4009 -0.9305  0.1468
17803SOL    HW154850   4.323   2.267   5.030 -2.1450  0.4008  1.5389
17803SOL    HW254851   4.378   2.137   5.083 -0.6053 -0.5963 -2.2044
17804SOL     OW54852   0.345   7.539   1.385 -0.1566  0.5591 -0.2595
17804SOL    HW154853   0.371   7.467   1.443 -1.3037 -1.3666 -2.0217
17804SOL    HW254854   0.427   7.569   1.346  0.2861 -0.1282  0.1138
17805SOL     OW54855   6.346   7.323   2.531  0.2950  0.1008  0.2943
17805SOL    HW154856   6.438   7.300   2.522  0.7750  1.5150  1.2811
17805SOL    HW254857   6.302   7.240   2.549  1.1761 -0.7668 -1.3616
17806SOL     OW54858   2.209   0.638   8.779 -0.3232 -0.1213 -0.0929
17806SOL    HW154859   2.266   0.588   8.720 -0.0755 -0.4530  0.4265
17806SOL    HW254860   2.265   0.659   8.854 -1.0393 -0.9162  0.6689
17807SOL     OW54861   6.563   3.595  10.337  0.3454 -0.4972 -0.0084
17807SOL    HW154862   6.473   3.594  10.371  0.0226 -1.6070 -0.7838
17807SOL    HW254863   6.613   3.645  10.400 -0.2610 -2.2209  1.9671
17808SOL     OW54864   3.290   0.326   7.148  0.3602 -0.4970 -0.0040
17808SOL    HW154865   3.305   0.287   7.062  2.2797 -1.3197  0.6603
17808SOL    HW254866   3.338   0.271   7.209 -1.8986 -0.6432  1.8106
17809SOL     OW54867   6.913   5.872  11.998  0.3106  0.0684 -0.3418
17809SOL    HW154868   6.831   5.866  12.048 -0.7129  2.6471 -1.5127
17809SOL    HW254869   6.948   5.958  12.020  0.4363  0.8057 -3.0881
17810SOL     OW54870   4.193   7.327   5.383 -0.3860  0.2342 -0.2766
17810SOL    HW154871   4.103   7.295   5.393  0.2957 -1.3971  1.1494
17810SOL    HW254872   4.218   7.355   5.471  0.5888  0.4701 -0.6216
17811SOL     OW54873   0.945   4.630   7.031 -0.1939 -0.0819 -0.4395
17811SOL    HW154874   1.025   4.628   7.084 -0.1558 -4.1277 -0.3906
17811SOL    HW254875   0.976   4.631   6.941 -0.0849 -0.7818 -0.4139
17812SOL     OW54876   1.146   5.555   0.268  0.0484 -0.0306 -0.6138
17812SOL    HW154877   1.219   5.617   0.258 -0.9958  1.2732 -0.4313
17812SOL    HW254878   1.152   5.527   0.359 -1.4285  2.4587  0.3563
17813SOL     OW54879   3.577   1.924   8.258  0.1494  0.3962 -0.3138
17813SOL    HW154880   3.645   1.987   8.283  0.3880  0.1431 -0.3094
17813SOL    HW254881   3.558   1.944   8.167  2.4426 -1.4438 -1.3304
17814SOL     OW54882   5.991   5.392   1.766  0.1937  0.5423 -0.7296
17814SOL    HW154883   6.066   5.435   1.725  0.3084  0.8568 -0.2057
17814SOL    HW254884   6.030   5.326   1.824  0.0430  0.2973 -0.9023
17815SOL     OW54885   3.893   7.104   5.901 -0.1718 -0.1324 -0.2022
17815SOL    HW154886   3.805   7.077   5.927  0.0295  0.5926  1.3623
17815SOL    HW254887   3.940   7.115   5.984  1.9464 -2.1716 -1.0149
17816SOL     OW54888   2.986   2.700   8.685 -0.0120 -0.4297 -0.0104
17816SOL    HW154889   3.061   2.739   8.729  0.3820 -1.5090  0.2918
17816SOL    HW254890   2.910   2.730   8.735  0.2428  0.2777 -0.0329
17817SOL     OW54891   2.906   3.161   2.532 -0.1341  0.1697 -0.2569
17817SOL    HW154892   2.891   3.090   2.595 -0.7544 -0.3143 -0.9301
17817SOL    HW254893   2.981   3.208   2.567  0.2172 -0.7490  0.2744
17818SOL     OW54894   4.225   7.685   1.146  0.1066  0.0807  0.7214
17818SOL    HW154895   4.141   7.672   1.102  0.8690  1.0300 -1.1703
17818SOL    HW254896   4.211   7.762   1.201 -0.1609  0.5521  0.0218
17819SOL     OW54897   7.189   4.580   8.517  0.4331 -0.4759  0.4531
17819SOL    HW154898   7.128   4.608   8.448  1.1813 -0.2759 -0.1411
17819SOL    HW254899   7.165   4.634   8.592 -0.2062 -0.4910  0.2723
17820SOL     OW54900   3.769   6.132   5.810  0.2579  0.4586  0.1312
17820SOL    HW154901   3.723   6.078   5.875  2.4347 -0.1640  1.2807
17820SOL    HW254902   3.853   6.151   5.851  1.0994  1.3935 -1.9039
17821SOL     OW54903   7.750   6.753  10.641  0.1248  0.2445  0.9765
17821SOL    HW154904   7.678   6.807  10.609  0.8564  0.4752 -0.3573
17821SOL    HW254905   7.824   6.775  10.584  1.1182 -0.3627  1.9790
17822SOL     OW54906   3.664   6.095   4.857  0.5160  0.4406  0.4644
17822SOL    HW154907   3.650   6.165   4.921 -2.9631 -0.7531  1.1997
17822SOL    HW254908   3.577   6.064   4.836  1.6900 -0.8358 -3.1588
17823SOL     OW54909   0.745   3.510   8.513  0.6949 -0.3301  0.3554
17823SOL    HW154910   0.761   3.454   8.436  0.4653  2.0617 -1.5490
17823SOL    HW254911   0.831   3.524   8.551  0.5008 -4.7494  3.1671
17824SOL     OW54912   5.371   5.989   2.631  0.2546  0.0375  0.2054
17824SOL    HW154913   5.316   6.064   2.654 -0.5700 -0.3946 -0.2870
17824SOL    HW254914   5.308   5.922   2.604  1.0492 -0.3992 -0.5737
17825SOL     OW54915   4.246   4.565   7.775 -0.2729 -0.1836 -0.5333
17825SOL    HW154916   4.227   4.478   7.810  0.1093 -0.5186 -1.1386
17825SOL    HW254917   4.173   4.620   7.806  0.0764 -0.4468  0.8034
17826SOL     OW54918   2.126   1.557   8.096 -0.3451  0.4295  0.0496
17826SOL    HW154919   2.129   1.582   8.004 -0.7928 -2.5040 -0.8836
17826SOL    HW254920   2.214   1.577   8.129 -0.2862  1.8539 -0.8779
17827SOL     OW54921   4.871   7.526   4.336  0.7516 -0.1190 -0.2778
17827SOL    HW154922   4.882   7.439   4.372 -0.2187 -0.4540 -0.7477
17827SOL    HW254923   4.797   7.518   4.275  0.0510  1.2220  0.3351
17828SOL     OW54924   0.090   0.592   9.724  0.3556 -0.2860  0.4618
17828SOL    HW154925   0.017   0.635   9.766 -1.3933 -0.7652 -1.8690
17828SOL    HW254926   0.119   0.653   9.656 -0.9836 -1.9154 -1.6864
17829SOL     OW54927   2.415   0.986   6.430  0.0512 -0.2139  0.2953
17829SOL    HW154928   2.480   1.027   6.487  0.2665 -0.2298  0.0673
17829SOL    HW254929   2.359   1.058   6.401  1.6429  0.3233 -1.7276
17830SOL     OW54930   5.553   3.764   5.825 -0.7546 -0.3285 -0.5982
17830SOL    HW154931   5.564   3.725   5.912 -0.1749  0.2230 -0.4152
17830SOL    HW254932   5.468   3.807   5.829 -0.6164 -0.0866 -0.2165
17831SOL     OW54933   3.668   1.058  11.108 -0.1770  0.0527 -0.1117
17831SOL    HW154934   3.629   1.070  11.021 -0.9024  0.8125  0.3066
17831SOL    HW254935   3.738   1.124  11.112 -1.0310  0.9575  0.3758
17832SOL     OW54936   6.043   3.782   9.146  0.1042 -0.1947  0.2113
17832SOL    HW154937   6.033   3.818   9.234 -1.5505 -0.7693  0.2961
17832SOL    HW254938   5.954   3.776   9.112  0.6691 -0.4557 -1.3299
17833SOL     OW54939   2.503   4.500  12.349 -0.0230  0.5731  0.0503
17833SOL    HW154940   2.546   4.415  12.343 -0.5217  0.4020 -2.2675
17833SOL    HW254941   2.572   4.563  12.325  0.3116  0.8490  1.6358
17834SOL     OW54942   6.189   3.690   8.558 -0.0678 -0.7302 -0.1173
17834SOL    HW154943   6.144   3.701   8.642  0.2691 -0.2874  0.0113
17834SOL    HW254944   6.126   3.721   8.493 -0.6366 -1.8212 -0.1098
17835SOL     OW54945   0.687   5.298  10.181  0.1344  0.2061  0.2499
17835SOL    HW154946   0.703   5.329  10.270 -0.5746  0.4748  0.2915
17835SOL    HW254947   0.726   5.366  10.125  2.5707 -1.0170  0.3166
17836SOL     OW54948   6.098   1.232  11.744  1.0867 -0.2825 -0.0430
17836SOL    HW154949   6.124   1.282  11.667 -0.9110  0.1183 -0.5027
17836SOL    HW254950   6.108   1.140  11.718  0.0284 -0.1528 -0.9380
17837SOL     OW54951   4.671   1.576   7.340 -0.2067  0.0880 -0.3791
17837SOL    HW154952   4.730   1.612   7.273 -1.0572  1.4002 -0.4464
17837SOL    HW254953   4.726   1.515   7.389  0.2705 -1.5397 -2.7277
17838SOL     OW54954   2.389   1.899   1.492 -0.2704  0.7437  0.4270
17838SOL    HW154955   2.358   1.960   1.425 -0.5624 -0.8033 -0.9077
17838SOL    HW254956   2.470   1.862   1.456 -0.0001  0.4763  1.2821
17839SOL     OW54957   4.086   2.063   3.098  0.2526 -0.5783 -0.2823
17839SOL    HW154958   3.996   2.094   3.107 -0.1873 -1.9470  0.2974
17839SOL    HW254959   4.119   2.108   3.021 -1.4643 -1.2534 -1.4757
17840SOL     OW54960   0.881   6.733   8.709  0.0608  0.0353  0.1370
17840SOL    HW154961   0.870   6.694   8.796 -0.9011  1.4885  0.7071
17840SOL    HW254962   0.970   6.769   8.710 -0.1858  0.6652  0.8092
17841SOL     OW54963   2.169   3.684   1.396 -0.3998  0.5420 -0.4080
17841SOL    HW154964   2.155   3.733   1.316  0.5937 -0.5134 -1.2644
17841SOL    HW254965   2.263   3.691   1.413  0.1570 -2.4892 -1.5938
17842SOL     OW54966   3.714   4.249   0.144 -0.0965 -0.6774 -0.5059
17842SOL    HW154967   3.668   4.297   0.212  1.7935 -0.1166  0.4541
17842SOL    HW254968   3.781   4.199   0.191  2.2539  0.8684 -1.9758
17843SOL     OW54969   6.913   6.898   6.176  0.1330 -0.0058  0.7967
17843SOL    HW154970   6.938   6.809   6.152  2.9370  0.9420 -0.2932
17843SOL    HW254971   6.953   6.953   6.108 -0.5606  2.1578  2.0428
17844SOL     OW54972   2.060   2.728   8.501  0.2106 -0.2049 -0.9353
17844SOL    HW154973   2.068   2.642   8.459 -1.9974 -1.1841  0.4687
17844SOL    HW254974   2.032   2.709   8.590 -0.9208  1.9926 -0.7625
17845SOL     OW54975   4.385   5.406   8.328  0.0151  0.3289 -0.5274
17845SOL    HW154976   4.449   5.476   8.320  0.6962 -0.2914 -0.5656
17845SOL    HW254977   4.315   5.444   8.382  0.9461  0.6337  0.4882
17846SOL     OW54978   3.056   1.363   8.478 -0.1938 -0.5766 -0.1375
17846SOL    HW154979   3.115   1.419   8.529 -0.2234  0.6505 -1.3842
17846SOL    HW254980   3.038   1.289   8.535 -1.6311  1.5311  2.3657
17847SOL     OW54981   2.675   7.648  10.632 -0.5197 -0.2003 -0.0476
17847SOL    HW154982   2.600   7.705  10.647  0.0215  0.1070  1.7053
17847SOL    HW254983   2.653   7.566  10.676  0.2689 -0.0089  0.7340
17848SOL     OW54984   3.693   3.323   4.361  0.1161  0.4911  0.1630
17848SOL    HW154985   3.612   3.373   4.360  0.5960  1.2975 -0.9033
17848SOL    HW254986   3.721   3.325   4.453  0.4695  2.8292  0.0801
17849SOL     OW54987   1.978   6.563   2.479  0.2853 -0.1509 -0.0714
17849SOL    HW154988   1.924   6.573   2.401 -1.1696 -0.3642  0.8652
17849SOL    HW254989   1.935   6.617   2.545  1.3839 -0.1170  0.6480
17850SOL     OW54990   1.113   5.827   3.833 -0.2970 -0.3030  0.4564
17850SOL    HW154991   1.123   5.741   3.874 -3.4787 -0.8000  0.4054
17850SOL    HW254992   1.082   5.808   3.745 -0.1506  0.8991  0.1310
17851SOL     OW54993   2.421   6.875   1.878  0.6443  0.6056  0.1339
17851SOL    HW154994   2.413   6.782   1.899  1.1097 -0.1293 -2.6152
17851SOL    HW254995   2.439   6.917   1.962  1.5901 -1.9101  1.2803
17852SOL     OW54996   6.100   1.169   2.494  0.3457 -0.1592  0.4022
17852SOL    HW154997   6.037   1.097   2.492 -0.5737  0.6313 -1.1958
17852SOL    HW254998   6.093   1.204   2.583 -2.8056  0.9619 -0.1319
17853SOL     OW54999   2.031   2.374  12.236  0.7788  0.6711  0.0947
17853SOL    HW155000   2.041   2.403  12.326 -0.8135  1.9163 -0.0894
17853SOL    HW255001   1.982   2.444  12.193  0.7799 -0.2696 -1.5397
17854SOL     OW55002   2.825   6.018  11.999 -0.2663  0.4670 -0.3576
17854SOL    HW155003   2.755   5.965  11.961 -0.0927  0.6509 -0.9464
17854SOL    HW255004   2.812   6.105  11.962 -0.3173  0.7436  0.3053
17855SOL     OW55005   3.250   1.818   3.124 -0.4546 -0.0629 -0.3210
17855SOL    HW155006   3.248   1.745   3.186  0.2295  0.9162  0.8963
17855SOL    HW255007   3.176   1.873   3.151 -0.3144  0.2340 -0.5470
17856SOL     OW55008   6.012   0.555   7.493 -0.1208 -0.4605 -0.5168
17856SOL    HW155009   5.972   0.636   7.523 -0.5316 -1.5772  2.2793
17856SOL    HW255010   6.105   0.566   7.509 -0.3463 -1.0843  1.4924
17857SOL     OW55011   4.437   6.150   5.182 -0.0751  0.5698  0.3891
17857SOL    HW155012   4.463   6.114   5.266 -2.3146 -0.3048  0.7613
17857SOL    HW255013   4.467   6.086   5.118 -2.4688 -1.1753  0.9168
17858SOL     OW55014   5.310   0.763   9.661  0.1189  1.0740 -0.1673
17858SOL    HW155015   5.394   0.806   9.678 -0.0078  1.7563 -1.1726
17858SOL    HW255016   5.330   0.698   9.593 -0.2744  1.6797 -0.8777
17859SOL     OW55017   4.324   0.866   7.007  0.6888 -0.4886 -0.4151
17859SOL    HW155018   4.258   0.807   7.045  0.6318 -0.6818 -0.8088
17859SOL    HW255019   4.293   0.883   6.919 -0.7625  2.3879  0.5473
17860SOL     OW55020   5.552   0.292   6.326  0.1753 -0.1456 -0.6682
17860SOL    HW155021   5.489   0.289   6.399 -0.1004 -0.9456 -0.9283
17860SOL    HW255022   5.605   0.214   6.337 -0.6362 -0.9201 -2.0000
17861SOL     OW55023   4.503   2.410   4.932  0.2802  0.4224  0.1129
17861SOL    HW155024   4.506   2.497   4.972 -1.4628  0.0503  1.1075
17861SOL    HW255025   4.419   2.407   4.888  0.3148 -0.7910  0.1203
17862SOL     OW55026   4.380   4.990   5.307  0.0158  0.5914  0.1541
17862SOL    HW155027   4.446   4.927   5.338  0.9518  2.3422  1.9870
17862SOL    HW255028   4.310   4.986   5.373  0.6662  2.2675  1.0274
17863SOL     OW55029   7.388   3.753   5.606  0.3957 -0.1267  0.0546
17863SOL    HW155030   7.351   3.710   5.682  1.8357  0.5061  1.1566
17863SOL    HW255031   7.321   3.815   5.577 -0.8370 -1.5662 -0.2665
17864SOL     OW55032   4.157   3.522   6.305  0.2715 -0.5326  0.3859
17864SOL    HW155033   4.200   3.444   6.271  2.1772  0.4869  0.2897
17864SOL    HW255034   4.225   3.567   6.356 -0.3561  1.7061 -0.6209
17865SOL     OW55035   0.242   5.683   6.791 -0.7216  0.1846  0.6318
17865SOL    HW155036   0.198   5.766   6.808 -1.2356  0.1223 -0.3248
17865SOL    HW255037   0.297   5.700   6.714 -0.3806 -0.1968  0.7891
17866SOL     OW55038   3.468   6.687  12.319 -0.6942 -0.5270 -0.8964
17866SOL    HW155039   3.402   6.632  12.276 -0.2611 -0.3922 -1.7449
17866SOL    HW255040   3.464   6.770  12.272 -0.9391 -0.0136  0.0093
17867SOL     OW55041   4.969   5.495  10.993  0.5104 -0.5217  0.0480
17867SOL    HW155042   4.880   5.488  10.959  1.3612 -1.1553 -2.1594
17867SOL    HW255043   4.973   5.429  11.063 -0.5513 -0.9011 -0.2288
17868SOL     OW55044   4.373   4.724  10.582  0.3842 -0.2670 -0.3269
17868SOL    HW155045   4.357   4.784  10.509  0.7496  0.3894  0.1168
17868SOL    HW255046   4.465   4.739  10.606  0.4960 -1.0480 -0.2406
17869SOL     OW55047   5.391   2.031   8.172  0.6481 -0.1445  0.1525
17869SOL    HW155048   5.381   2.121   8.205  0.8521 -0.0858  0.0585
17869SOL    HW255049   5.423   2.042   8.082  2.2701 -0.3175  0.6662
17870SOL     OW55050   7.323   0.590  10.822  0.3394 -0.2009 -0.1511
17870SOL    HW155051   7.287   0.524  10.880  1.1683  1.1610  2.0507
17870SOL    HW255052   7.418   0.584  10.836  0.5434  0.2877 -1.2464
17871SOL     OW55053   0.153   4.581   6.420  0.3797 -0.2663 -0.2104
17871SOL    HW155054   0.169   4.490   6.447 -1.6556 -0.4981  0.3424
17871SOL    HW255055   0.225   4.631   6.459  0.5728 -1.3957  0.9264
17872SOL     OW55056   6.306   1.867   0.386 -0.3185 -0.4341 -0.2767
17872SOL    HW155057   6.224   1.901   0.420  0.4143  0.5645  0.5376
17872SOL    HW255058   6.374   1.910   0.437  0.7973  0.2163 -2.1964
17873SOL     OW55059   1.206   3.925   7.537 -0.5873  0.8456 -0.0726
17873SOL    HW155060   1.289   3.885   7.510 -1.1239 -0.5492  0.2530
17873SOL    HW255061   1.168   3.958   7.455 -0.4486  0.0381 -0.4800
17874SOL     OW55062   1.183   3.163  10.484  0.3090  0.0762 -0.1723
17874SOL    HW155063   1.165   3.244  10.437 -0.9578 -0.3687 -0.4795
17874SOL    HW255064   1.262   3.128  10.442  0.0278  0.4210 -1.0066
17875SOL     OW55065   3.182   3.764   4.607 -0.0769 -0.4352 -0.4324
17875SOL    HW155066   3.133   3.685   4.587  0.3474 -0.9839  0.5981
17875SOL    HW255067   3.214   3.795   4.523 -2.3358  0.0649 -1.1608
17876SOL     OW55068   2.765   7.938   4.651 -0.0381  0.2451  0.8360
17876SOL    HW155069   2.812   7.931   4.568 -0.9572 -1.8126  0.4128
17876SOL    HW255070   2.697   8.004   4.635  0.8659  1.1133  0.5284
17877SOL     OW55071   4.581   4.459  12.082  0.2453 -0.0630 -0.0276
17877SOL    HW155072   4.606   4.434  11.993 -1.2002  0.9440 -0.7446
17877SOL    HW255073   4.534   4.384  12.116  2.4594 -1.2341  0.6548
17878SOL     OW55074   6.063   1.544   3.284  0.1642 -0.1170  0.1358
17878SOL    HW155075   6.018   1.507   3.360  0.3861 -0.2804  0.1883
17878SOL    HW255076   6.066   1.638   3.301  0.8720 -0.2296  0.6872
17879SOL     OW55077   3.085   3.742   7.489 -0.2590  0.5475 -0.0180
17879SOL    HW155078   3.028   3.697   7.550 -0.7733  1.1985 -0.0072
17879SOL    HW255079   3.167   3.753   7.537  0.2638 -1.3342 -0.4121
17880SOL     OW55080   4.613   0.097   2.460 -0.4970  0.8573 -0.3583
17880SOL    HW155081   4.542   0.161   2.449  0.0144  1.5326  0.2484
17880SOL    HW255082   4.661   0.126   2.537 -0.8311 -0.8189  0.5279
17881SOL     OW55083   2.064   1.770  12.372  0.7742 -0.2974 -0.0714
17881SOL    HW155084   2.134   1.773  12.308  0.1504  1.5005 -0.7527
17881SOL    HW255085   1.991   1.727  12.326  1.1364 -1.3602  0.3341
17882SOL     OW55086   6.083   3.463   9.634  0.2917  0.0042 -0.6116
17882SOL    HW155087   6.073   3.426   9.546  2.0251 -0.4370 -0.6456
17882SOL    HW255088   6.109   3.554   9.619 -1.1482  0.4692 -0.5157
17883SOL     OW55089   6.979   6.027   1.258  1.0553 -0.1896  0.5403
17883SOL    HW155090   6.996   6.106   1.309 -0.9617  1.0242 -0.5717
17883SOL    HW255091   7.009   6.047   1.170  0.0383 -0.4410  0.1209
17884SOL     OW55092   0.425   6.523   5.519  0.1915 -0.4057  0.2171
17884SOL    HW155093   0.420   6.518   5.424 -0.3976  3.4904 -0.1427
17884SOL    HW255094   0.516   6.501   5.540  0.7040  0.0630 -1.4148
17885SOL     OW55095   5.751   3.585   8.022 -0.0428 -0.6767  0.0487
17885SOL    HW155096   5.706   3.635   8.090 -1.1546 -1.1741 -0.3029
17885SOL    HW255097   5.831   3.553   8.065 -1.3748 -2.1392  1.5960
17886SOL     OW55098   7.102   2.612   4.757  0.1240 -0.0026 -0.5536
17886SOL    HW155099   7.059   2.638   4.675  0.2890 -0.3800 -0.7631
17886SOL    HW255100   7.031   2.577   4.811 -0.1002  0.8896 -0.2636
17887SOL     OW55101   3.748   2.098  11.998  0.1861  0.1908  0.1069
17887SOL    HW155102   3.706   2.057  11.923 -0.8544 -1.0651  1.3085
17887SOL    HW255103   3.761   2.189  11.972 -0.6643 -0.0815 -1.3753
17888SOL     OW55104   1.480   4.805   3.366 -0.2584  0.3844 -0.0770
17888SOL    HW155105   1.395   4.847   3.383 -1.0586 -0.7325 -1.1545
17888SOL    HW255106   1.502   4.760   3.447 -0.2670  1.3535  0.4864
17889SOL     OW55107   7.127   6.649   1.735  0.0476 -0.4270  0.4471
17889SOL    HW155108   7.162   6.732   1.768 -1.0684  0.3540 -0.2544
17889SOL    HW255109   7.085   6.609   1.811 -0.4082  0.2083  0.5421
17890SOL     OW55110   4.350   7.595  12.265 -0.3633 -0.0458  0.2904
17890SOL    HW155111   4.440   7.568  12.246 -1.1554 -1.9336 -1.0851
17890SOL    HW255112   4.313   7.521  12.314 -2.0332 -0.7509 -1.8546
17891SOL     OW55113   4.684   5.465  10.794  0.4353  0.0738 -0.1060
17891SOL    HW155114   4.754   5.455  10.730  0.5007  0.2960 -0.0718
17891SOL    HW255115   4.619   5.398  10.770  0.8283 -0.3811  0.0934
17892SOL     OW55116   6.450   4.425  10.613 -0.0560  0.4683  0.1873
17892SOL    HW155117   6.482   4.340  10.582 -0.8390  0.7077 -1.3492
17892SOL    HW255118   6.361   4.408  10.643 -0.9883  1.0620 -2.0244
17893SOL     OW55119   7.056   1.064   4.482 -0.5456  0.1042  0.2443
17893SOL    HW155120   7.030   0.974   4.459  1.2988 -0.3904 -0.1381
17893SOL    HW255121   7.075   1.060   4.575 -0.9110  0.2204  0.3244
17894SOL     OW55122   7.443   1.004  10.189 -0.2391 -0.6924 -0.1187
17894SOL    HW155123   7.471   1.011  10.281  1.0791  2.9387 -0.6290
17894SOL    HW255124   7.504   0.941  10.151  0.6862 -0.5523  1.0404
17895SOL     OW55125   1.974   4.966   3.953 -0.0494  0.8201 -0.4536
17895SOL    HW155126   2.069   4.971   3.960 -0.2234  4.2053  1.2716
17895SOL    HW255127   1.943   4.958   4.044 -1.4105  2.8213 -0.6661
17896SOL     OW55128   4.309   6.934   6.458 -0.0334 -0.7286  0.0433
17896SOL    HW155129   4.230   6.952   6.510  0.3983  1.1596  0.1219
17896SOL    HW255130   4.305   6.997   6.387  2.8940  1.6040  1.7102
17897SOL     OW55131   5.500   0.653   5.196  0.3709  0.0671  0.0014
17897SOL    HW155132   5.497   0.633   5.290  0.8185  0.2732  0.0591
17897SOL    HW255133   5.477   0.745   5.191 -2.6929 -0.5870 -0.3405
17898SOL     OW55134   4.691   3.326   5.315 -0.2665 -0.2217  0.4227
17898SOL    HW155135   4.637   3.393   5.273 -0.3766 -1.5349 -1.6508
17898SOL    HW255136   4.773   3.371   5.335 -0.4150  0.6154 -0.7269
17899SOL     OW55137   7.510   1.660   9.601  0.2243  0.2960 -0.4019
17899SOL    HW155138   7.496   1.565   9.599  1.4648  0.1066 -0.9162
17899SOL    HW255139   7.455   1.694   9.531 -0.6841  0.0357  0.1677
17900SOL     OW55140   7.052   3.839   5.835 -0.5211  0.0019 -0.4282
17900SOL    HW155141   7.039   3.820   5.928 -2.3972  0.3922 -0.5679
17900SOL    HW255142   7.046   3.754   5.792 -1.4735  0.0049 -0.3384
17901SOL     OW55143   4.362   6.527   6.644 -0.2420 -0.1461 -0.0853
17901SOL    HW155144   4.400   6.612   6.664 -0.6240 -0.3599  1.7305
17901SOL    HW255145   4.277   6.548   6.605 -0.0127  0.3002 -0.3542
17902SOL     OW55146   2.789   7.602   7.243 -0.2858  0.5700 -0.1075
17902SOL    HW155147   2.708   7.565   7.278 -1.0444  0.6935 -1.6885
17902SOL    HW255148   2.762   7.682   7.199  0.5177  0.0249 -1.6460
17903SOL     OW55149   5.822   7.229   2.954  0.1618 -0.1901 -0.3325
17903SOL    HW155150   5.763   7.180   3.011 -0.1852  1.0846  0.4514
17903SOL    HW255151   5.769   7.301   2.920  1.7684  2.6763  2.5550
17904SOL     OW55152   1.453   0.553  10.969  0.1924 -0.2374  0.6019
17904SOL    HW155153   1.417   0.492  11.034 -1.3567  1.2707  1.2495
17904SOL    HW255154   1.548   0.544  10.977  0.0132 -2.6521  0.5462
17905SOL     OW55155   5.475   3.297   7.746  0.1559 -0.4809  1.0483
17905SOL    HW155156   5.487   3.368   7.810 -0.0050 -0.3543  0.9391
17905SOL    HW255157   5.389   3.261   7.766  0.4957 -1.0643  1.5084
17906SOL     OW55158   6.678   4.490   7.072  0.3773  0.1717 -0.4397
17906SOL    HW155159   6.736   4.557   7.037  1.0889 -0.1306  0.1474
17906SOL    HW255160   6.719   4.407   7.046 -0.6260 -0.0637 -1.3843
17907SOL     OW55161   1.284   2.737   7.097 -0.3812 -0.6249  0.2680
17907SOL    HW155162   1.275   2.696   7.183 -4.0430 -1.2527 -0.2546
17907SOL    HW255163   1.205   2.789   7.086 -0.4148 -1.0949 -2.9686
17908SOL     OW55164   3.239   6.088   2.821 -0.3795 -0.2564 -0.7824
17908SOL    HW155165   3.252   6.057   2.910 -0.0368  0.2491 -0.6505
17908SOL    HW255166   3.308   6.045   2.770  1.1122  1.4331 -0.3168
17909SOL     OW55167   6.328   2.030  10.451  0.1942 -0.0490 -0.1303
17909SOL    HW155168   6.365   1.989  10.529  0.0428 -0.0896 -0.0786
17909SOL    HW255169   6.403   2.060  10.401  0.3581 -1.4633 -0.7628
17910SOL     OW55170   4.561   0.993   4.999  0.3742 -0.0698 -0.1983
17910SOL    HW155171   4.504   1.003   5.075  1.2193 -0.9134  0.5697
17910SOL    HW255172   4.506   0.948   4.934  0.1864 -0.9500  0.5554
17911SOL     OW55173   4.100   7.601   6.273  0.4495  0.3037 -0.1315
17911SOL    HW155174   4.100   7.555   6.189  1.9401  0.9599 -0.5307
17911SOL    HW255175   4.191   7.632   6.283 -0.3265  2.6190  0.4064
17912SOL     OW55176   3.203   7.096   6.074 -0.2700 -0.4845  0.5209
17912SOL    HW155177   3.230   7.030   6.138  0.2572 -1.7056 -0.9190
17912SOL    HW255178   3.230   7.061   5.989  0.4608  1.7945 -0.2680
17913SOL     OW55179   5.473   3.254   8.760  0.1838  0.6606 -0.9534
17913SOL    HW155180   5.459   3.269   8.853  0.2858  0.1172 -0.8495
17913SOL    HW255181   5.534   3.323   8.733  0.5384  0.5212 -0.5115
17914SOL     OW55182   7.745   6.493   1.823 -0.3181 -0.1306 -0.3287
17914SOL    HW155183   7.675   6.524   1.880 -1.2929 -0.6754 -1.1801
17914SOL    HW255184   7.702   6.480   1.738 -0.4385 -4.9458  0.1858
17915SOL     OW55185   0.338   5.968   3.238  0.3502  0.5473 -0.0644
17915SOL    HW155186   0.387   6.043   3.271 -0.0497  0.8313 -0.0982
17915SOL    HW255187   0.289   5.936   3.313 -1.9455  2.2893 -0.6977
17916SOL     OW55188   7.425   6.551   5.373  0.4082 -0.3952 -0.1180
17916SOL    HW155189   7.445   6.494   5.299  2.2971  0.3051 -0.1834
17916SOL    HW255190   7.421   6.492   5.449  1.1873 -0.7581 -0.3573
17917SOL     OW55191   1.607   6.517  11.549  0.1446  0.0123 -0.0485
17917SOL    HW155192   1.561   6.578  11.491  1.3358  0.0079 -1.0408
17917SOL    HW255193   1.592   6.431  11.510  0.6011 -0.0349 -0.1285
17918SOL     OW55194   6.473   6.497  10.718 -0.1988 -0.1119 -0.1427
17918SOL    HW155195   6.500   6.493  10.626  2.4435  2.5027  0.3565
17918SOL    HW255196   6.533   6.437  10.762  0.7629  1.0574  0.2050
17919SOL     OW55197   7.890   2.500   3.305 -0.3923 -0.2890  0.2210
17919SOL    HW155198   7.943   2.576   3.332 -0.4332 -0.6470  1.3764
17919SOL    HW255199   7.952   2.428   3.301 -0.0807  0.0507 -2.2758
17920SOL     OW55200   5.679   1.013   5.349  0.2198 -0.2321  0.2561
17920SOL    HW155201   5.651   0.949   5.415 -0.5144 -1.2904 -1.0170
17920SOL    HW255202   5.699   1.092   5.398 -1.6615 -0.5382  1.6044
17921SOL     OW55203   7.030   3.282   4.179  1.0262 -0.3476 -0.2112
17921SOL    HW155204   7.018   3.372   4.210  1.3918  0.1973 -1.5576
17921SOL    HW255205   7.125   3.273   4.172  0.9947 -0.9067  0.1121
17922SOL     OW55206   0.816   7.069   4.903 -0.1249  0.2741  0.5920
17922SOL    HW155207   0.735   7.025   4.879  0.4328 -1.2527  1.3883
17922SOL    HW255208   0.789   7.158   4.927 -1.3686  0.1821 -0.4065
17923SOL     OW55209   3.847   5.038   5.517  0.4930 -0.1761 -0.4318
17923SOL    HW155210   3.893   5.049   5.433  1.9648  0.2965  0.3955
17923SOL    HW255211   3.905   5.079   5.581 -0.7231 -0.3143  0.7980
17924SOL     OW55212   2.722   0.365   1.701  0.7304  0.5226 -0.3787
17924SOL    HW155213   2.667   0.329   1.630 -0.5822  0.9273  0.3985
17924SOL    HW255214   2.789   0.298   1.715  0.4824  0.0355 -1.4002
17925SOL     OW55215   6.244   7.663   4.451 -0.6444  0.8262 -0.2319
17925SOL    HW155216   6.148   7.665   4.460 -0.5630 -0.1104  1.0735
17925SOL    HW255217   6.270   7.755   4.460 -1.4140  1.0943 -0.6127
17926SOL     OW55218   6.435   0.534   4.066  0.4067 -0.7778  1.1908
17926SOL    HW155219   6.483   0.505   3.989  1.3475 -2.4440  2.3442
17926SOL    HW255220   6.352   0.486   4.063  0.6211 -1.1687  1.4201
17927SOL     OW55221   0.933   0.025   0.315  0.1491  0.5923  0.4946
17927SOL    HW155222   0.924  -0.060   0.272  2.8200 -0.3674  1.5754
17927SOL    HW255223   0.850   0.069   0.300 -0.8700 -1.6999 -1.1902
17928SOL     OW55224   6.259   7.885   7.660 -0.1206  0.6986  0.0223
17928SOL    HW155225   6.326   7.817   7.665 -0.1262  0.0854 -4.4210
17928SOL    HW255226   6.201   7.867   7.734  2.0851 -1.5641  1.3382
17929SOL     OW55227   0.291   6.889  11.527 -0.2097 -0.6216 -0.3684
17929SOL    HW155228   0.332   6.892  11.614 -2.3862 -0.3995  0.7311
17929SOL    HW255229   0.355   6.931  11.469  0.5146  1.0322  1.4962
17930SOL     OW55230   2.358   2.742   4.802 -0.7082 -0.1316  0.0339
17930SOL    HW155231   2.453   2.756   4.802 -0.7014 -0.1521 -0.6605
17930SOL    HW255232   2.321   2.830   4.812 -0.6212 -0.0669 -0.2046
17931SOL     OW55233   1.590   2.253   5.872 -0.1995 -0.9019 -0.0911
17931SOL    HW155234   1.518   2.243   5.934 -1.5555 -1.4926 -1.7088
17931SOL    HW255235   1.552   2.236   5.786  1.6658 -0.3135 -1.1093
17932SOL     OW55236   5.394   0.604   6.180  0.2351  0.5468 -0.3048
17932SOL    HW155237   5.334   0.660   6.130  0.0779 -0.1728 -0.9491
17932SOL    HW255238   5.403   0.648   6.265  0.2941  1.6538 -0.8624
17933SOL     OW55239   7.261   4.376   9.639  0.1968 -0.0787 -0.5154
17933SOL    HW155240   7.351   4.367   9.610  0.0688 -1.1863 -0.6260
17933SOL    HW255241   7.266   4.425   9.721  0.8875 -0.0715 -0.5632
17934SOL     OW55242   1.718   6.072   3.830  0.2943  0.2687  0.4361
17934SOL    HW155243   1.625   6.069   3.852  0.0007 -1.6292 -0.8431
17934SOL    HW255244   1.762   6.040   3.908 -0.2800 -0.5202  0.4499
17935SOL     OW55245   2.699   3.925   1.475  0.2644  0.2891  0.0795
17935SOL    HW155246   2.702   3.998   1.414 -2.8972  1.8428  1.5653
17935SOL    HW255247   2.775   3.937   1.531  1.5203  0.5796 -1.6227
17936SOL     OW55248   0.856   7.427  11.454 -0.3279  0.3654  0.0233
17936SOL    HW155249   0.784   7.399  11.511  0.2370 -3.4387 -0.8201
17936SOL    HW255250   0.817   7.432  11.367 -0.0082  0.3929 -0.1208
17937SOL     OW55251   6.907   5.494   8.805 -0.1393  0.3420  0.1574
17937SOL    HW155252   6.877   5.474   8.894 -2.0644  0.0766 -0.5051
17937SOL    HW255253   6.931   5.587   8.808 -1.1689  0.6100  0.7334
17938SOL     OW55254   2.232   5.090  11.650  0.0863 -0.1592  0.4238
17938SOL    HW155255   2.301   5.023  11.649 -0.0267 -0.2732 -1.0749
17938SOL    HW255256   2.277   5.172  11.631 -0.2648 -0.3379 -1.3026
17939SOL     OW55257   2.051   5.837   7.149 -0.7542 -0.3499 -0.2011
17939SOL    HW155258   2.023   5.856   7.238 -0.4087 -0.6902 -0.0183
17939SOL    HW255259   2.127   5.780   7.159 -1.8310 -1.9527 -0.7277
17940SOL     OW55260   5.666   6.097   5.805  0.3084 -0.3966 -0.8296
17940SOL    HW155261   5.728   6.089   5.876 -0.9799  0.9879  0.5184
17940SOL    HW255262   5.619   6.179   5.822 -3.9091 -2.6763 -0.0301
17941SOL     OW55263   7.806   4.195   0.411  0.6500  0.7733 -0.2322
17941SOL    HW155264   7.826   4.102   0.422  4.7652  1.3941 -0.5887
17941SOL    HW255265   7.727   4.210   0.462  0.9463 -2.5663  1.4353
17942SOL     OW55266   0.310   7.282   0.723 -0.0196 -0.0758  0.0175
17942SOL    HW155267   0.241   7.344   0.746 -0.3826 -0.1938 -0.7420
17942SOL    HW255268   0.390   7.334   0.727 -0.4016  0.6956 -1.4715
17943SOL     OW55269   5.129   3.823  10.905 -0.0562  0.6616 -0.2195
17943SOL    HW155270   5.156   3.750  10.961 -1.3494  0.6232  0.3975
17943SOL    HW255271   5.180   3.813  10.825  1.0382  0.0858  0.5320
17944SOL     OW55272   3.498   2.206   7.254 -0.6719  0.0625 -0.2982
17944SOL    HW155273   3.426   2.145   7.275 -0.4711  0.4405  1.6231
17944SOL    HW255274   3.501   2.266   7.327  2.5892 -0.8471  0.4852
17945SOL     OW55275   3.585   4.530   0.981 -0.0334 -0.3769 -0.6469
17945SOL    HW155276   3.627   4.496   0.902  0.6361 -1.1401  0.0234
17945SOL    HW255277   3.538   4.455   1.018  0.4573 -0.2854  0.1931
17946SOL     OW55278   6.473   3.317   1.538  0.0756 -0.1020 -0.0570
17946SOL    HW155279   6.379   3.323   1.522 -0.3127 -1.9195  1.1896
17946SOL    HW255280   6.486   3.359   1.623  0.4489  0.3445 -0.3260
17947SOL     OW55281   4.879   4.428   7.359  0.0603 -0.0725 -0.3310
17947SOL    HW155282   4.834   4.487   7.299 -1.2571 -1.8389 -1.1488
17947SOL    HW255283   4.945   4.385   7.305 -0.3546 -0.8169 -0.2627
17948SOL     OW55284   1.349   1.229   6.400  0.4358  0.1052  0.0198
17948SOL    HW155285   1.260   1.250   6.430  0.0293  1.5217 -1.9648
17948SOL    HW255286   1.336   1.183   6.316  1.5683 -0.1509 -0.0341
17949SOL     OW55287   2.280   1.017   5.627 -0.1510  0.5652 -0.2983
17949SOL    HW155288   2.352   0.986   5.682 -0.1105  0.0661 -0.6189
17949SOL    HW255289   2.264   0.944   5.566 -0.8977  0.6913 -0.2623
17950SOL     OW55290   5.682   0.444   9.799 -0.3788 -0.4675  0.0657
17950SOL    HW155291   5.616   0.465   9.865 -0.0777 -0.5018  0.3871
17950SOL    HW255292   5.694   0.349   9.808  2.3096 -0.0602  2.5733
17951SOL     OW55293   7.029   4.479   2.988 -0.2174 -0.4155 -0.4070
17951SOL    HW155294   7.080   4.547   3.031  1.2108 -1.4853 -0.2992
17951SOL    HW255295   6.982   4.524   2.918  0.5393  0.7049 -0.2159
17952SOL     OW55296   3.231   5.145   2.439 -0.1810 -0.2299  0.0542
17952SOL    HW155297   3.259   5.153   2.530 -0.2795  0.2286  0.0456
17952SOL    HW255298   3.305   5.179   2.388 -0.0347 -0.6959 -0.0487
17953SOL     OW55299   5.080   7.815   9.814  0.1610  0.6168  0.0198
17953SOL    HW155300   4.994   7.812   9.772 -0.4217 -1.6988  1.2035
17953SOL    HW255301   5.064   7.787   9.904  2.0477  0.9679  0.5183
17954SOL     OW55302   4.590   7.447   5.740  0.0908  0.0959  0.1329
17954SOL    HW155303   4.678   7.446   5.779 -0.5573 -3.3334  1.8914
17954SOL    HW255304   4.598   7.390   5.663 -0.3683  0.7386 -0.4054
17955SOL     OW55305   3.214   0.594   4.968 -0.2202  0.6580  0.3524
17955SOL    HW155306   3.222   0.565   4.877 -0.0930  0.8222  0.3112
17955SOL    HW255307   3.248   0.684   4.968 -1.8761  1.3241  0.1928
17956SOL     OW55308   2.425   0.064   7.405  0.0557  0.3286 -0.4591
17956SOL    HW155309   2.435   0.031   7.494  0.2402  1.7448  0.0632
17956SOL    HW255310   2.514   0.072   7.372 -0.0219 -0.4447 -0.8866
17957SOL     OW55311   2.418   4.839   1.944  0.2589 -0.0546 -0.5237
17957SOL    HW155312   2.367   4.760   1.962 -0.5114  0.1753 -1.5617
17957SOL    HW255313   2.472   4.852   2.022 -1.8846  0.1433  1.0104
17958SOL     OW55314   3.519   5.242   4.710 -0.1793 -0.3632 -0.6633
17958SOL    HW155315   3.603   5.265   4.672  0.0100 -0.8766 -0.5598
17958SOL    HW255316   3.533   5.244   4.805 -0.9835  2.2258 -0.5131
17959SOL     OW55317   6.428   3.168  10.487  0.1445 -0.6956 -0.3248
17959SOL    HW155318   6.439   3.090  10.540 -1.1445 -0.5574  0.1767
17959SOL    HW255319   6.479   3.151  10.408  3.8348 -0.0970  1.7089
17960SOL     OW55320   0.625   7.281   9.726 -0.3686 -0.0636 -0.6007
17960SOL    HW155321   0.685   7.279   9.651 -0.0382  0.9122 -0.3851
17960SOL    HW255322   0.583   7.367   9.720 -0.5553 -0.0949  0.1626
17961SOL     OW55323   6.146   7.039  12.190 -0.0646  0.4589 -0.1424
17961SOL    HW155324   6.175   7.017  12.278 -2.0633 -2.1295  0.0044
17961SOL    HW255325   6.128   7.133  12.193  0.1646  0.4789  2.1328
17962SOL     OW55326   7.117   5.467  12.231 -0.3800 -0.0222  0.4356
17962SOL    HW155327   7.050   5.514  12.181  1.3221 -0.3034 -2.3821
17962SOL    HW255328   7.162   5.413  12.165  2.3825 -0.0934  2.2073
17963SOL     OW55329   2.529   0.503   3.183  0.3871 -0.4703  0.1063
17963SOL    HW155330   2.541   0.412   3.156 -1.0033 -0.0225 -2.2956
17963SOL    HW255331   2.447   0.502   3.233 -0.7555 -0.2954 -1.6693
17964SOL     OW55332   4.108   5.922   4.794 -0.3530 -0.8185 -0.0729
17964SOL    HW155333   4.031   5.927   4.737 -0.6063  0.2671  0.3419
17964SOL    HW255334   4.101   5.836   4.835 -0.1849 -1.6079 -1.6310
17965SOL     OW55335   6.140   4.078   9.118 -0.6367 -0.0856  0.0399
17965SOL    HW155336   6.105   3.996   9.084 -0.3630 -1.2088  2.3262
17965SOL    HW255337   6.162   4.129   9.039 -0.9055 -2.1283 -1.4326
17966SOL     OW55338   4.459   3.939   3.480  0.2717 -0.3848 -0.1323
17966SOL    HW155339   4.423   4.011   3.532  2.0876  0.3205  0.2486
17966SOL    HW255340   4.506   3.983   3.408  1.0621 -1.1971 -0.1324
17967SOL     OW55341   6.054   1.539   2.770  0.1183 -0.2231 -0.0462
17967SOL    HW155342   6.128   1.490   2.733  0.1862 -0.1793  0.0294
17967SOL    HW255343   6.070   1.537   2.864  0.5036  0.5512 -0.0915
17968SOL     OW55344   2.605   1.984  11.206 -0.4869  0.6264  0.6625
17968SOL    HW155345   2.593   1.934  11.287  0.2960  1.1870  1.1383
17968SOL    HW255346   2.641   2.068  11.235  0.4762  0.5746 -0.3146
17969SOL     OW55347   5.216   1.412   8.195 -0.1036  0.0366  0.0261
17969SOL    HW155348   5.178   1.330   8.228  1.4017  0.3016  2.7443
17969SOL    HW255349   5.309   1.405   8.217  0.0060  2.6017  0.6158
17970SOL     OW55350   5.841   3.333   3.711 -0.8332 -0.6407 -0.9177
17970SOL    HW155351   5.899   3.258   3.695  1.1780  0.5611  0.3201
17970SOL    HW255352   5.817   3.324   3.804  0.0190  0.5972 -0.5552
17971SOL     OW55353   2.639   0.813   7.621  0.0323 -0.4451  0.2706
17971SOL    HW155354   2.621   0.724   7.652 -0.7683  0.0306  1.2242
17971SOL    HW255355   2.734   0.821   7.625  0.2249 -1.6707 -1.0419
17972SOL     OW55356   3.606   0.466   3.039  0.0920 -0.2547 -0.2811
17972SOL    HW155357   3.643   0.544   2.998 -0.9693  0.4368  0.0375
17972SOL    HW255358   3.661   0.452   3.116  0.0668  0.4124 -0.1343
17973SOL     OW55359   0.098   3.853   2.943  0.4557  0.3043 -0.4941
17973SOL    HW155360   0.194   3.861   2.944  0.3566  3.0510 -1.8937
17973SOL    HW255361   0.079   3.803   2.864  0.7394  0.6032 -0.7583
17974SOL     OW55362   4.829   5.791  10.122  0.2421  0.4226 -0.4443
17974SOL    HW155363   4.737   5.818  10.119  0.0188 -0.3805 -1.1985
17974SOL    HW255364   4.850   5.765  10.032  0.7557 -0.8256  0.0101
17975SOL     OW55365   6.514   2.142   6.704  0.7590 -0.2061 -0.5657
17975SOL    HW155366   6.501   2.232   6.675  1.3932  0.0931  0.0447
17975SOL    HW255367   6.593   2.113   6.658  0.6378 -0.4000 -0.6531
17976SOL     OW55368   2.231   0.737   0.982 -0.1156 -0.3663  0.7206
17976SOL    HW155369   2.194   0.775   1.062  0.3959  0.5081  0.5526
17976SOL    HW255370   2.325   0.749   0.992  0.0642 -1.6901  0.6962
17977SOL     OW55371   2.042   4.306   6.715 -0.0189 -0.1259 -0.1588
17977SOL    HW155372   2.064   4.230   6.769  0.1652 -1.2369 -1.7185
17977SOL    HW255373   2.106   4.304   6.644  1.2064  2.6364  0.7577
17978SOL     OW55374   1.252   2.406   7.656  0.2875 -0.1813  0.0149
17978SOL    HW155375   1.239   2.400   7.561 -1.2275 -1.1475  0.2455
17978SOL    HW255376   1.163   2.402   7.692  0.9090 -1.0338  1.5316
17979SOL     OW55377   6.171   3.161   8.959  0.5997 -0.2379 -0.4506
17979SOL    HW155378   6.080   3.176   8.932  0.7350 -1.5155 -1.7347
17979SOL    HW255379   6.170   3.173   9.054 -0.9067 -0.2176 -0.4387
17980SOL     OW55380   0.814   3.267   6.501 -0.6188  0.0456  0.5775
17980SOL    HW155381   0.840   3.355   6.472 -0.1562 -0.1070  0.5180
17980SOL    HW255382   0.773   3.228   6.424 -1.6489  0.5285  0.8681
17981SOL     OW55383   1.049   2.355   8.392 -0.9250  0.3661 -0.4796
17981SOL    HW155384   1.124   2.367   8.333 -2.0248  0.9920 -1.8133
17981SOL    HW255385   1.088   2.340   8.478  0.7378  0.0014 -1.2558
17982SOL     OW55386   0.213   0.458   1.948  0.2372 -0.1926  0.0629
17982SOL    HW155387   0.244   0.431   1.862  0.1715  1.9044 -0.6680
17982SOL    HW255388   0.293   0.471   1.999  0.2740 -1.5189  0.3826
17983SOL     OW55389   4.803   7.586   5.949  0.5385 -0.3046  0.1320
17983SOL    HW155390   4.772   7.501   5.979 -0.9943 -0.0339 -0.6077
17983SOL    HW255391   4.841   7.626   6.027  2.2218 -2.0233  0.2852
17984SOL     OW55392   1.518   6.197  10.935 -0.5510 -0.9141  0.4828
17984SOL    HW155393   1.524   6.191  10.840 -0.2505  0.0141  0.4292
17984SOL    HW255394   1.572   6.125  10.967 -2.1869 -2.4301 -0.0262
17985SOL     OW55395   3.278   1.818   6.285 -0.1388 -0.3294  0.5369
17985SOL    HW155396   3.259   1.853   6.198 -2.7580 -1.6953  0.4601
17985SOL    HW255397   3.204   1.844   6.339  0.5086 -1.1068  1.8843
17986SOL     OW55398   1.273   6.528   6.480 -0.1299 -0.0342 -0.0305
17986SOL    HW155399   1.329   6.499   6.551 -0.9525  0.2515  0.7528
17986SOL    HW255400   1.191   6.480   6.492  0.5319 -1.8771 -2.2709
17987SOL     OW55401   0.560   3.801   9.541 -0.4918  0.0113 -0.4866
17987SOL    HW155402   0.612   3.757   9.607 -2.3843 -1.3249  0.2116
17987SOL    HW255403   0.586   3.761   9.458 -0.4539 -0.6836 -0.1416
17988SOL     OW55404   4.304   4.702   2.115 -0.1828 -0.6667  0.0332
17988SOL    HW155405   4.320   4.742   2.201 -0.4558 -1.1826  0.3286
17988SOL    HW255406   4.280   4.612   2.135  1.4241 -1.2769 -0.6979
17989SOL     OW55407   7.783   7.329  11.478 -0.2516 -0.8539  0.1383
17989SOL    HW155408   7.832   7.272  11.418 -1.8036  0.1864 -2.2975
17989SOL    HW255409   7.698   7.286  11.487 -0.1785 -0.7747  1.2940
17990SOL     OW55410   2.500   2.435   6.745  0.2223  0.2571  0.0453
17990SOL    HW155411   2.570   2.389   6.791  0.2966  1.0849  0.7741
17990SOL    HW255412   2.446   2.473   6.814  0.2821  1.4443 -0.5381
17991SOL     OW55413   0.969   5.916   8.108  0.3763  0.2700 -0.5340
17991SOL    HW155414   0.986   5.838   8.160  0.0740  0.9574  0.6368
17991SOL    HW255415   1.043   5.974   8.125 -1.1302  1.7371  1.6134
17992SOL     OW55416   7.683   3.915  12.275  0.0220  0.1692 -0.0871
17992SOL    HW155417   7.597   3.954  12.261 -0.2809 -0.3009  0.4180
17992SOL    HW255418   7.664   3.828  12.309  0.6882 -0.3826 -1.1015
17993SOL     OW55419   1.263   7.957   7.346 -0.2829  0.6114  0.4988
17993SOL    HW155420   1.234   8.048   7.357  0.9317  0.9115  1.3814
17993SOL    HW255421   1.331   7.945   7.412 -0.0987 -0.8103  0.0848
17994SOL     OW55422   3.594   5.444  11.124 -0.2232  0.1369  0.3640
17994SOL    HW155423   3.577   5.437  11.218 -0.3356 -0.2600  0.3175
17994SOL    HW255424   3.616   5.355  11.097  1.3583  0.5140  0.3015
17995SOL     OW55425   5.732   5.499   7.833  0.0010 -0.0148  0.0996
17995SOL    HW155426   5.651   5.466   7.794 -0.7809  1.2609  0.6063
17995SOL    HW255427   5.801   5.442   7.797 -0.8230  0.2776 -2.1097
17996SOL     OW55428   4.487   5.838   5.495  0.2620  0.4845  0.0501
17996SOL    HW155429   4.534   5.765   5.534 -1.5370 -0.1112  1.2711
17996SOL    HW255430   4.434   5.799   5.426 -1.2037  0.4628  1.1374
17997SOL     OW55431   1.355   7.925   7.766 -0.0628 -0.3480 -0.0032
17997SOL    HW155432   1.300   7.995   7.730  0.4749  0.2971  0.4162
17997SOL    HW255433   1.403   7.966   7.837  0.9751 -0.8990 -0.3672
17998SOL     OW55434   4.409   6.758   0.625  0.0714 -0.0551 -0.3553
17998SOL    HW155435   4.408   6.823   0.555 -0.6948  0.0879 -0.2233
17998SOL    HW255436   4.335   6.782   0.681 -0.2801 -1.0975 -0.3512
17999SOL     OW55437   2.371   3.843   8.262  0.1340  0.2302  0.0903
17999SOL    HW155438   2.321   3.772   8.301 -0.2173  0.1384 -0.5229
17999SOL    HW255439   2.458   3.806   8.248  0.5577  0.5462  1.6384
18000SOL     OW55440   4.472   6.936   6.890  0.0218  0.0875  0.3391
18000SOL    HW155441   4.490   6.856   6.939 -3.7034 -0.8215  0.5295
18000SOL    HW255442   4.467   7.004   6.956  0.8551  0.0612  0.4482
18001SOL     OW55443   2.549   4.934   8.987  0.1170 -0.1970 -0.6453
18001SOL    HW155444   2.544   4.978   8.902  0.1084 -0.7576 -0.9415
18001SOL    HW255445   2.512   4.997   9.049 -0.2171  0.0722 -1.1113
18002SOL     OW55446   4.423   6.080   8.443 -0.2809 -0.0546 -0.3198
18002SOL    HW155447   4.420   5.999   8.393 -1.3631  0.4805 -1.1669
18002SOL    HW255448   4.435   6.148   8.377  0.8214  0.4709  0.3922
18003SOL     OW55449   2.200   3.909   7.137 -0.2215  0.0349 -0.1592
18003SOL    HW155450   2.120   3.863   7.163 -0.0240  0.4440  1.2489
18003SOL    HW255451   2.217   3.970   7.209  1.3554 -0.0483 -0.4340
18004SOL     OW55452   7.606   7.392   7.553  0.3039  0.4908 -0.2856
18004SOL    HW155453   7.695   7.411   7.524  0.2953 -0.3363 -0.8978
18004SOL    HW255454   7.568   7.340   7.482 -1.4442  2.7184 -1.1121
18005SOL     OW55455   7.631   7.475   7.078 -0.0337  0.6203  0.8915
18005SOL    HW155456   7.661   7.416   7.008  0.4421  1.0999  0.6780
18005SOL    HW255457   7.657   7.431   7.159 -0.6934  0.0047  0.7738
18006SOL     OW55458   5.144   6.761   5.104  0.1059 -0.6136 -0.0229
18006SOL    HW155459   5.221   6.749   5.047  0.5149 -0.0576  0.4020
18006SOL    HW255460   5.088   6.686   5.084 -0.2085  0.0546 -1.8496
18007SOL     OW55461   0.326   6.444  11.951  0.0079  0.0453  0.3049
18007SOL    HW155462   0.279   6.446  11.868 -1.5868 -1.3857  1.1231
18007SOL    HW255463   0.328   6.535  11.980 -0.1991  0.4361 -0.8539
18008SOL     OW55464   0.815   2.729   0.701  0.2312 -0.5723 -0.1975
18008SOL    HW155465   0.742   2.767   0.652  0.6193  0.0568 -0.2925
18008SOL    HW255466   0.874   2.696   0.634 -0.1981 -1.5430 -0.1145
18009SOL     OW55467   7.460   2.044   1.839  0.5420  0.6348  0.1616
18009SOL    HW155468   7.442   1.953   1.813  0.5358  0.3987  0.9682
18009SOL    HW255469   7.496   2.084   1.760 -1.0205  0.3978 -0.7262
18010SOL     OW55470   7.462   4.398   8.819  0.1252  0.4895  0.6196
18010SOL    HW155471   7.481   4.384   8.912  0.1174  2.1411  0.9028
18010SOL    HW255472   7.449   4.492   8.811 -3.1521  0.0850 -0.4664
18011SOL     OW55473   1.936   5.890   2.874  0.3094 -0.3932  0.3585
18011SOL    HW155474   1.865   5.828   2.860 -1.1444  1.5934 -1.9939
18011SOL    HW255475   1.893   5.972   2.895  1.8644  0.8381 -0.9631
18012SOL     OW55476   3.019   5.762   6.901 -0.7097  0.2774 -0.3032
18012SOL    HW155477   2.926   5.780   6.891 -1.0189  0.7130  2.6269
18012SOL    HW255478   3.032   5.679   6.856 -2.0405  1.1468 -2.4716
18013SOL     OW55479   1.320   0.095   8.262 -0.0929  0.3005 -0.0980
18013SOL    HW155480   1.414   0.112   8.255  0.3848 -1.7113  0.7954
18013SOL    HW255481   1.303   0.092   8.356 -1.1394  0.9160 -0.2455
18014SOL     OW55482   1.848   5.228  10.302  0.0336 -0.6205  0.3457
18014SOL    HW155483   1.761   5.262  10.320 -0.1808 -0.6907 -0.5095
18014SOL    HW255484   1.866   5.254  10.212  1.2204  0.0546  0.7506
18015SOL     OW55485   5.823   5.735   2.469 -0.1922 -0.7553  0.0588
18015SOL    HW155486   5.781   5.723   2.384 -1.7607 -0.5732  0.7606
18015SOL    HW255487   5.754   5.774   2.524  1.4446  1.2807  0.7974
18016SOL     OW55488   2.681   1.316   2.556  0.0303  1.0851 -0.3899
18016SOL    HW155489   2.745   1.367   2.605 -0.1617 -0.9725  2.1963
18016SOL    HW255490   2.605   1.311   2.614 -0.1655 -1.5940 -0.7603
18017SOL     OW55491   2.613   1.774   1.415  0.3779 -0.1159 -0.3926
18017SOL    HW155492   2.623   1.679   1.422  1.7188 -0.0617 -1.2793
18017SOL    HW255493   2.659   1.809   1.491 -0.4436 -0.1664  0.1455
18018SOL     OW55494   2.876   4.980  11.082  0.1259  0.2255 -0.3843
18018SOL    HW155495   2.830   4.897  11.069 -2.2431  1.5115 -0.8053
18018SOL    HW255496   2.947   4.958  11.143 -1.2435 -1.8372  0.5993
18019SOL     OW55497   7.470   4.539  10.204  0.1887  0.0565 -0.4099
18019SOL    HW155498   7.412   4.584  10.265  0.0207  0.1067 -0.6044
18019SOL    HW255499   7.420   4.534  10.123 -0.6102 -2.2520  0.1405
18020SOL     OW55500   0.017   5.884   4.013 -0.7562  0.8307  0.1612
18020SOL    HW155501   0.068   5.921   3.941 -0.1457 -0.7513 -0.2690
18020SOL    HW255502   0.046   5.931   4.091  2.2824 -0.7637  0.1268
18021SOL     OW55503   3.796   1.974   4.749 -0.0416  0.3807 -0.2593
18021SOL    HW155504   3.850   2.018   4.815  0.0606 -1.0546  0.6656
18021SOL    HW255505   3.808   1.881   4.767 -0.1339 -0.0512 -2.2431
18022SOL     OW55506   7.012   1.820   0.376 -0.0513  0.2498 -0.4485
18022SOL    HW155507   6.995   1.852   0.287 -1.0078  1.3844  0.1246
18022SOL    HW255508   6.981   1.729   0.375 -1.4945  0.7258 -0.8550
18023SOL     OW55509   6.373   7.637   4.715  0.3444 -0.4613  0.3399
18023SOL    HW155510   6.340   7.658   4.628  0.7132 -2.4243 -0.3303
18023SOL    HW255511   6.381   7.721   4.759 -3.3657  0.3665 -0.1925
18024SOL     OW55512   6.095   3.313   2.443  0.7392  0.1399 -0.2191
18024SOL    HW155513   6.032   3.383   2.425 -1.3134 -1.4546  0.3876
18024SOL    HW255514   6.171   3.358   2.479  0.2238  2.2065 -1.5055
18025SOL     OW55515   7.644   2.800   2.233  0.3236 -0.2803 -0.1960
18025SOL    HW155516   7.729   2.778   2.271  0.8869  1.8784 -0.0291
18025SOL    HW255517   7.658   2.887   2.194 -1.8312  0.1864 -0.0502
18026SOL     OW55518   6.435   1.262  11.717 -0.3342 -0.2632  0.2022
18026SOL    HW155519   6.435   1.170  11.694 -2.9782  0.0715 -1.6508
18026SOL    HW255520   6.433   1.308  11.633  1.1531  1.5218  1.0780
18027SOL     OW55521   1.611   5.639   1.995 -0.1393 -0.1453  0.0698
18027SOL    HW155522   1.646   5.551   1.977 -0.7051 -0.1572 -1.1036
18027SOL    HW255523   1.643   5.660   2.082  2.1315 -0.4734 -0.6148
18028SOL     OW55524   4.989   3.881   7.898 -0.2966  0.2038 -0.6493
18028SOL    HW155525   5.057   3.871   7.832 -0.4348 -0.0912 -0.7507
18028SOL    HW255526   5.033   3.868   7.982  0.3548  2.7918 -0.4974
18029SOL     OW55527   5.555   5.454   4.026 -0.1017 -0.0736  0.5541
18029SOL    HW155528   5.556   5.364   3.994 -0.3112  0.4215 -0.9451
18029SOL    HW255529   5.635   5.493   3.992 -1.2959  1.0265 -1.1650
18030SOL     OW55530   0.741   6.648  10.498 -0.2139 -0.4041 -0.0599
18030SOL    HW155531   0.820   6.594  10.497  0.1790  0.1604 -0.0663
18030SOL    HW255532   0.689   6.612  10.570  0.0931 -0.7162  0.0094
18031SOL     OW55533   0.463   5.234   6.063 -0.7593  0.0697 -0.1135
18031SOL    HW155534   0.424   5.153   6.031 -0.1164 -0.0102 -0.7283
18031SOL    HW255535   0.552   5.233   6.029 -1.1441  1.6784 -1.2835
18032SOL     OW55536   5.875   5.498   5.105 -0.1625  0.5268 -0.1326
18032SOL    HW155537   5.874   5.503   5.009  1.1769  0.0860 -0.1823
18032SOL    HW255538   5.787   5.467   5.128 -0.1517 -0.4152 -1.2811
18033SOL     OW55539   0.094   3.414   7.559 -0.4616 -0.0071 -0.3613
18033SOL    HW155540   0.074   3.385   7.470 -2.4220 -0.2232  0.1000
18033SOL    HW255541   0.021   3.381   7.611 -0.0279  1.2544  1.0975
18034SOL     OW55542   4.648   1.773   4.973  0.1797  0.0787 -0.3238
18034SOL    HW155543   4.602   1.844   4.928 -0.8363  0.3721  1.0725
18034SOL    HW255544   4.585   1.701   4.974  0.5700 -0.2639 -0.2666
18035SOL     OW55545   6.516   3.770   1.918 -0.0351  0.3361  0.0433
18035SOL    HW155546   6.503   3.747   1.826  0.9057  1.4222 -0.3847
18035SOL    HW255547   6.520   3.686   1.963 -0.0361 -0.2297 -0.9681
18036SOL     OW55548   2.813   6.024  11.534  0.5291 -0.2265 -0.9842
18036SOL    HW155549   2.801   6.010  11.440 -2.3832  2.6876 -1.2190
18036SOL    HW255550   2.846   6.113  11.542 -0.2181 -0.0555  0.7814
18037SOL     OW55551   4.665   6.539   9.944 -0.2237  0.6139 -0.4792
18037SOL    HW155552   4.634   6.518   9.856 -0.4802 -3.2653  0.3466
18037SOL    HW255553   4.585   6.539   9.998  0.0677  1.6945 -0.0157
18038SOL     OW55554   2.514   1.962   6.013 -0.4458  0.3334 -0.0468
18038SOL    HW155555   2.461   1.988   6.088  0.8277  0.2553  0.9148
18038SOL    HW255556   2.594   1.925   6.051  0.4566  0.7446 -1.4318
18039SOL     OW55557   5.544   7.568   6.124  1.0908 -0.7459 -0.7904
18039SOL    HW155558   5.608   7.496   6.128  1.9263 -0.0149  2.7306
18039SOL    HW255559   5.461   7.528   6.151  1.7077 -0.4101  1.9197
18040SOL     OW55560   2.185   7.909   3.952  0.0346  0.0746  0.1147
18040SOL    HW155561   2.249   7.857   3.904 -0.1628  0.2175 -0.3051
18040SOL    HW255562   2.167   7.984   3.895  0.7336  0.9119  0.9368
18041SOL     OW55563   1.560   6.438   0.862 -0.3702  0.1320  0.3945
18041SOL    HW155564   1.600   6.352   0.877  0.0986 -0.1836 -2.2536
18041SOL    HW255565   1.473   6.419   0.827 -0.1256  0.6956 -0.5687
18042SOL     OW55566   4.114   6.640   2.398 -0.0944 -0.0867 -0.0945
18042SOL    HW155567   4.043   6.576   2.388 -0.2483  0.0808 -0.0878
18042SOL    HW255568   4.089   6.712   2.340  0.4099 -0.3148 -0.6141
18043SOL     OW55569   1.056   0.322   7.109  0.5805  0.1793  0.1931
18043SOL    HW155570   0.963   0.343   7.117  0.3012 -1.3482  1.5389
18043SOL    HW255571   1.058   0.235   7.069  1.5333  0.9729 -1.5895
18044SOL     OW55572   7.880   5.998   7.724 -0.3745 -0.0642 -0.1620
18044SOL    HW155573   7.881   6.056   7.647  0.9817  0.3657  0.1511
18044SOL    HW255574   7.830   6.046   7.790 -0.2929  0.2115 -0.2990
18045SOL     OW55575   5.584   4.105   2.408 -0.6497 -0.2062  0.6207
18045SOL    HW155576   5.565   4.133   2.318  3.1905 -0.3983 -0.4078
18045SOL    HW255577   5.573   4.184   2.460  0.3839  0.8107 -0.6338
18046SOL     OW55578   4.682   4.730   2.681  0.7074 -0.0698 -0.1481
18046SOL    HW155579   4.663   4.778   2.762  0.9946 -0.6698  0.2784
18046SOL    HW255580   4.777   4.719   2.683  0.6186 -0.8657 -0.1223
18047SOL     OW55581   6.815   4.415   1.250  0.0896  0.9228 -0.0848
18047SOL    HW155582   6.880   4.435   1.183  1.7975  0.1263  1.2601
18047SOL    HW255583   6.805   4.497   1.298  1.8742  0.4812  1.1230
18048SOL     OW55584   0.415   6.909   8.331 -0.2869  0.7480  0.2644
18048SOL    HW155585   0.321   6.925   8.322 -0.3227  0.1149 -0.6147
18048SOL    HW255586   0.430   6.829   8.281  1.1236  2.0972 -1.5783
18049SOL     OW55587   1.753   3.659   5.770  0.2216  0.6658  0.3457
18049SOL    HW155588   1.690   3.605   5.818  2.1752 -1.4522  0.7354
18049SOL    HW255589   1.708   3.742   5.755 -2.8224 -0.8801  0.1350
18050SOL     OW55590   0.021   5.175   5.622 -0.6920  0.3208 -0.5823
18050SOL    HW155591   0.111   5.150   5.644 -0.8014  1.6048  1.5785
18050SOL    HW255592  -0.011   5.104   5.567  0.8114 -1.4336  0.6881
18051SOL     OW55593   2.545   2.252   2.791 -0.0177 -0.7485 -0.3176
18051SOL    HW155594   2.623   2.299   2.763 -1.2097  1.2850 -0.4103
18051SOL    HW255595   2.475   2.284   2.735 -1.0108 -2.3340 -0.0741
18052SOL     OW55596   5.334   7.923  12.206  0.2885  0.5269  0.1622
18052SOL    HW155597   5.361   7.863  12.137 -0.9626  0.3083 -0.1697
18052SOL    HW255598   5.329   7.869  12.285 -2.2391 -0.2322 -0.4106
18053SOL     OW55599   1.723   5.997   7.202 -0.4078  0.6883 -0.3845
18053SOL    HW155600   1.628   6.001   7.218 -0.6741  0.9059 -1.9263
18053SOL    HW255601   1.731   5.945   7.122  0.5896  2.8607 -1.7753
18054SOL     OW55602   3.828   1.675   0.803 -0.3720  0.1703  0.0669
18054SOL    HW155603   3.888   1.601   0.797 -2.3666 -1.5341  0.0075
18054SOL    HW255604   3.787   1.680   0.717 -3.0916 -1.2776  1.1465
18055SOL     OW55605   1.226   4.977   8.236 -0.4067  0.2456  0.1030
18055SOL    HW155606   1.192   5.053   8.283  0.5951  0.4934  0.4684
18055SOL    HW255607   1.281   5.014   8.167 -0.0159 -0.1347  0.2013
18056SOL     OW55608   0.069   2.943   9.721  0.6337 -0.0956  0.1247
18056SOL    HW155609   0.044   2.859   9.758  0.9068 -0.4020 -0.3646
18056SOL    HW255610   0.008   2.956   9.648  0.2869  0.3603  0.4896
18057SOL     OW55611   4.156   1.866   1.212 -0.0134  0.0368 -0.2968
18057SOL    HW155612   4.084   1.928   1.194  1.9027  2.0783 -1.3543
18057SOL    HW255613   4.205   1.908   1.283  1.4841 -0.1074 -1.2234
18058SOL     OW55614   4.348   6.207   4.030 -0.6689  0.2022  0.1888
18058SOL    HW155615   4.262   6.248   4.031 -0.9870 -0.4063 -0.7254
18058SOL    HW255616   4.409   6.279   4.014 -1.1495  0.4252 -0.7015
18059SOL     OW55617   2.931   3.504  11.145 -0.4091  0.3014  0.1468
18059SOL    HW155618   2.953   3.586  11.099 -1.0330  0.3685 -0.0408
18059SOL    HW255619   2.993   3.500  11.218 -1.2167  1.6166  0.9430
18060SOL     OW55620   0.889   4.784   7.659 -0.4317  0.3592 -0.1314
18060SOL    HW155621   0.895   4.872   7.697 -0.7688 -0.2345  1.3653
18060SOL    HW255622   0.846   4.798   7.574 -1.8395  1.4844  0.7174
18061SOL     OW55623   2.480   1.683   4.799  0.1941  0.1897  0.0903
18061SOL    HW155624   2.463   1.591   4.781  0.2997  0.3619 -0.9320
18061SOL    HW255625   2.576   1.690   4.797  0.2131  0.2046  0.7981
18062SOL     OW55626   0.549   5.875   2.893  0.3617 -0.7117 -0.0091
18062SOL    HW155627   0.616   5.811   2.868  0.1735 -0.5890 -0.8517
18062SOL    HW255628   0.467   5.838   2.859  0.0352 -0.7194  0.7597
18063SOL     OW55629   4.131   1.429   8.332 -0.0625 -0.3390  0.2052
18063SOL    HW155630   4.085   1.486   8.393 -0.7327  0.0588 -0.6516
18063SOL    HW255631   4.133   1.478   8.250 -0.0976 -1.2836 -0.3779
18064SOL     OW55632   1.280   4.945   3.972  0.3457 -0.8617  0.4098
18064SOL    HW155633   1.254   4.895   3.895  1.3488  0.1097 -0.5891
18064SOL    HW255634   1.253   5.035   3.953  0.7839 -0.5716  1.1112
18065SOL     OW55635   5.956   3.630  11.362 -0.0043  0.5008  0.0583
18065SOL    HW155636   6.007   3.549  11.351 -0.6088 -0.1986  1.9813
18065SOL    HW255637   5.870   3.609  11.326  0.2403  0.7725 -0.7048
18066SOL     OW55638   2.360   1.896   3.129 -0.4704  0.9201  0.0507
18066SOL    HW155639   2.332   1.949   3.204 -4.1890 -2.4890  1.4754
18066SOL    HW255640   2.389   1.813   3.168 -2.8502 -1.1115 -2.1077
18067SOL     OW55641   0.216   5.791   2.453 -0.1489 -0.1895 -0.1815
18067SOL    HW155642   0.148   5.857   2.470  0.7771  0.5706  0.7184
18067SOL    HW255643   0.280   5.804   2.523  1.3664 -0.2862 -1.4899
18068SOL     OW55644   0.027   2.930   2.127 -0.2547 -0.1232 -0.0431
18068SOL    HW155645   0.021   3.025   2.112 -1.2287 -0.2110 -0.2957
18068SOL    HW255646   0.064   2.896   2.045  0.6222  0.0854  0.2537
18069SOL     OW55647   4.658   7.581   5.471  0.1195  0.3885 -0.0346
18069SOL    HW155648   4.662   7.489   5.445  1.4317  0.3183  0.3224
18069SOL    HW255649   4.637   7.579   5.564 -2.5709  0.5732 -0.5676
18070SOL     OW55650   5.150   4.183   7.651 -0.4650  0.1461 -0.1948
18070SOL    HW155651   5.095   4.261   7.658  1.0027  1.1161  0.9875
18070SOL    HW255652   5.188   4.172   7.738  1.6333 -0.1622 -1.0922
18071SOL     OW55653   5.494   2.438   8.623  0.0403 -0.2668 -0.1246
18071SOL    HW155654   5.476   2.519   8.670 -2.4828 -1.2899  0.8169
18071SOL    HW255655   5.514   2.465   8.534  0.8925  1.4497  0.5398
18072SOL     OW55656   4.943   6.942   0.824  0.2779 -0.3846  0.4488
18072SOL    HW155657   4.863   6.975   0.865  0.0314  1.6304 -1.4145
18072SOL    HW255658   4.911   6.887   0.753  0.5615 -0.4840  0.3996
18073SOL     OW55659   2.834   0.891   0.825 -0.2294 -0.2751  0.0240
18073SOL    HW155660   2.922   0.871   0.857 -0.6394  0.3536  1.6296
18073SOL    HW255661   2.777   0.827   0.868 -0.5680 -0.7429 -1.0780
18074SOL     OW55662   6.203   0.287   2.767 -0.4638  0.4807 -0.0018
18074SOL    HW155663   6.247   0.205   2.792 -0.1019  0.9455  0.9193
18074SOL    HW255664   6.135   0.259   2.705  1.0063 -0.2809 -1.3593
18075SOL     OW55665   4.620   1.504   8.703 -0.6195  0.0925 -0.0373
18075SOL    HW155666   4.594   1.579   8.650 -2.4696 -0.6677 -0.2647
18075SOL    HW255667   4.563   1.433   8.674  0.7107 -1.2842  0.5563
18076SOL     OW55668   7.650   7.716   3.701 -0.2973 -0.3620 -0.9059
18076SOL    HW155669   7.613   7.752   3.782  2.9950 -1.4877  1.2896
18076SOL    HW255670   7.591   7.644   3.678 -0.9071 -0.5252  0.9605
18077SOL     OW55671   3.617   0.350   6.467  0.3243 -0.0227 -0.1158
18077SOL    HW155672   3.571   0.358   6.384  1.0987  0.8299 -0.4742
18077SOL    HW255673   3.678   0.276   6.455  0.7454  0.3773 -0.4615
18078SOL     OW55674   7.410   6.819  10.754  0.1515 -0.4746 -0.0018
18078SOL    HW155675   7.430   6.886  10.689 -0.0265 -0.7364 -0.3315
18078SOL    HW255676   7.316   6.805  10.747  0.2136 -0.8762 -0.0539
18079SOL     OW55677   5.354   2.258   1.859 -0.0724  0.1567 -0.1366
18079SOL    HW155678   5.351   2.293   1.770  1.2425  0.5880 -0.0376
18079SOL    HW255679   5.446   2.264   1.883 -0.4220  0.0813  1.2778
18080SOL     OW55680   4.920   6.212   7.430 -0.3322  0.3631  0.2778
18080SOL    HW155681   4.955   6.246   7.348  0.4535  0.4990  0.6591
18080SOL    HW255682   4.825   6.226   7.424 -0.0397  2.9610  0.5489
18081SOL     OW55683   4.305   7.891   9.014  0.5336  0.4001  0.1839
18081SOL    HW155684   4.388   7.856   8.981  0.4005 -0.9862  1.1841
18081SOL    HW255685   4.245   7.816   9.011 -1.2089  1.7781 -2.0916
18082SOL     OW55686   7.536   5.434   1.574 -0.2390  0.3357  0.4079
18082SOL    HW155687   7.574   5.348   1.591  0.0028  0.7509  2.3045
18082SOL    HW255688   7.495   5.427   1.488  0.1378 -1.5335  0.3469
18083SOL     OW55689   5.599   7.433   9.002 -0.0855  0.3304 -0.3507
18083SOL    HW155690   5.564   7.398   8.920 -0.0022  1.6967 -1.0133
18083SOL    HW255691   5.650   7.361   9.039 -2.0919 -1.1115 -0.2541
18084SOL     OW55692   7.545   0.594   0.738  0.1646  0.6526 -0.1218
18084SOL    HW155693   7.536   0.684   0.708 -1.5134  0.4465 -0.3235
18084SOL    HW255694   7.455   0.560   0.740  0.7561 -0.9923  0.0087
18085SOL     OW55695   0.315   4.691  11.649  0.4846  0.5361  0.1225
18085SOL    HW155696   0.299   4.771  11.598 -0.4552 -1.3326 -2.7912
18085SOL    HW255697   0.394   4.653  11.610 -0.4712 -1.1508 -0.2729
18086SOL     OW55698   7.376   0.916   4.450 -0.1903 -0.2485 -0.1033
18086SOL    HW155699   7.360   0.827   4.483 -0.7986  0.1645  0.7591
18086SOL    HW255700   7.345   0.914   4.360  0.5328 -1.1199 -0.3579
18087SOL     OW55701   5.162   1.790   8.829 -0.5738  0.0959 -0.0323
18087SOL    HW155702   5.163   1.731   8.753  2.3735 -1.0849  0.7561
18087SOL    HW255703   5.123   1.738   8.899  0.9080 -0.5702  0.3494
18088SOL     OW55704   5.281   4.314   7.442  0.2604  0.1128 -0.6428
18088SOL    HW155705   5.256   4.255   7.513 -0.3789 -0.4846 -1.3393
18088SOL    HW255706   5.324   4.388   7.485  0.0260 -0.3153  0.3417
18089SOL     OW55707   4.210   1.428   5.822  0.0028 -0.2849  0.5955
18089SOL    HW155708   4.275   1.476   5.772 -0.1825  0.6329  1.2003
18089SOL    HW255709   4.205   1.475   5.906 -1.9496  0.1273  0.2944
18090SOL     OW55710   5.153   5.057   6.302 -0.1723 -0.1057 -0.0500
18090SOL    HW155711   5.066   5.020   6.318 -0.2185  0.8864  2.4986
18090SOL    HW255712   5.135   5.141   6.259 -0.2836 -1.0142 -1.8716
18091SOL     OW55713   4.933   7.080   3.012 -0.4847 -0.4593  0.3721
18091SOL    HW155714   4.905   7.160   3.056  0.1129 -0.2530  0.3863
18091SOL    HW255715   4.863   7.061   2.950 -0.3823  0.3838 -0.0216
18092SOL     OW55716   6.994   0.700  10.441 -0.0544  0.0370  0.2775
18092SOL    HW155717   6.911   0.680  10.485 -0.3371 -3.3420 -1.5300
18092SOL    HW255718   7.060   0.652  10.491  0.5155  0.8909  0.3690
18093SOL     OW55719   0.123   5.518   7.197 -0.1534 -0.4400  0.4156
18093SOL    HW155720   0.094   5.443   7.249  1.1071 -2.5026 -1.6395
18093SOL    HW255721   0.202   5.487   7.152 -1.5697  0.8208 -3.3520
18094SOL     OW55722   1.915   0.717  11.310  0.0340  0.6985  0.1875
18094SOL    HW155723   2.004   0.731  11.278  0.2612  0.9488  0.8943
18094SOL    HW255724   1.923   0.723  11.406 -0.6727  0.3309  0.2781
18095SOL     OW55725   0.563   6.943   4.847 -0.3361  0.2157  0.1030
18095SOL    HW155726   0.531   7.017   4.796 -1.3646  0.2585  0.7870
18095SOL    HW255727   0.536   6.866   4.796 -0.5277  0.2769  0.1122
18096SOL     OW55728   1.243   7.259  11.834  0.3405  0.0051  0.2384
18096SOL    HW155729   1.255   7.334  11.775 -0.4880 -0.6436 -0.8013
18096SOL    HW255730   1.275   7.184  11.784 -0.1574 -0.5265  0.6944
18097SOL     OW55731   2.055   3.662   7.767 -0.1834  0.0752 -0.3909
18097SOL    HW155732   2.147   3.687   7.764  0.0509 -0.5430  0.9154
18097SOL    HW255733   2.034   3.635   7.678  1.0922 -0.4130 -0.5601
18098SOL     OW55734   3.856   7.862   3.455  0.2096  0.2478  0.1765
18098SOL    HW155735   3.839   7.831   3.366 -0.6567  0.1918  0.3517
18098SOL    HW255736   3.833   7.789   3.511  0.4035  0.4073  0.4665
18099SOL     OW55737   6.068   3.177   8.316  0.0598  0.3929  0.2317
18099SOL    HW155738   5.982   3.136   8.310  0.6625 -1.1931  1.5236
18099SOL    HW255739   6.123   3.123   8.259  1.0445 -1.2104  2.5681
18100SOL     OW55740   1.303   6.814   5.611  0.0867 -0.2278 -0.5198
18100SOL    HW155741   1.397   6.822   5.626  0.0175 -0.3393 -0.0211
18100SOL    HW255742   1.272   6.756   5.680 -0.1155 -1.3558 -1.5309
18101SOL     OW55743   0.219   0.089  10.630 -0.7865  0.2605  0.1415
18101SOL    HW155744   0.133   0.049  10.639 -1.3716  1.8295  2.2806
18101SOL    HW255745   0.207   0.159  10.565 -1.0677  0.3377  0.2789
18102SOL     OW55746   7.621   1.085  10.731  0.0830  0.2793 -0.0511
18102SOL    HW155747   7.606   1.059  10.640 -0.5897  2.7491 -0.7214
18102SOL    HW255748   7.538   1.126  10.758  0.8056  1.0057  1.1345
18103SOL     OW55749   1.846   4.776   7.718  0.0085 -0.2793 -0.0196
18103SOL    HW155750   1.833   4.862   7.759 -0.9550 -0.4220  0.0051
18103SOL    HW255751   1.939   4.757   7.729 -0.0697  0.0668  1.3327
18104SOL     OW55752   4.108   5.023   1.712  0.0198 -0.1922  0.2490
18104SOL    HW155753   4.140   5.021   1.622 -1.1645 -0.5272 -0.1888
18104SOL    HW255754   4.187   5.029   1.766  0.7276  0.4103 -0.8175
18105SOL     OW55755   1.026   6.279   1.692  0.4455 -0.2447  0.0220
18105SOL    HW155756   0.987   6.253   1.609  0.2279  0.5937 -0.1501
18105SOL    HW255757   1.082   6.206   1.717  0.6703 -0.4123 -0.9670
18106SOL     OW55758   3.000   7.087   6.713  0.4071 -0.2389 -1.2451
18106SOL    HW155759   3.084   7.061   6.750  0.9945  0.4251 -2.0565
18106SOL    HW255760   3.023   7.151   6.645 -0.8345  0.9300 -0.6023
18107SOL     OW55761   2.506   5.706   9.776  0.1367  0.0967  0.2433
18107SOL    HW155762   2.438   5.766   9.807 -0.4514  0.5398 -1.7683
18107SOL    HW255763   2.477   5.620   9.805 -0.4746  0.4561  0.7313
18108SOL     OW55764   5.667   0.325   8.778 -0.4982 -0.0856  0.2380
18108SOL    HW155765   5.616   0.289   8.850 -1.0815 -0.3972 -0.3254
18108SOL    HW255766   5.625   0.291   8.699 -0.0784  0.5287 -0.2603
18109SOL     OW55767   1.121   6.435  11.490  0.1141  0.4135  0.9745
18109SOL    HW155768   1.185   6.380  11.534  0.6677  1.1213  1.0789
18109SOL    HW255769   1.063   6.374  11.445  1.8050 -0.2341 -0.4292
18110SOL     OW55770   0.240   2.782   0.053 -0.1295 -0.2367  0.0839
18110SOL    HW155771   0.171   2.719   0.033 -1.1289  0.9935 -0.4295
18110SOL    HW255772   0.319   2.743   0.017 -0.4002 -1.9592  1.2056
18111SOL     OW55773   1.031   5.951   0.578  0.1360 -0.5478 -0.4289
18111SOL    HW155774   0.940   5.972   0.597  0.4762 -0.1193  0.8146
18111SOL    HW255775   1.049   5.994   0.494 -0.9180 -0.9938 -0.8928
18112SOL     OW55776   1.907   3.632  10.000 -0.5203  0.1141 -0.6373
18112SOL    HW155777   1.826   3.631   9.948 -1.0504  1.6826  0.0996
18112SOL    HW255778   1.976   3.618   9.935 -1.2585  0.6734 -1.5770
18113SOL     OW55779   6.719   3.826   7.682 -0.2554 -0.3349 -0.5323
18113SOL    HW155780   6.697   3.917   7.701 -2.6005 -1.1972  1.6138
18113SOL    HW255781   6.778   3.800   7.752  2.3378  0.0529 -2.4315
18114SOL     OW55782   0.830   4.893   1.135  0.0783  1.2224 -0.1427
18114SOL    HW155783   0.892   4.917   1.204 -1.1259  0.5748  1.2297
18114SOL    HW255784   0.799   4.976   1.100  0.4678  1.5631  0.3081
18115SOL     OW55785   7.763   4.907  11.733 -0.4833  0.0065  0.0827
18115SOL    HW155786   7.703   4.836  11.709  0.0277 -0.2842 -0.3911
18115SOL    HW255787   7.792   4.885  11.822  2.2065 -2.2758 -1.1727
18116SOL     OW55788   6.018   7.018  10.242 -0.2895  0.2723 -0.1537
18116SOL    HW155789   5.977   7.103  10.223  0.2730  0.1608 -2.0777
18116SOL    HW255790   5.961   6.954  10.199 -0.6900 -0.3553  1.2548
18117SOL     OW55791   7.559   5.250   6.428  0.2314  0.0474  0.4815
18117SOL    HW155792   7.535   5.339   6.401  1.5667  1.0951  2.5204
18117SOL    HW255793   7.493   5.194   6.386  0.3121  1.7908 -2.1894
18118SOL     OW55794   0.124   5.660   6.143  0.7533  0.1426  0.1990
18118SOL    HW155795   0.138   5.691   6.232 -2.4206 -1.1230  1.2468
18118SOL    HW255796   0.157   5.570   6.142  2.2414  0.6479 -0.4514
18119SOL     OW55797   0.334   0.406  12.361  0.1244  0.1312  0.0029
18119SOL    HW155798   0.347   0.368  12.274  1.4589 -0.3544  0.3776
18119SOL    HW255799   0.285   0.487  12.345  0.3813  0.0745 -1.2063
18120SOL     OW55800   3.107   7.388   6.254  0.0643 -0.2539  0.8208
18120SOL    HW155801   3.123   7.477   6.224 -1.6254 -0.0699  0.3819
18120SOL    HW255802   3.128   7.334   6.177 -1.2127 -0.0293  0.2940
18121SOL     OW55803   4.921   5.241   8.565  0.0896  0.1569  0.0763
18121SOL    HW155804   4.945   5.288   8.485 -0.8127  2.0046  0.8422
18121SOL    HW255805   4.978   5.277   8.633 -0.5037  0.0289  0.6542
18122SOL     OW55806   2.324   2.272   2.966 -0.1761 -0.0430 -0.3492
18122SOL    HW155807   2.284   2.190   2.937 -0.3729 -1.2295  2.9639
18122SOL    HW255808   2.417   2.262   2.945 -0.1309 -1.3204  0.3994
18123SOL     OW55809   1.758   6.735  10.562  0.2296  0.1891 -0.5063
18123SOL    HW155810   1.800   6.814  10.594  0.3154 -0.3929  0.8631
18123SOL    HW255811   1.694   6.712  10.629  0.2712 -0.9585 -0.8416
18124SOL     OW55812   6.677   1.380   7.143 -0.3642 -0.3438  0.2636
18124SOL    HW155813   6.662   1.349   7.232 -0.9334 -0.9206 -0.0246
18124SOL    HW255814   6.661   1.304   7.088  0.4044 -0.1041 -0.3094
18125SOL     OW55815   5.934   2.510   1.454 -0.0521 -0.2471  0.0959
18125SOL    HW155816   6.002   2.577   1.448  0.8664 -0.9621  1.7882
18125SOL    HW255817   5.860   2.546   1.405  0.3368  2.0999  1.0727
18126SOL     OW55818   6.676   4.147   7.629  0.2484 -0.2641 -0.2222
18126SOL    HW155819   6.649   4.182   7.544 -0.5098  0.9758  0.4914
18126SOL    HW255820   6.767   4.172   7.638  0.1165  0.2774 -0.3556
18127SOL     OW55821   5.633   1.719  11.951 -0.1355 -0.2173 -0.5180
18127SOL    HW155822   5.698   1.789  11.964  0.1079 -0.5249 -0.0667
18127SOL    HW255823   5.637   1.668  12.031 -0.6275 -0.4971 -0.6739
18128SOL     OW55824   3.097   6.740   3.086  0.7123  0.3282  0.0983
18128SOL    HW155825   3.026   6.755   3.149  1.2908 -0.1718  0.8864
18128SOL    HW255826   3.176   6.765   3.133  1.0290  1.2790 -0.9212
18129SOL     OW55827   3.978   3.592   9.637  0.0804  0.6310  0.4848
18129SOL    HW155828   3.929   3.662   9.681 -1.1287  0.7905 -1.0435
18129SOL    HW255829   4.051   3.638   9.594  1.8123  0.3673  2.9321
18130SOL     OW55830   6.190   3.475   7.926 -0.3077  0.0219  0.1499
18130SOL    HW155831   6.188   3.379   7.924 -2.1282  0.0299 -0.3186
18130SOL    HW255832   6.196   3.497   8.018  0.4864 -0.5320  0.2412
18131SOL     OW55833   1.790   7.814   7.626 -0.4576  0.3633  0.1121
18131SOL    HW155834   1.706   7.829   7.583 -0.3329 -0.5597 -0.4718
18131SOL    HW255835   1.767   7.787   7.715 -0.8269 -0.8970 -0.3488
18132SOL     OW55836   3.323   7.299  10.493 -0.2178  0.4074  0.5231
18132SOL    HW155837   3.410   7.339  10.490 -0.1041  0.1517  0.4380
18132SOL    HW255838   3.316   7.262  10.581  0.1131 -0.3693  0.2249
18133SOL     OW55839   7.637   4.919   6.981  0.2876  0.0356  0.0158
18133SOL    HW155840   7.715   4.924   6.926  0.1131  0.2180 -0.2192
18133SOL    HW255841   7.579   4.988   6.948 -0.7156 -1.2247 -0.9828
18134SOL     OW55842   5.748   4.482   5.164  0.3158 -0.5311  0.2665
18134SOL    HW155843   5.783   4.569   5.185  0.7868 -0.6692  0.0609
18134SOL    HW255844   5.654   4.497   5.151 -0.0534 -0.4506  2.5517
18135SOL     OW55845   6.171   5.450  11.456  0.4952 -0.4913  0.5411
18135SOL    HW155846   6.109   5.474  11.525  0.5991  2.1390 -0.1425
18135SOL    HW255847   6.169   5.525  11.396  2.2365 -1.5941 -0.9994
18136SOL     OW55848   4.443   4.546   7.386  0.1786  0.2514 -0.5215
18136SOL    HW155849   4.417   4.458   7.410 -0.7865  0.2300 -1.5919
18136SOL    HW255850   4.387   4.603   7.439 -0.9412  0.2031 -1.6148
18137SOL     OW55851   1.933   3.785   8.514  0.4468 -0.0264 -0.1123
18137SOL    HW155852   1.926   3.780   8.610 -2.2651  0.3261 -0.2140
18137SOL    HW255853   1.990   3.861   8.499  0.1907  0.4725  1.2307
18138SOL     OW55854   2.165   1.807   9.925 -0.0014  0.0594  0.1173
18138SOL    HW155855   2.186   1.856   9.845 -1.6065 -0.2275 -0.5230
18138SOL    HW255856   2.231   1.738   9.928  1.5470  1.4685  0.3724
18139SOL     OW55857   3.048   6.355  11.021  0.1226  0.3078  0.2616
18139SOL    HW155858   3.061   6.304  11.101  1.6485 -0.8468 -0.6499
18139SOL    HW255859   2.970   6.408  11.038 -0.0369 -0.4718  2.2061
18140SOL     OW55860   5.581   3.793   7.318 -0.4568  0.3474 -0.2070
18140SOL    HW155861   5.569   3.876   7.366  0.5009  0.9363 -0.9476
18140SOL    HW255862   5.500   3.745   7.334 -0.2634  0.5986  1.8216
18141SOL     OW55863   2.689   5.847   9.044  0.4077 -0.0506  0.5692
18141SOL    HW155864   2.721   5.841   9.135  0.8063  1.5818  0.5617
18141SOL    HW255865   2.642   5.930   9.040 -2.6026 -1.6278  0.1378
18142SOL     OW55866   6.103   2.938   8.632  0.4138  0.0096  0.3356
18142SOL    HW155867   6.090   3.032   8.636  1.5882  0.2360 -0.4355
18142SOL    HW255868   6.029   2.900   8.679 -1.7823  1.1706 -1.9344
18143SOL     OW55869   2.860   5.779   1.258  0.5012 -0.3933 -0.0974
18143SOL    HW155870   2.929   5.845   1.269  2.0716 -2.0774  0.7952
18143SOL    HW255871   2.895   5.719   1.193 -0.7069 -0.6047 -0.5656
18144SOL     OW55872   2.345   1.342   0.061  0.0339  0.0485  0.1680
18144SOL    HW155873   2.349   1.385   0.146  0.9629 -1.0676  0.7108
18144SOL    HW255874   2.253   1.352   0.034 -0.0307  1.3330  0.7932
18145SOL     OW55875   0.301   4.278   2.718 -0.0900 -0.3011 -0.3460
18145SOL    HW155876   0.366   4.237   2.775  0.2335  1.0109  0.2895
18145SOL    HW255877   0.339   4.273   2.631  1.2192  1.0290  0.1043
18146SOL     OW55878   1.593   0.058   0.262  0.0557  0.2244 -0.1521
18146SOL    HW155879   1.511   0.107   0.261  0.6980  1.3502  0.4213
18146SOL    HW255880   1.573  -0.020   0.313  0.1876  2.1439  3.1277
18147SOL     OW55881   0.495   4.816   5.777 -0.0344  0.1257  0.3057
18147SOL    HW155882   0.578   4.778   5.807  0.0118 -0.2402 -0.2676
18147SOL    HW255883   0.520   4.874   5.705 -0.0289  1.7759  1.5715
18148SOL     OW55884   1.004   3.793  10.326 -0.5047  0.3220  0.3395
18148SOL    HW155885   1.066   3.860  10.297  0.1028  0.6686  2.2831
18148SOL    HW255886   1.045   3.710  10.302 -0.2190  0.5958 -0.1254
18149SOL     OW55887   2.288   0.803   6.601  0.3235  0.2182 -0.3779
18149SOL    HW155888   2.328   0.879   6.559  1.4151 -0.3473 -0.4021
18149SOL    HW255889   2.362   0.751   6.634 -0.3777 -0.9512 -0.5630
18150SOL     OW55890   1.081   7.540   0.313  0.6976  0.0757 -0.1356
18150SOL    HW155891   1.056   7.480   0.243  0.2412  0.4935 -0.3377
18150SOL    HW255892   1.024   7.517   0.387  0.5184  0.2582 -0.2150
18151SOL     OW55893   1.883   7.411   1.818 -0.0618  0.3887  0.3293
18151SOL    HW155894   1.804   7.363   1.843 -0.1382 -0.1619 -0.8836
18151SOL    HW255895   1.851   7.500   1.801 -0.8879 -0.3000 -2.2172
18152SOL     OW55896   6.439   3.143   5.887  0.4784 -0.2199 -1.0003
18152SOL    HW155897   6.528   3.109   5.899  1.5423  1.5477 -3.1298
18152SOL    HW255898   6.410   3.104   5.805 -0.4979 -0.3058 -0.6230
18153SOL     OW55899   6.734   5.966   0.899 -0.1886  0.1038  0.6724
18153SOL    HW155900   6.774   6.040   0.855  0.4713 -0.2146  0.7281
18153SOL    HW255901   6.802   5.899   0.901 -1.6632 -1.6622 -2.1506
18154SOL     OW55902   1.742   6.203   1.999 -0.2609 -0.2063  0.1156
18154SOL    HW155903   1.796   6.128   2.020 -1.0983 -1.3838 -1.6896
18154SOL    HW255904   1.657   6.166   1.974 -1.0932  1.4183  0.3321
18155SOL     OW55905   5.069   2.322   3.265  0.2580  0.2149 -0.3446
18155SOL    HW155906   5.029   2.309   3.351 -0.5328 -0.7274 -0.8330
18155SOL    HW255907   5.163   2.321   3.282  0.2196 -2.4683  0.2425
18156SOL     OW55908   0.812   2.041   0.129  0.3861  0.2623 -0.0974
18156SOL    HW155909   0.818   1.992   0.046  0.1472 -1.5791  0.9177
18156SOL    HW255910   0.812   2.133   0.102  1.7909 -0.2344 -2.0459
18157SOL     OW55911   6.108   0.017   8.692 -0.3996 -0.3003 -0.1627
18157SOL    HW155912   6.147  -0.044   8.629  1.0036 -0.7293  1.0766
18157SOL    HW255913   6.022   0.038   8.654  0.0868 -1.1228 -1.8296
18158SOL     OW55914   0.680   7.204   5.914  0.3985  0.4300 -0.1481
18158SOL    HW155915   0.588   7.230   5.911  0.0339 -0.8686 -0.7066
18158SOL    HW255916   0.711   7.214   5.824  1.4551  2.9351  0.3894
18159SOL     OW55917   3.814   2.400   7.909  0.0640  0.3960  0.4848
18159SOL    HW155918   3.819   2.490   7.940 -2.8557  0.5826  0.6838
18159SOL    HW255919   3.825   2.347   7.988  0.1599  0.6014  0.6118
18160SOL     OW55920   1.846   5.397   4.061  0.3781  0.3633  0.0225
18160SOL    HW155921   1.906   5.376   4.132 -1.8809 -0.8592  1.6924
18160SOL    HW255922   1.883   5.353   3.985  0.6924 -1.9246  1.3965
18161SOL     OW55923   4.922   2.622  10.921  0.0113 -0.4963 -0.4843
18161SOL    HW155924   4.868   2.605  10.843 -0.7319  1.2332 -0.3997
18161SOL    HW255925   4.858   2.636  10.991  0.5524  0.8698 -0.2236
18162SOL     OW55926   5.854   7.731   2.713  0.7113  0.1620  0.2416
18162SOL    HW155927   5.923   7.738   2.646  1.7371 -1.7118  1.0265
18162SOL    HW255928   5.817   7.644   2.701 -0.7032  0.6748  0.6525
18163SOL     OW55929   4.572   2.070   8.537  0.1785  0.4567 -0.2059
18163SOL    HW155930   4.646   2.083   8.479  0.2027  2.2592  0.1628
18163SOL    HW255931   4.502   2.123   8.499  0.5954  2.8588  2.0268
18164SOL     OW55932   6.166   1.388  11.528  0.2369  0.1147 -0.2821
18164SOL    HW155933   6.081   1.427  11.509  0.7038  0.6514 -1.3733
18164SOL    HW255934   6.228   1.439  11.476  1.3193  0.1661  1.0159
18165SOL     OW55935   5.725   3.681  10.649 -0.3471  0.0556  0.4876
18165SOL    HW155936   5.715   3.728  10.566  1.0211  0.0425  0.2901
18165SOL    HW255937   5.636   3.662  10.677 -0.8727  1.2891 -0.2806
18166SOL     OW55938   4.245   7.311   3.584  0.7039 -0.2085  0.3441
18166SOL    HW155939   4.188   7.380   3.551  1.1927  0.2837  0.5279
18166SOL    HW255940   4.206   7.285   3.668  1.1757  0.6698  0.8483
18167SOL     OW55941   2.828   3.333  12.249  0.4143 -0.0464 -0.1488
18167SOL    HW155942   2.862   3.336  12.160  2.3549  1.5647  0.5671
18167SOL    HW255943   2.875   3.261  12.290 -1.4405 -1.6599 -0.7176
18168SOL     OW55944   5.913   7.092   6.146 -0.1502  0.2185  0.4090
18168SOL    HW155945   5.966   7.123   6.219 -1.4373  0.4762  1.2807
18168SOL    HW255946   5.844   7.158   6.137 -0.3459 -0.1179 -0.6623
18169SOL     OW55947   6.319   0.673   4.296  0.0716 -0.2998 -0.0846
18169SOL    HW155948   6.363   0.625   4.366  1.9547  0.7223 -0.4896
18169SOL    HW255949   6.343   0.626   4.216 -1.8205 -1.2857 -0.1392
18170SOL     OW55950   4.067   7.356   4.198 -0.1107  0.2775 -0.3348
18170SOL    HW155951   3.984   7.405   4.201 -0.7158 -0.6956 -0.7056
18170SOL    HW255952   4.047   7.278   4.147  1.1447  0.1965 -0.7388
18171SOL     OW55953   0.241   2.775  10.226  0.1995 -0.1739 -0.4525
18171SOL    HW155954   0.326   2.764  10.184 -0.7069 -0.0494 -2.3976
18171SOL    HW255955   0.226   2.691  10.271  2.0698  0.3960  1.4330
18172SOL     OW55956   5.248   5.816   0.443  0.2872 -0.5063 -0.4788
18172SOL    HW155957   5.325   5.793   0.392 -0.0148  0.4632 -1.3954
18172SOL    HW255958   5.266   5.903   0.477  0.3172 -0.9726  0.7828
18173SOL     OW55959   3.907   7.273   5.342  0.0403 -1.0208 -0.5623
18173SOL    HW155960   3.862   7.223   5.410 -2.0105  0.0293 -1.0511
18173SOL    HW255961   3.841   7.284   5.274  0.9787  0.8083 -1.2331
18174SOL     OW55962   5.574   3.267   7.476 -0.4583  0.0044  0.1546
18174SOL    HW155963   5.621   3.350   7.467  0.6197 -0.4036  1.6958
18174SOL    HW255964   5.525   3.277   7.557 -1.1466 -0.4987 -0.1884
18175SOL     OW55965   2.895   7.849   9.360  0.3577 -0.1014 -0.0025
18175SOL    HW155966   2.986   7.842   9.330  0.9126  2.4937  0.8712
18175SOL    HW255967   2.843   7.851   9.279  1.0385 -1.3703 -0.5068
18176SOL     OW55968   0.049   2.043   9.581 -0.0650  0.3463 -0.1431
18176SOL    HW155969  -0.032   1.992   9.577 -0.7632  1.3949  0.2202
18176SOL    HW255970   0.091   2.015   9.662 -0.0404 -0.2267 -0.3508
18177SOL     OW55971   1.183   0.677   9.486  0.1980 -0.0111  0.5230
18177SOL    HW155972   1.124   0.645   9.554 -0.6543  1.6197  0.6078
18177SOL    HW255973   1.208   0.765   9.516  1.7240 -0.1913 -0.1144
18178SOL     OW55974   0.948   6.041   6.070  0.0995 -0.0318  0.0566
18178SOL    HW155975   0.904   6.118   6.106  0.7759 -1.0139  3.2751
18178SOL    HW255976   0.877   5.983   6.041 -0.4414  1.1091 -0.9897
18179SOL     OW55977   7.683   4.458   5.961 -0.3734 -0.3078  0.2527
18179SOL    HW155978   7.779   4.452   5.966 -0.3264 -0.7934 -0.8452
18179SOL    HW255979   7.661   4.407   5.884 -1.5305 -0.1983  0.5043
18180SOL     OW55980   0.391   6.990   5.612  0.0146  0.0517  0.3850
18180SOL    HW155981   0.309   7.031   5.639 -0.0508 -0.6462  1.2835
18180SOL    HW255982   0.367   6.899   5.595  0.6665 -0.2311  0.9601
18181SOL     OW55983   5.688   7.056   7.139 -0.1478  0.2385 -0.2493
18181SOL    HW155984   5.597   7.026   7.142 -0.6412  1.5748  3.4158
18181SOL    HW255985   5.682   7.149   7.118  0.6064 -0.0879 -2.0794
18182SOL     OW55986   5.231   1.776   4.905  0.2038  0.0194 -0.3023
18182SOL    HW155987   5.180   1.705   4.946 -1.9518  1.9255  0.5376
18182SOL    HW255988   5.261   1.829   4.979  1.9891 -0.0976 -0.9066
18183SOL     OW55989   4.944   0.504   9.251  0.0374 -0.4762  0.3179
18183SOL    HW155990   4.959   0.464   9.336 -1.3553 -0.4899  0.5917
18183SOL    HW255991   4.948   0.598   9.268  2.0471 -0.4609 -0.0764
18184SOL     OW55992   0.931   1.725   0.314 -0.5561  0.7056  0.1096
18184SOL    HW155993   0.847   1.695   0.278 -0.5957  0.2714  0.5558
18184SOL    HW255994   0.991   1.722   0.240 -0.6620 -0.0913  0.0476
18185SOL     OW55995   7.206   2.580   6.194  0.3749 -0.1712 -0.0649
18185SOL    HW155996   7.173   2.604   6.281  1.8895  1.5102  0.1016
18185SOL    HW255997   7.141   2.518   6.160 -1.9616  1.5599  0.9530
18186SOL     OW55998   6.587   2.149  12.428  0.0058  0.4530  1.0499
18186SOL    HW155999   6.673   2.125  12.463  1.1335 -1.4414 -2.5276
18186SOL    HW256000   6.532   2.073  12.445 -0.3307  0.7701  1.3888
18187SOL     OW56001   2.801   7.313   8.506  0.6633 -0.1218  0.2317
18187SOL    HW156002   2.733   7.311   8.574 -0.1166  1.2425 -0.4662
18187SOL    HW256003   2.884   7.311   8.554  0.1370 -0.7464  1.1410
18188SOL     OW56004   7.241   5.832   2.643 -0.1589  0.5415  0.1623
18188SOL    HW156005   7.242   5.759   2.705  1.2655  1.9217  1.8782
18188SOL    HW256006   7.151   5.864   2.645 -0.1414  0.5700  1.5865
18189SOL     OW56007   3.217   6.740   2.814  0.0725 -0.0952  0.1525
18189SOL    HW156008   3.208   6.658   2.864 -0.0160  0.4603  1.0657
18189SOL    HW256009   3.165   6.804   2.863  1.2385  0.8364  0.2109
18190SOL     OW56010   4.685   5.488  11.076  0.1168  0.1318 -0.0376
18190SOL    HW156011   4.666   5.492  10.982  1.4370 -0.4011 -0.3597
18190SOL    HW256012   4.715   5.398  11.090  1.2663  0.5870  0.6013
18191SOL     OW56013   0.830   3.965   9.039 -0.1663 -0.1268 -0.4335
18191SOL    HW156014   0.816   3.973   9.133 -1.4204  1.8793 -0.7197
18191SOL    HW256015   0.925   3.967   9.028  0.0002  1.9003  0.7019
18192SOL     OW56016   1.064   1.803   1.753  0.1920 -0.2891 -0.4096
18192SOL    HW156017   1.023   1.832   1.671  0.8550  0.3651 -0.5083
18192SOL    HW256018   0.990   1.782   1.810 -0.2796 -0.1212 -0.9507
18193SOL     OW56019   4.089   2.931   2.799 -0.6000  0.0352  0.3496
18193SOL    HW156020   4.070   2.946   2.707 -0.8631 -1.5623  0.1109
18193SOL    HW256021   4.177   2.966   2.811  0.4461 -1.8275 -1.1450
18194SOL     OW56022   1.866   6.094  10.767  0.6653  0.4624 -0.3823
18194SOL    HW156023   1.869   6.081  10.672  0.5932  1.4513 -0.5298
18194SOL    HW256024   1.830   6.182  10.778  1.2380  0.5934  0.5497
18195SOL     OW56025   2.699   5.538   9.013 -0.0911 -0.1718  0.5112
18195SOL    HW156026   2.792   5.555   8.999 -0.3990  0.1810 -1.4383
18195SOL    HW256027   2.655   5.616   8.977 -1.2381 -1.6458 -1.4616
18196SOL     OW56028   2.641   2.726  11.942 -0.0810 -0.1531  1.2797
18196SOL    HW156029   2.703   2.767  12.002  1.5542 -0.2340 -0.2792
18196SOL    HW256030   2.599   2.657  11.994  3.3411 -2.1571  1.6671
18197SOL     OW56031   4.731   7.238   8.589 -0.7047 -0.2165  0.2292
18197SOL    HW156032   4.750   7.327   8.620  0.0919  0.0832 -1.0250
18197SOL    HW256033   4.815   7.207   8.556 -1.2391 -1.0026 -0.4113
18198SOL     OW56034   4.795   6.651   6.018 -0.0387 -0.0885  0.2394
18198SOL    HW156035   4.745   6.729   6.040 -0.9865 -0.2194 -1.3020
18198SOL    HW256036   4.871   6.683   5.969  0.3317 -0.0425  0.8333
18199SOL     OW56037   2.118   4.754   5.639 -0.0190  0.6782 -0.3984
18199SOL    HW156038   2.134   4.745   5.544  1.3723 -0.7796 -0.0838
18199SOL    HW256039   2.057   4.827   5.646 -0.9419  0.2094 -2.4916
18200SOL     OW56040   5.267   0.297   9.548  0.0978  0.4435  0.4739
18200SOL    HW156041   5.249   0.224   9.607 -0.3874  1.7737  2.0463
18200SOL    HW256042   5.215   0.278   9.470  0.0118 -0.8891  0.8341
18201SOL     OW56043   5.630   0.759  12.121  0.3730  0.8771  0.4018
18201SOL    HW156044   5.685   0.731  12.194 -0.6921  0.8047  1.1912
18201SOL    HW256045   5.555   0.801  12.161 -0.7470 -0.0869 -0.6079
18202SOL     OW56046   5.968   1.711   9.167 -0.0078 -0.0408 -0.2671
18202SOL    HW156047   6.049   1.680   9.127  0.1171  0.0068 -0.0532
18202SOL    HW256048   5.955   1.653   9.242  2.2224  2.6149  2.4524
18203SOL     OW56049   7.260   7.935   8.454  0.0404 -0.1222  0.1809
18203SOL    HW156050   7.211   7.875   8.510  1.3171  0.8368  2.4797
18203SOL    HW256051   7.305   7.993   8.516  2.6964  0.1084 -1.7954
18204SOL     OW56052   7.514   7.775   5.813 -0.0518 -0.0080  0.4774
18204SOL    HW156053   7.419   7.782   5.805 -0.3342 -2.2476  1.1453
18204SOL    HW256054   7.531   7.791   5.906  0.0356 -1.0613  0.6513
18205SOL     OW56055   3.731   2.181   7.764 -0.0483 -0.1106  0.1692
18205SOL    HW156056   3.706   2.232   7.841 -0.0608 -0.3148  0.2996
18205SOL    HW256057   3.648   2.150   7.728 -0.0986  0.5713 -0.3355
18206SOL     OW56058   5.587   7.796   8.213  0.2842  0.0812  0.0371
18206SOL    HW156059   5.523   7.775   8.281  0.9116 -1.0602  0.2887
18206SOL    HW256060   5.665   7.825   8.261  0.3856  0.2425 -0.2232
18207SOL     OW56061   3.172   1.265   5.541  0.3921 -0.3415  0.0513
18207SOL    HW156062   3.106   1.206   5.577  1.1707 -0.3726  1.5118
18207SOL    HW256063   3.123   1.327   5.487 -0.6699 -1.0922  0.1312
18208SOL     OW56064   2.456   7.238   1.863  0.5990 -0.3057  0.9906
18208SOL    HW156065   2.437   7.309   1.924 -0.2998 -0.9033  1.4130
18208SOL    HW256066   2.483   7.165   1.919  1.3916 -0.3486  0.5663
18209SOL     OW56067   7.677   1.649   1.666  1.0722 -0.5865  0.1228
18209SOL    HW156068   7.627   1.661   1.746 -0.4907 -2.1961 -0.5335
18209SOL    HW256069   7.612   1.652   1.596  2.1060 -1.2295 -0.9098
18210SOL     OW56070   1.631   2.626  12.015  0.3617  0.0337  0.4151
18210SOL    HW156071   1.610   2.585  11.931 -1.0380  0.6823  0.4166
18210SOL    HW256072   1.547   2.657  12.048  1.0105  0.5445  1.6686
18211SOL     OW56073   7.730   2.738   9.823  0.1163  0.1631  0.6001
18211SOL    HW156074   7.697   2.671   9.763 -1.1945  0.6225  0.7763
18211SOL    HW256075   7.823   2.717   9.833 -0.0822 -1.1282  0.0068
18212SOL     OW56076   3.059   7.105   8.468  0.2595  0.4090 -0.0292
18212SOL    HW156077   3.037   7.172   8.404 -1.4388 -0.6638 -0.6374
18212SOL    HW256078   3.049   7.149   8.553  0.2544  1.2241 -0.4446
18213SOL     OW56079   5.595   3.936   5.179  0.4538 -0.3086 -0.0704
18213SOL    HW156080   5.516   3.944   5.234  1.1049  1.5956  0.6435
18213SOL    HW256081   5.665   3.916   5.241  1.1768  1.7430 -0.1417
18214SOL     OW56082   2.168   2.190   7.059  0.4180  0.0872  0.1282
18214SOL    HW156083   2.257   2.218   7.042 -0.5643  1.6879 -3.1685
18214SOL    HW256084   2.123   2.269   7.090 -1.0107  0.9777 -3.6458
18215SOL     OW56085   1.897   3.282   0.624  0.7324 -1.3822  0.4847
18215SOL    HW156086   1.837   3.345   0.584  1.7185  0.1686  1.3218
18215SOL    HW256087   1.856   3.197   0.611 -0.5734 -0.5823 -0.8390
18216SOL     OW56088   3.182   7.092  11.821 -0.4198  0.3901  0.2845
18216SOL    HW156089   3.153   7.023  11.761  0.7241 -0.3792  0.6012
18216SOL    HW256090   3.274   7.107  11.799 -0.9338  2.7242 -0.6290
18217SOL     OW56091   1.117   4.271   2.425 -0.0432  0.2515  0.0124
18217SOL    HW156092   1.179   4.331   2.383 -0.8836  0.6674 -0.6639
18217SOL    HW256093   1.173   4.206   2.467  0.8685  0.9136 -0.1214
18218SOL     OW56094   6.429   6.899   9.395 -0.0875 -0.4059  0.2302
18218SOL    HW156095   6.500   6.945   9.440  0.0825 -1.8519  1.5271
18218SOL    HW256096   6.454   6.902   9.302 -0.3302  2.4483  0.1747
18219SOL     OW56097   6.156   6.831   9.405  0.0658 -0.9777 -0.7815
18219SOL    HW156098   6.106   6.902   9.365  0.0009 -0.4755  0.1554
18219SOL    HW256099   6.247   6.862   9.401 -0.1371  0.1149  1.4057
18220SOL     OW56100   0.023   3.910   0.305  0.5762 -0.2999  0.5611
18220SOL    HW156101  -0.041   3.944   0.243 -0.6345  1.4195  2.5944
18220SOL    HW256102  -0.030   3.878   0.378  1.9793 -0.1395  1.6903
18221SOL     OW56103   6.363   2.483   5.069  0.0433  0.0429  0.0728
18221SOL    HW156104   6.361   2.391   5.098 -3.2584 -1.0877 -3.0488
18221SOL    HW256105   6.407   2.480   4.984 -1.4883  1.0287 -0.7981
18222SOL     OW56106   5.188   0.460   3.062 -0.1814  0.2324 -0.0887
18222SOL    HW156107   5.228   0.403   3.128 -1.0507 -0.3152 -0.0142
18222SOL    HW256108   5.165   0.539   3.111 -2.6954 -0.9532  0.8152
18223SOL     OW56109   5.286   6.002   3.263 -0.2210 -0.0464  0.5815
18223SOL    HW156110   5.266   6.094   3.281  0.6039  0.6401 -1.7175
18223SOL    HW256111   5.246   5.984   3.178  0.6328 -1.4793  0.4353
18224SOL     OW56112   4.755   5.410   0.134  0.7278  0.3363 -1.1572
18224SOL    HW156113   4.748   5.328   0.182 -1.2388 -0.9174 -3.3605
18224SOL    HW256114   4.781   5.475   0.199 -1.5574 -1.2517  1.5248
18225SOL     OW56115   2.969   1.175   7.167  0.3847  0.1189  0.4147
18225SOL    HW156116   3.006   1.179   7.079  0.4077 -0.2335  0.4068
18225SOL    HW256117   2.886   1.223   7.160  0.3968  0.1119  0.2056
18226SOL     OW56118   0.424   2.297   2.191  0.1702 -0.4853 -0.6103
18226SOL    HW156119   0.471   2.357   2.133 -1.2776  1.2137 -0.1285
18226SOL    HW256120   0.418   2.344   2.274 -0.4392 -1.5966 -0.0043
18227SOL     OW56121   4.314   6.743   8.840 -0.0838 -0.6777  0.3156
18227SOL    HW156122   4.253   6.711   8.774 -0.8198  0.2445  0.5378
18227SOL    HW256123   4.382   6.675   8.844 -0.6656 -1.3315 -0.5003
18228SOL     OW56124   6.945   3.651   3.913 -0.0180  0.0273 -0.0177
18228SOL    HW156125   6.944   3.692   3.827  0.7876  1.4785  0.6232
18228SOL    HW256126   7.021   3.592   3.910  0.0079  0.0719 -0.3101
18229SOL     OW56127   0.585   5.984   5.230  0.2342  0.1649 -0.1601
18229SOL    HW156128   0.501   6.030   5.226  0.0429 -0.2312 -0.8639
18229SOL    HW256129   0.629   6.008   5.149  0.7305  0.2288  0.1256
18230SOL     OW56130   0.085   7.206   7.034  0.1812  0.0837  0.4679
18230SOL    HW156131   0.140   7.134   7.063  0.3389  0.2085  0.4804
18230SOL    HW256132   0.136   7.285   7.052  0.8181  0.1173 -1.2439
18231SOL     OW56133   5.140   6.928   7.218 -0.0367  0.4122 -0.1601
18231SOL    HW156134   5.233   6.919   7.239 -0.2486 -1.2310  0.2178
18231SOL    HW256135   5.137   6.994   7.148  1.7671 -1.7313 -2.4389
18232SOL     OW56136   5.993   0.109   4.707 -0.3557  0.3313  0.0928
18232SOL    HW156137   6.017   0.162   4.783 -0.2198 -0.1488  0.3897
18232SOL    HW256138   5.898   0.106   4.708 -0.3561  0.3933  0.2005
18233SOL     OW56139   5.410   5.521   6.760 -0.5536 -0.2487  0.5450
18233SOL    HW156140   5.316   5.525   6.743 -0.5936  0.8017  0.9647
18233SOL    HW256141   5.417   5.496   6.853 -0.4937  2.1250  1.2427
18234SOL     OW56142   4.386   5.829   9.590  0.1169 -0.1746 -0.3018
18234SOL    HW156143   4.470   5.820   9.636  0.3126 -0.4567 -0.7070
18234SOL    HW256144   4.408   5.813   9.498 -0.1555  0.9903 -0.5925
18235SOL     OW56145   7.938   6.615  12.022 -0.4663  0.0589 -0.0478
18235SOL    HW156146   8.022   6.630  11.979 -0.6648  0.9915 -0.1230
18235SOL    HW256147   7.907   6.702  12.046  0.5901 -0.4564  3.8678
18236SOL     OW56148   5.859   5.317   0.387 -0.5773  0.2721 -0.1948
18236SOL    HW156149   5.783   5.269   0.420 -0.1747  1.0526  2.0974
18236SOL    HW256150   5.932   5.257   0.400 -0.1211  1.2173  2.3867
18237SOL     OW56151   0.377   5.681   5.931  0.1101  0.0035 -0.7705
18237SOL    HW156152   0.339   5.622   5.996  1.3578 -1.7500 -1.5422
18237SOL    HW256153   0.302   5.722   5.888 -0.8233 -1.4059 -0.5325
18238SOL     OW56154   5.275   4.240   3.310 -0.2200 -0.2402  0.1933
18238SOL    HW156155   5.344   4.266   3.371  1.0252 -0.8239 -0.9190
18238SOL    HW256156   5.266   4.146   3.322 -1.0897 -0.1199  0.5705
18239SOL     OW56157   4.446   5.133   1.047 -0.2180  0.5075 -0.7119
18239SOL    HW156158   4.380   5.080   1.091  0.2521  1.0126  0.6582
18239SOL    HW256159   4.421   5.132   0.955 -1.3006 -0.4940 -0.4217
18240SOL     OW56160   6.036   1.060   6.509  0.2969 -0.3126 -0.3642
18240SOL    HW156161   6.083   0.982   6.478  0.8566 -0.7284  1.3746
18240SOL    HW256162   6.043   1.123   6.437  1.7652 -1.0970 -0.9583
18241SOL     OW56163   1.848   0.741   0.148  0.4585  0.3637 -0.1405
18241SOL    HW156164   1.931   0.712   0.110  0.2866 -0.0010 -0.2454
18241SOL    HW256165   1.832   0.679   0.220 -0.0634  0.0073 -0.5580
18242SOL     OW56166   3.120   3.415   1.220  0.4709 -0.3120  0.6670
18242SOL    HW156167   3.099   3.467   1.143 -2.3976 -0.5860  1.1639
18242SOL    HW256168   3.137   3.327   1.187  0.5059 -0.1462  0.2473
18243SOL     OW56169   6.583   4.864   8.233 -0.1212 -0.1893 -0.4933
18243SOL    HW156170   6.525   4.938   8.213 -0.1747 -0.1572 -0.2209
18243SOL    HW256171   6.552   4.793   8.177 -0.4203 -0.1710 -0.3499
18244SOL     OW56172   3.267   6.028   8.976 -0.2902 -0.2736  0.2338
18244SOL    HW156173   3.281   6.072   8.892  1.9318 -2.1706 -0.4827
18244SOL    HW256174   3.196   5.965   8.959 -0.6180  0.1224  0.1164
18245SOL     OW56175   4.454   3.494   3.527  0.0125  0.4384 -0.4369
18245SOL    HW156176   4.507   3.517   3.451  0.1209 -1.6259 -1.0564
18245SOL    HW256177   4.516   3.454   3.588  0.0274  2.5676  1.0365
18246SOL     OW56178   3.999   7.476   1.520  0.4061  0.0709 -0.8082
18246SOL    HW156179   3.918   7.449   1.563  0.1663  2.0852  0.1601
18246SOL    HW256180   3.977   7.482   1.428 -1.0464  2.0196 -0.4004
18247SOL     OW56181   3.736   7.309   7.822  0.3380  0.7649  0.4768
18247SOL    HW156182   3.660   7.264   7.857 -0.1927  1.1078 -0.2093
18247SOL    HW256183   3.746   7.387   7.878  1.6984 -0.5196  2.1262
18248SOL     OW56184   6.680   4.679   9.885  0.0566 -0.3194 -0.4765
18248SOL    HW156185   6.685   4.767   9.849  2.2243  0.1674  0.8348
18248SOL    HW256186   6.753   4.632   9.845  1.0366 -0.4632  1.3402
18249SOL     OW56187   3.300   6.654   4.171  0.5643 -0.3494 -0.2809
18249SOL    HW156188   3.283   6.569   4.129  2.0185  0.3726 -2.5034
18249SOL    HW256189   3.215   6.681   4.205  0.2898 -3.2366  1.6463
18250SOL     OW56190   4.663   2.213   5.570 -0.3796  0.4548  0.3086
18250SOL    HW156191   4.605   2.290   5.567 -0.6457  0.2868  1.0085
18250SOL    HW256192   4.652   2.172   5.485 -1.5493  0.2478  0.5355
18251SOL     OW56193   0.717   1.626   0.192 -0.1392  0.4102  0.6230
18251SOL    HW156194   0.667   1.585   0.262 -0.4602  1.6211  1.1223
18251SOL    HW256195   0.680   1.590   0.111  1.1712 -2.1101  1.0194
18252SOL     OW56196   6.107   4.502   8.954  0.6763 -1.0538 -0.3265
18252SOL    HW156197   6.065   4.586   8.974  0.9783 -0.8289 -0.6258
18252SOL    HW256198   6.155   4.479   9.034 -0.5421 -1.6430  0.2587
18253SOL     OW56199   5.711   3.740   0.030  0.5350 -0.1290  0.1226
18253SOL    HW156200   5.633   3.791   0.052 -0.2251  0.4009 -3.2143
18253SOL    HW256201   5.784   3.790   0.067 -0.4993  1.1107  0.5542
18254SOL     OW56202   6.891   2.145   5.239  0.4317  0.0410  0.6230
18254SOL    HW156203   6.866   2.074   5.180  0.9528  0.2686  0.1155
18254SOL    HW256204   6.833   2.217   5.216 -0.0994 -0.2130  1.1403
18255SOL     OW56205   0.582   3.829   0.343 -0.0343  0.4490  0.2448
18255SOL    HW156206   0.517   3.805   0.277  0.2466 -1.8422  0.7180
18255SOL    HW256207   0.577   3.924   0.348 -0.9918  0.5994 -2.1174
18256SOL     OW56208   2.124   6.393   7.914 -0.9270 -0.4887  0.2293
18256SOL    HW156209   2.144   6.454   7.843 -0.8395 -1.1306 -0.3045
18256SOL    HW256210   2.098   6.449   7.987 -0.6133  0.1980 -0.1775
18257SOL     OW56211   4.276   6.392   3.737 -0.2495 -0.3431 -0.4046
18257SOL    HW156212   4.215   6.327   3.702  1.1817 -1.7573 -0.3512
18257SOL    HW256213   4.242   6.412   3.824 -0.8765 -0.7766 -0.5442
18258SOL     OW56214   4.676   6.988   2.498  0.0972 -0.3578 -0.7999
18258SOL    HW156215   4.770   6.991   2.479  0.2620  3.0186  0.0304
18258SOL    HW256216   4.638   6.938   2.425  2.2658  0.0827 -2.3088
18259SOL     OW56217   1.303   4.877   1.858 -0.4202 -0.4520 -0.3875
18259SOL    HW156218   1.235   4.911   1.915  0.0886  0.3039 -0.2303
18259SOL    HW256219   1.263   4.800   1.817 -1.1847 -0.3186  0.0951
18260SOL     OW56220   3.958   1.860  11.287  0.0030  0.9370 -0.7046
18260SOL    HW156221   3.938   1.834  11.377 -0.9881  1.5684 -0.7314
18260SOL    HW256222   3.921   1.789  11.234 -0.3938  1.1095 -0.6611
18261SOL     OW56223   2.975   2.741   8.412 -0.3467 -0.4681 -0.1098
18261SOL    HW156224   3.052   2.792   8.386 -0.1082 -0.2852  0.9387
18261SOL    HW256225   2.981   2.733   8.507 -0.2831 -2.6144 -0.2392
18262SOL     OW56226   7.057   6.448  11.679 -0.2248  0.3344  0.1556
18262SOL    HW156227   7.055   6.507  11.604  1.1559 -0.3773 -0.4980
18262SOL    HW256228   7.048   6.360  11.641 -2.1714  0.0773  1.0980
18263SOL     OW56229   7.545   7.572   6.660 -0.7679  0.0693 -0.1350
18263SOL    HW156230   7.522   7.664   6.677 -1.7890 -0.4675  1.6736
18263SOL    HW256231   7.462   7.531   6.636 -0.4930 -0.5674 -0.0178
18264SOL     OW56232   5.794   1.500   7.770 -0.6780  0.3845 -0.4261
18264SOL    HW156233   5.887   1.481   7.763 -0.8206 -1.6820  1.9492
18264SOL    HW256234   5.766   1.516   7.679  1.7169 -0.2323 -1.3543
18265SOL     OW56235   0.969   1.321   8.596  0.5511 -0.0623 -0.4623
18265SOL    HW156236   0.970   1.326   8.692 -1.2603 -1.2478 -0.3255
18265SOL    HW256237   1.037   1.382   8.568  0.2476  1.2858  1.5296
18266SOL     OW56238   6.232   7.518   7.660  0.5103  0.7631 -0.2110
18266SOL    HW156239   6.300   7.576   7.695 -0.6287  1.3076  1.1955
18266SOL    HW256240   6.242   7.525   7.565  1.9632  1.3661 -0.0477
18267SOL     OW56241   5.606   6.482   7.046 -0.0960 -0.2791 -0.0261
18267SOL    HW156242   5.692   6.522   7.056 -0.5931  1.5166 -2.2377
18267SOL    HW256243   5.623   6.398   7.005  0.5865  0.4488 -1.2886
18268SOL     OW56244   7.473   5.324   3.126 -0.6129 -0.6472  0.2026
18268SOL    HW156245   7.377   5.329   3.131 -0.5637  0.2572  0.4136
18268SOL    HW256246   7.502   5.342   3.216 -0.2329 -0.5421  0.0591
18269SOL     OW56247   7.281   3.457   8.780 -0.1370 -0.3979 -0.4843
18269SOL    HW156248   7.326   3.472   8.697  0.3048  0.7043 -0.0720
18269SOL    HW256249   7.345   3.410   8.834 -0.1165 -0.3761 -0.4897
18270SOL     OW56250   0.249   6.443   0.254 -0.3990  0.3158 -0.0493
18270SOL    HW156251   0.214   6.531   0.239 -1.1727 -0.0248 -0.3251
18270SOL    HW256252   0.262   6.408   0.166 -0.6350 -0.0433  0.0553
18271SOL     OW56253   7.640   7.010   0.416 -0.3108  0.3439  0.0065
18271SOL    HW156254   7.656   6.983   0.506  3.7178  1.5480 -0.1630
18271SOL    HW256255   7.609   7.100   0.423  0.8291  0.7294  0.1979
18272SOL     OW56256   1.405   6.026  11.862 -0.1024  0.1583 -0.1399
18272SOL    HW156257   1.369   6.040  11.775  1.7968  1.1844 -0.8234
18272SOL    HW256258   1.436   6.112  11.889 -1.0035 -0.0639  1.7486
18273SOL     OW56259   7.834   1.129   3.695  0.5398  0.0998 -0.1318
18273SOL    HW156260   7.830   1.101   3.604 -0.9495 -0.7739  0.1702
18273SOL    HW256261   7.870   1.054   3.742 -0.5966 -0.2233  0.2573
18274SOL     OW56262   1.523   0.434   0.827 -0.0371 -0.1086 -0.4305
18274SOL    HW156263   1.438   0.434   0.782  0.2099 -0.8314 -0.9094
18274SOL    HW256264   1.583   0.392   0.766  1.1584  2.1747 -0.9699
18275SOL     OW56265   1.428   5.691   0.860  0.5169  0.5288 -0.1761
18275SOL    HW156266   1.339   5.721   0.841 -0.1359 -0.0578  1.6569
18275SOL    HW256267   1.424   5.596   0.848  1.1894  0.6050 -1.0759
18276SOL     OW56268   0.358   5.033  10.991 -0.3261 -0.0575 -0.0413
18276SOL    HW156269   0.398   5.107  10.945  2.5791 -1.0856  0.6302
18276SOL    HW256270   0.395   4.956  10.948  1.7716 -1.0646  3.2485
18277SOL     OW56271   2.145   5.853   3.749 -0.0841 -0.4049 -0.0978
18277SOL    HW156272   2.208   5.820   3.813  0.9706  0.1981 -0.7871
18277SOL    HW256273   2.157   5.948   3.751 -1.5900 -0.2019  0.3653
18278SOL     OW56274   7.392   7.507   0.350  0.4022 -0.0583 -0.1557
18278SOL    HW156275   7.465   7.468   0.302  0.9920  0.9322 -0.0966
18278SOL    HW256276   7.347   7.561   0.286 -0.2076 -0.5559 -0.1546
18279SOL     OW56277   4.883   4.124   1.592  0.2191 -0.1805 -0.0188
18279SOL    HW156278   4.929   4.151   1.672  1.1559 -2.2971  0.2240
18279SOL    HW256279   4.879   4.028   1.598  0.4524 -0.4217 -2.5784
18280SOL     OW56280   4.911   0.263   2.414  0.1230 -0.4745 -0.1988
18280SOL    HW156281   4.864   0.274   2.497 -2.7555 -0.5882 -1.6575
18280SOL    HW256282   4.918   0.169   2.402 -0.2568 -0.4741 -0.4562
18281SOL     OW56283   5.408   5.780   7.886 -0.4202 -0.1158  0.0210
18281SOL    HW156284   5.439   5.780   7.796  0.1180 -0.1110  0.1986
18281SOL    HW256285   5.488   5.768   7.938 -0.4538  1.7371  0.5819
18282SOL     OW56286   0.627   2.649   6.873 -0.0315 -0.4832  0.2383
18282SOL    HW156287   0.711   2.676   6.910 -1.1100  3.6649  0.1586
18282SOL    HW256288   0.635   2.667   6.779 -0.1230 -2.9964 -0.3385
18283SOL     OW56289   5.202   6.542  10.589  0.0215 -0.4479  0.4644
18283SOL    HW156290   5.260   6.550  10.513  0.3519 -0.2694  0.7352
18283SOL    HW256291   5.117   6.521  10.551  0.3955 -1.4039  0.0975
18284SOL     OW56292   2.641   7.499   8.347  0.0665 -0.1200  1.2814
18284SOL    HW156293   2.715   7.449   8.383  0.5543  0.2751  0.8502
18284SOL    HW256294   2.570   7.436   8.342  0.3865 -0.5186  1.6784
18285SOL     OW56295   4.579   2.542  12.023  0.1505 -0.3984  0.0403
18285SOL    HW156296   4.561   2.577  12.110  1.7136 -0.1835  0.2978
18285SOL    HW256297   4.657   2.487  12.035  1.1299  0.5979 -1.4286
18286SOL     OW56298   3.748   5.161   7.661  0.6030 -0.0261  0.0100
18286SOL    HW156299   3.690   5.230   7.629 -0.2130 -0.2279  1.0028
18286SOL    HW256300   3.715   5.081   7.618  0.1688 -0.1330  0.5354
18287SOL     OW56301   6.639   5.247   0.576 -0.5293  0.1322  0.4853
18287SOL    HW156302   6.649   5.275   0.485 -0.9139 -3.2233 -0.7117
18287SOL    HW256303   6.718   5.279   0.620  0.4879  0.3921 -1.4481
18288SOL     OW56304   5.799   3.288   2.086 -0.0584  0.0654  0.4882
18288SOL    HW156305   5.737   3.232   2.132  0.4765 -1.2221 -0.2907
18288SOL    HW256306   5.885   3.261   2.118  0.1453  1.8655  1.5982
18289SOL     OW56307   3.380   7.013   5.448  0.1214 -0.2570 -0.3253
18289SOL    HW156308   3.356   6.925   5.476 -0.6423  0.2208  0.5906
18289SOL    HW256309   3.297   7.061   5.447  0.7155  0.8293  0.6193
18290SOL     OW56310   6.218   6.660   3.442  0.1363  0.1543  0.9661
18290SOL    HW156311   6.130   6.627   3.426  0.7475 -1.8119  1.4820
18290SOL    HW256312   6.213   6.703   3.527 -0.5160  0.8899  0.5731
18291SOL     OW56313   6.289   2.440   0.567  0.1206  0.4015  0.1891
18291SOL    HW156314   6.240   2.393   0.634 -1.4293 -0.4987 -1.4641
18291SOL    HW256315   6.320   2.371   0.508  1.3574  1.1695 -0.0937
18292SOL     OW56316   2.156   3.583   6.064 -0.6144  0.6340 -0.0094
18292SOL    HW156317   2.088   3.649   6.068 -1.2424  0.1068 -1.3122
18292SOL    HW256318   2.177   3.575   5.971  1.4738  1.0001  0.3652
18293SOL     OW56319   7.745   7.683   2.688 -0.0699  0.7172  0.2836
18293SOL    HW156320   7.674   7.732   2.645  0.1666  2.6048  1.8682
18293SOL    HW256321   7.700   7.615   2.737 -0.5605  0.3506 -0.6469
18294SOL     OW56322   1.473   3.999   2.348 -0.1278 -0.6967  0.0044
18294SOL    HW156323   1.435   4.041   2.425  0.7061 -0.3490  0.2419
18294SOL    HW256324   1.561   3.973   2.377 -0.3725 -1.9876 -0.3492
18295SOL     OW56325   0.313   3.094  12.354 -0.6890  0.3814  0.1043
18295SOL    HW156326   0.304   3.181  12.315 -2.8827 -0.0106 -0.4172
18295SOL    HW256327   0.282   3.105  12.444  2.1017  0.7725  1.0965
18296SOL     OW56328   4.759   1.788   8.416  0.4673  0.7487 -0.5943
18296SOL    HW156329   4.771   1.726   8.344  0.7965  0.8762 -0.6456
18296SOL    HW256330   4.674   1.763   8.454 -1.1411  2.4476 -2.7950
18297SOL     OW56331   1.836   6.368  10.780 -0.5093 -0.4142  0.8842
18297SOL    HW156332   1.829   6.394  10.688 -1.8905  0.4360  1.2084
18297SOL    HW256333   1.791   6.437  10.828  0.0520 -0.9369  2.1947
18298SOL     OW56334   4.094   6.863   3.003  0.0630  0.1575  0.4732
18298SOL    HW156335   4.146   6.861   3.083  0.5178 -1.9647  0.1705
18298SOL    HW256336   4.118   6.947   2.962  2.5934 -0.3119  0.7899
18299SOL     OW56337   1.104   4.696   8.813 -0.0807  0.3505  0.0129
18299SOL    HW156338   1.086   4.625   8.874 -2.6000  0.2697 -0.7150
18299SOL    HW256339   1.041   4.684   8.742 -0.3033  3.0405 -0.3605
18300SOL     OW56340   0.671   2.557  10.293  0.1119 -0.5977 -0.4671
18300SOL    HW156341   0.759   2.590  10.308  0.5434 -2.3665  1.1657
18300SOL    HW256342   0.682   2.463  10.278 -1.4119 -0.6948 -1.1911
18301SOL     OW56343   7.736   2.637   4.511 -0.4671  0.0174 -0.0276
18301SOL    HW156344   7.729   2.732   4.524 -2.1897  0.0761 -1.0386
18301SOL    HW256345   7.707   2.599   4.594  2.5907  0.3060  1.2965
18302SOL     OW56346   7.896   1.265   1.880  0.3769 -0.0214  0.5427
18302SOL    HW156347   7.963   1.225   1.935  0.4434  0.3305  0.7214
18302SOL    HW256348   7.820   1.208   1.889 -0.2505  1.0283  2.5223
18303SOL     OW56349   5.387   0.895   0.944  0.5969  0.2342 -0.1278
18303SOL    HW156350   5.399   0.885   0.849 -3.2383 -0.7124 -0.6771
18303SOL    HW256351   5.313   0.954   0.953  0.3587 -0.3272  2.2691
18304SOL     OW56352   4.309   3.035   2.546  0.3031 -0.0887  0.3662
18304SOL    HW156353   4.220   3.003   2.530  0.4456  0.3852 -1.6462
18304SOL    HW256354   4.303   3.130   2.537  0.7602  0.0865  1.6955
18305SOL     OW56355   0.475   5.708   8.927 -0.2981  0.8701  0.2003
18305SOL    HW156356   0.555   5.758   8.941  0.2457  0.5391 -1.5346
18305SOL    HW256357   0.448   5.731   8.838 -1.5797  0.1956  0.3945
18306SOL     OW56358   4.699   4.986   4.413 -0.3717 -0.2085 -0.5031
18306SOL    HW156359   4.606   4.980   4.391 -0.7111  2.3998 -0.1305
18306SOL    HW256360   4.702   5.043   4.490  1.4951 -1.0449  0.1001
18307SOL     OW56361   2.892   5.220   8.706  0.0667  0.2614  0.6882
18307SOL    HW156362   2.843   5.138   8.697 -0.1793  0.3811  0.9224
18307SOL    HW256363   2.983   5.194   8.695 -0.1347  0.2669 -1.3454
18308SOL     OW56364   5.445   3.622   9.365  0.0471 -0.2416  0.3839
18308SOL    HW156365   5.472   3.535   9.394 -0.8052 -0.0753  1.7588
18308SOL    HW256366   5.374   3.606   9.303  1.2592 -0.5672 -0.9859
18309SOL     OW56367   3.994   6.389   8.718  0.7464  0.0335  0.5222
18309SOL    HW156368   3.914   6.435   8.741  0.4829 -0.4528  0.5867
18309SOL    HW256369   3.981   6.361   8.628  2.4841  3.4831 -0.9791
18310SOL     OW56370   0.429   3.900   5.414 -0.0079  0.0718 -0.4528
18310SOL    HW156371   0.442   3.980   5.362 -1.5747  1.9948  1.8993
18310SOL    HW256372   0.368   3.848   5.363  1.0073  0.3421 -2.0156
18311SOL     OW56373   3.086   5.971   7.986  0.2955 -0.2111 -0.4692
18311SOL    HW156374   3.000   5.931   7.971 -0.2416  0.5049  0.5991
18311SOL    HW256375   3.126   5.975   7.899 -0.8423 -0.3659 -1.0175
18312SOL     OW56376   2.073   5.374   4.230 -0.5479  0.3325 -0.4971
18312SOL    HW156377   2.133   5.413   4.166 -0.4770  1.2406  0.1093
18312SOL    HW256378   2.045   5.447   4.284 -2.0854 -0.1143 -0.6627
18313SOL     OW56379   5.849   3.836   2.688  0.0762 -0.2980  0.0800
18313SOL    HW156380   5.861   3.878   2.603 -0.0584 -0.7124 -0.1480
18313SOL    HW256381   5.768   3.874   2.723  0.9690  1.0489  0.7447
18314SOL     OW56382   6.039   1.389   2.356  0.0802 -0.3484 -0.2513
18314SOL    HW156383   6.090   1.461   2.392 -1.7513  0.3273  1.1674
18314SOL    HW256384   6.070   1.312   2.405 -1.5439  0.3740  2.0770
18315SOL     OW56385   0.277   0.162   3.831 -0.0029  0.1942  0.5720
18315SOL    HW156386   0.368   0.190   3.844  0.3367 -0.4535 -0.3227
18315SOL    HW256387   0.275   0.072   3.863 -0.4486  0.3581  1.0140
18316SOL     OW56388   3.542   4.926   7.746 -0.0906 -0.1321  0.4715
18316SOL    HW156389   3.555   4.943   7.653  0.7893  0.7254  0.7281
18316SOL    HW256390   3.447   4.922   7.757 -0.3806  2.7325  0.0008
18317SOL     OW56391   2.188   6.888   6.840 -0.7814  0.8938  0.5313
18317SOL    HW156392   2.214   6.945   6.912 -0.4609  0.5659  0.6752
18317SOL    HW256393   2.157   6.808   6.882  3.6679 -1.2348  0.3305
18318SOL     OW56394   0.640   3.958   3.153 -0.0265  0.4621  0.3885
18318SOL    HW156395   0.675   3.973   3.065 -0.2629  1.0373  0.3875
18318SOL    HW256396   0.645   4.043   3.195  0.6007  0.0684  1.1256
18319SOL     OW56397   6.004   7.298   3.132  0.3692 -0.1025  0.2501
18319SOL    HW156398   5.933   7.265   3.078  0.3491  0.7786 -0.2765
18319SOL    HW256399   6.058   7.350   3.072 -0.3944  2.0301  1.3124
18320SOL     OW56400   3.104   6.480  11.512 -0.5657 -0.2450  0.1812
18320SOL    HW156401   3.180   6.514  11.466  1.3463 -3.8072  0.3218
18320SOL    HW256402   3.122   6.497  11.604 -0.9359  0.6102  0.1079
18321SOL     OW56403   6.646   6.191   9.195 -0.1041  0.2727  0.0419
18321SOL    HW156404   6.703   6.228   9.262  1.9399  0.5033 -1.7287
18321SOL    HW256405   6.698   6.123   9.153 -1.7459 -0.6646 -0.5807
18322SOL     OW56406   2.957   6.662   7.984 -0.0615  0.0609 -0.3272
18322SOL    HW156407   2.915   6.674   7.898  0.5141 -1.0500 -0.7737
18322SOL    HW256408   2.940   6.571   8.006  0.1934  0.2194  0.5450
18323SOL     OW56409   2.838   6.396  12.279  0.1645  0.4384  0.1295
18323SOL    HW156410   2.811   6.480  12.243 -0.6178  0.8341  1.5614
18323SOL    HW256411   2.870   6.416  12.367  1.6021 -0.5448 -0.1198
18324SOL     OW56412   3.305   0.925   7.174 -0.1458 -0.2775  0.2499
18324SOL    HW156413   3.244   0.855   7.199 -1.3182 -0.1872 -2.1182
18324SOL    HW256414   3.276   0.953   7.088  3.1264 -0.0304 -0.9103
18325SOL     OW56415   7.769   3.462  12.470 -0.1317  0.5510  0.3252
18325SOL    HW156416   7.803   3.376  12.447 -1.3175  0.5685 -1.7760
18325SOL    HW256417   7.787   3.471  12.563  1.9533 -1.0508  0.1489
18326SOL     OW56418   2.579   4.678   7.556  0.2387 -0.0898  0.3216
18326SOL    HW156419   2.582   4.645   7.646 -0.6378 -0.1248  0.3504
18326SOL    HW256420   2.486   4.694   7.540  0.2754 -0.9369 -0.8827
18327SOL     OW56421   6.854   2.568  10.776  0.6581 -0.2803 -0.0618
18327SOL    HW156422   6.835   2.662  10.777  0.7002 -0.2613  1.6518
18327SOL    HW256423   6.819   2.537  10.692 -1.1526  0.9130  0.2000
18328SOL     OW56424   0.297   4.754   3.107 -0.0890  0.1018  0.3385
18328SOL    HW156425   0.209   4.783   3.132 -0.4303 -1.2862  0.7995
18328SOL    HW256426   0.301   4.770   3.012 -1.0648 -0.3863  0.2025
18329SOL     OW56427   6.049   4.706   4.406 -0.1211  0.3564 -0.0705
18329SOL    HW156428   6.010   4.792   4.420 -0.7723 -0.0500  0.7175
18329SOL    HW256429   6.081   4.680   4.493  0.7268  0.1115 -0.4495
18330SOL     OW56430   3.702   7.869   9.927  0.1157  0.1910 -0.0972
18330SOL    HW156431   3.727   7.951   9.970  1.7504  0.1038 -0.7876
18330SOL    HW256432   3.642   7.896   9.857  1.2720  0.9347 -0.8450
18331SOL     OW56433   6.436   5.966   9.709 -0.0384  0.2442  0.6154
18331SOL    HW156434   6.399   6.044   9.668  0.6579  1.3140  1.9313
18331SOL    HW256435   6.429   5.898   9.642 -1.9889  1.0440 -0.0529
18332SOL     OW56436   7.628   3.944  10.172 -0.0922 -0.7492  0.7425
18332SOL    HW156437   7.614   3.918  10.081  1.1480 -2.2425  0.9353
18332SOL    HW256438   7.641   3.861  10.218 -2.6981 -0.2048  2.6946
18333SOL     OW56439   2.314   6.569   8.614  0.1253 -0.0872 -0.0808
18333SOL    HW156440   2.251   6.638   8.632 -2.4774 -1.8728 -1.6051
18333SOL    HW256441   2.367   6.602   8.542  0.3794  1.1125  0.6374
18334SOL     OW56442   6.957   2.045  10.956 -0.7395 -0.2712 -0.3016
18334SOL    HW156443   6.926   1.965  10.998 -0.5648 -0.7162 -0.9986
18334SOL    HW256444   7.049   2.052  10.983 -0.5422 -0.7169 -0.8194
18335SOL     OW56445   5.044   1.015   5.581  0.1640  0.4622  0.2141
18335SOL    HW156446   5.048   1.086   5.517  0.6088 -0.3101 -0.6463
18335SOL    HW256447   5.026   0.937   5.529  0.2034 -0.1359  1.0770
18336SOL     OW56448   6.266   7.733  10.980 -0.0574  0.5555  0.3832
18336SOL    HW156449   6.353   7.719  10.944  0.8183  2.3564  1.6475
18336SOL    HW256450   6.272   7.701  11.070 -1.4854 -1.6083 -0.2033
18337SOL     OW56451   1.400   3.495   0.947  0.4109  0.1508  0.1856
18337SOL    HW156452   1.322   3.440   0.951 -1.8864  3.1371 -0.3513
18337SOL    HW256453   1.405   3.535   1.034 -1.4006  3.2634 -0.9708
18338SOL     OW56454   6.547   2.453   9.326 -0.7432 -0.0100 -0.0910
18338SOL    HW156455   6.556   2.456   9.231 -0.8960 -0.6222 -0.1289
18338SOL    HW256456   6.464   2.408   9.341 -0.2332 -0.8294  0.3401
18339SOL     OW56457   6.736   6.278   6.311  0.0651 -0.6686 -0.6854
18339SOL    HW156458   6.685   6.359   6.303  0.1096 -0.6885 -1.1741
18339SOL    HW256459   6.818   6.297   6.266 -0.6119 -1.5787 -2.3606
18340SOL     OW56460   0.831   6.763   4.550  0.1320 -0.0002 -0.5615
18340SOL    HW156461   0.880   6.781   4.470 -0.8189 -0.2408 -1.1996
18340SOL    HW256462   0.740   6.779   4.528 -0.3079 -1.4409  0.0503
18341SOL     OW56463   7.054   5.573   9.982 -0.6497  0.0770  0.0690
18341SOL    HW156464   7.043   5.487   9.940  1.2592  0.8813 -2.2716
18341SOL    HW256465   6.976   5.622   9.956 -0.3696 -0.0429 -1.0408
18342SOL     OW56466   3.808   4.812   3.625 -0.6080  0.3834  0.3354
18342SOL    HW156467   3.810   4.907   3.615 -0.8308  0.2575 -1.1782
18342SOL    HW256468   3.724   4.786   3.586  0.8069 -0.6978 -2.1948
18343SOL     OW56469   7.746   4.501   0.751  0.0934 -0.3865  0.0321
18343SOL    HW156470   7.655   4.473   0.742  0.2099 -1.3170  1.4767
18343SOL    HW256471   7.785   4.479   0.667 -0.6636 -1.4115 -0.0838
18344SOL     OW56472   4.459   0.613   2.657  0.1266  0.3194  0.6062
18344SOL    HW156473   4.407   0.651   2.587  0.4287 -0.3934 -0.0127
18344SOL    HW256474   4.425   0.655   2.737 -1.2823  0.0035  0.2100
18345SOL     OW56475   4.703   1.700   6.305  0.1322  0.6825 -0.1902
18345SOL    HW156476   4.705   1.740   6.218 -0.3256  0.4162 -0.3293
18345SOL    HW256477   4.749   1.617   6.294 -1.2619 -0.0738 -0.5695
18346SOL     OW56478   3.042   5.545   0.226  0.5363 -0.1081 -0.5932
18346SOL    HW156479   2.992   5.605   0.172  1.8923  0.5990 -1.1087
18346SOL    HW256480   3.082   5.484   0.163  0.4962 -0.5435 -0.2052
18347SOL     OW56481   0.680   6.376   9.815  0.0159  0.7639  0.5833
18347SOL    HW156482   0.588   6.403   9.805 -0.1469 -0.0180 -0.1476
18347SOL    HW256483   0.716   6.437   9.879 -1.0235  1.0714  0.8955
18348SOL     OW56484   2.198   7.321  11.914 -0.4794 -0.4585 -0.0413
18348SOL    HW156485   2.204   7.342  11.821  2.7090 -0.2198  0.0929
18348SOL    HW256486   2.223   7.229  11.919  0.8998 -0.0713  0.6602
18349SOL     OW56487   7.673   6.275  11.598  0.0866 -0.1577  0.1767
18349SOL    HW156488   7.676   6.334  11.523 -0.1809 -1.3441 -0.7900
18349SOL    HW256489   7.721   6.321  11.667 -2.1718  2.3040  0.2853
18350SOL     OW56490   4.001   7.518   0.382 -0.3590 -0.4723  0.3046
18350SOL    HW156491   3.966   7.561   0.460 -1.3588  0.9384 -0.8661
18350SOL    HW256492   3.952   7.436   0.374 -1.4658  0.1886  0.2200
18351SOL     OW56493   1.251   0.406   9.569 -0.2383 -0.6908 -0.6314
18351SOL    HW156494   1.165   0.376   9.597  0.0369 -0.5289  0.4222
18351SOL    HW256495   1.235   0.492   9.532 -0.2507  0.3912  1.7161
18352SOL     OW56496   3.731   4.467   1.620 -0.8541 -0.2245 -0.3214
18352SOL    HW156497   3.652   4.417   1.642 -1.0201  0.6345  1.2672
18352SOL    HW256498   3.714   4.554   1.658  0.3598  0.3318 -1.0121
18353SOL     OW56499   7.052   7.319   6.890  0.2123 -0.1452 -0.3987
18353SOL    HW156500   6.966   7.350   6.860  0.4119  1.4379  0.5509
18353SOL    HW256501   7.111   7.392   6.872  1.1954 -0.8665 -0.1878
18354SOL     OW56502   5.953   7.134   5.207 -0.1167  0.3622 -0.3230
18354SOL    HW156503   5.953   7.038   5.208 -0.0345  0.3652  0.0984
18354SOL    HW256504   5.868   7.159   5.242  0.8037  0.4469  2.0396
18355SOL     OW56505   4.396   5.604  10.140 -0.4579  0.2530  0.9844
18355SOL    HW156506   4.353   5.601  10.055  0.9050  0.2429  0.2660
18355SOL    HW256507   4.409   5.512  10.164  0.8641  0.2257  0.2724
18356SOL     OW56508   7.749   5.749   0.488 -0.1687  0.6278 -0.0313
18356SOL    HW156509   7.655   5.769   0.482 -0.2292  1.4791  2.4855
18356SOL    HW256510   7.792   5.833   0.471  0.0419  0.6709  0.7035
18357SOL     OW56511   4.396   4.543   0.979 -0.7407  0.1359 -0.3276
18357SOL    HW156512   4.386   4.531   1.073  0.2091 -0.1903 -0.2617
18357SOL    HW256513   4.479   4.501   0.957 -0.5011  0.9827 -1.1615
18358SOL     OW56514   3.280   2.523   3.570 -0.1783 -0.3179  0.0981
18358SOL    HW156515   3.345   2.562   3.511 -1.9559  1.5214 -0.7557
18358SOL    HW256516   3.313   2.543   3.658  0.8362 -0.1793 -0.2981
18359SOL     OW56517   2.856   3.280   9.512  0.2753  0.3200 -0.0507
18359SOL    HW156518   2.775   3.326   9.536  1.2487  0.9475  2.3950
18359SOL    HW256519   2.922   3.349   9.508  0.7722 -0.2122 -1.8233
18360SOL     OW56520   7.371   0.333  11.974  0.1040  0.1889  0.0984
18360SOL    HW156521   7.325   0.415  11.955  0.1278  0.3425  0.6818
18360SOL    HW256522   7.440   0.328  11.908  0.7670  1.1702  0.6967
18361SOL     OW56523   5.924   0.732   0.034  0.2435  0.2079 -0.5867
18361SOL    HW156524   5.993   0.676   0.069 -1.0482  0.6649  3.1532
18361SOL    HW256525   5.944   0.819   0.070  0.4542  1.5429 -3.6703
18362SOL     OW56526   7.017   1.318  11.405 -0.1158  0.4960  0.1311
18362SOL    HW156527   6.949   1.280  11.461  0.3361 -1.9212 -0.8192
18362SOL    HW256528   7.099   1.286  11.442  0.4147  1.8219  0.1468
18363SOL     OW56529   1.004   4.534   4.790 -0.3241  0.0198  0.3011
18363SOL    HW156530   0.935   4.598   4.810 -0.1548 -0.2189  1.8079
18363SOL    HW256531   1.020   4.544   4.696 -0.5899  1.9161  0.4133
18364SOL     OW56532   7.287   3.366   5.228  0.1231 -0.3011 -0.1777
18364SOL    HW156533   7.301   3.297   5.293 -0.7131 -0.9509 -0.6647
18364SOL    HW256534   7.315   3.446   5.272 -2.9433 -0.2636  2.0740
18365SOL     OW56535   2.506   3.480   0.109 -0.3341  0.4764  0.2623
18365SOL    HW156536   2.429   3.503   0.163 -0.8880  0.4585 -0.5022
18365SOL    HW256537   2.468   3.449   0.027  0.4833 -0.5445  0.2668
18366SOL     OW56538   2.144   6.712   2.091 -0.5790  0.0235 -0.1323
18366SOL    HW156539   2.123   6.654   2.018 -0.5218  1.3458 -1.2596
18366SOL    HW256540   2.214   6.667   2.139 -0.5863 -0.8550 -0.9245
18367SOL     OW56541   3.353   7.842   4.003 -0.4685 -0.0207 -0.5572
18367SOL    HW156542   3.421   7.786   3.965 -1.0226 -0.1806 -1.3447
18367SOL    HW256543   3.335   7.803   4.089  0.0987 -0.2553 -0.5437
18368SOL     OW56544   3.569   7.426   3.575 -0.6571 -0.5868 -0.1623
18368SOL    HW156545   3.611   7.428   3.489 -0.5475  0.5633 -0.0998
18368SOL    HW256546   3.476   7.429   3.556 -0.6234  0.1904 -0.2461
18369SOL     OW56547   0.354   1.020   5.370 -0.4564 -0.0506  0.0342
18369SOL    HW156548   0.359   1.111   5.339 -0.6916 -0.0539 -0.0216
18369SOL    HW256549   0.295   0.977   5.307 -0.3999 -0.2252  0.0996
18370SOL     OW56550   3.909   0.154   4.374  0.1463 -0.6325 -0.0272
18370SOL    HW156551   3.866   0.083   4.422 -1.3675 -0.5964 -1.2380
18370SOL    HW256552   3.938   0.115   4.292  1.9885 -0.5028  0.5163
18371SOL     OW56553   0.591   3.297   7.475 -0.3345 -0.2072 -0.1066
18371SOL    HW156554   0.502   3.263   7.474  0.7284 -3.3307  0.9671
18371SOL    HW256555   0.620   3.290   7.384 -0.4584 -1.3686 -0.0693
18372SOL     OW56556   5.294   1.920   2.348  0.4025 -0.5522  0.4466
18372SOL    HW156557   5.310   1.827   2.366 -1.8274 -1.4958 -1.7407
18372SOL    HW256558   5.315   1.964   2.429  0.6131 -3.1066  1.8912
18373SOL     OW56559   0.472   4.624   7.484 -0.0148  0.7737 -0.1225
18373SOL    HW156560   0.514   4.541   7.508 -0.7581  0.6584  0.8551
18373SOL    HW256561   0.514   4.650   7.402 -0.0046 -0.7496 -0.6319
18374SOL     OW56562   5.405   5.444   7.037  1.2173  0.0865 -0.4251
18374SOL    HW156563   5.484   5.408   7.075  2.2011  0.1243 -2.2994
18374SOL    HW256564   5.356   5.367   7.007  0.4035  0.0506  0.9325
18375SOL     OW56565   3.123   6.601  10.010  0.0597  0.5826  0.1476
18375SOL    HW156566   3.066   6.524  10.010  0.9656 -0.1103  0.3901
18375SOL    HW256567   3.104   6.645   9.927  0.9989 -1.0520 -1.0019
18376SOL     OW56568   2.394   0.929   2.071 -0.1452 -0.1480 -0.7178
18376SOL    HW156569   2.489   0.945   2.067 -0.0633 -0.8513 -2.1249
18376SOL    HW256570   2.362   0.992   2.136  0.6696  3.3546 -3.3845
18377SOL     OW56571   7.655   1.400   9.293 -0.7554 -0.5768 -0.2821
18377SOL    HW156572   7.709   1.386   9.371 -0.7102  0.8316 -0.0318
18377SOL    HW256573   7.597   1.324   9.290 -1.3692 -0.2534  1.6403
18378SOL     OW56574   5.645   7.805   6.760  0.7931 -0.5111 -0.5232
18378SOL    HW156575   5.573   7.776   6.704 -0.3070  1.3175 -0.1161
18378SOL    HW256576   5.647   7.900   6.750  1.7367 -0.3186  1.1354
18379SOL     OW56577   6.733   7.065   9.060 -0.7936 -0.0951 -0.3104
18379SOL    HW156578   6.683   7.068   8.978 -2.1948  1.0498  0.5395
18379SOL    HW256579   6.691   6.995   9.110 -0.5034 -0.1957 -0.2047
18380SOL     OW56580   1.127   1.331   7.702 -0.5186 -0.1129 -0.3747
18380SOL    HW156581   1.183   1.328   7.625 -1.1002  0.0075 -0.8048
18380SOL    HW256582   1.139   1.245   7.743  1.1142  0.4300  0.3649
18381SOL     OW56583   2.268   6.367   1.751  0.1459  0.1567 -1.0095
18381SOL    HW156584   2.194   6.326   1.795  0.4306 -0.1598 -0.8133
18381SOL    HW256585   2.341   6.305   1.765  0.5674  0.6988 -0.7728
18382SOL     OW56586   6.097   6.664  10.970 -0.4165  0.0345 -0.0374
18382SOL    HW156587   6.136   6.617  10.897  2.1251 -1.1399  1.9119
18382SOL    HW256588   6.166   6.722  11.001 -1.2647  0.2095  1.6440
18383SOL     OW56589   2.330   0.785   9.967 -0.0531  0.2347  0.6753
18383SOL    HW156590   2.394   0.715   9.954 -0.5617 -0.0171 -0.6316
18383SOL    HW256591   2.382   0.860   9.995  0.8122  0.0073 -0.2781
18384SOL     OW56592   1.353   6.935   6.758 -0.2767 -0.6530 -0.3374
18384SOL    HW156593   1.278   6.968   6.808  0.3228  1.6907 -0.8723
18384SOL    HW256594   1.380   7.009   6.703  1.3639 -1.9889 -1.4322
18385SOL     OW56595   6.828   1.351   3.655  0.1783 -0.0036 -0.2141
18385SOL    HW156596   6.775   1.281   3.693  2.3585 -2.3203 -1.1882
18385SOL    HW256597   6.765   1.407   3.610 -1.9324  0.1218  2.6037
18386SOL     OW56598   7.950   6.440  12.244  0.2187  0.2338  0.7028
18386SOL    HW156599   7.933   6.501  12.172 -0.4061 -1.2410 -0.4549
18386SOL    HW256600   8.030   6.395  12.218 -0.9848 -1.5911 -0.0196
18387SOL     OW56601   6.394   6.548  11.257  0.0219  0.6449 -0.1897
18387SOL    HW156602   6.361   6.565  11.346  0.1693  0.6487 -0.1362
18387SOL    HW256603   6.488   6.560  11.264 -0.1546  2.8649 -0.8503
18388SOL     OW56604   5.909   7.044   7.572 -0.0995  0.1314  0.0398
18388SOL    HW156605   5.935   6.980   7.506 -0.5010 -1.9923  1.8052
18388SOL    HW256606   5.836   7.091   7.533  1.4013  0.8875 -2.0308
18389SOL     OW56607   6.448   1.745   0.170  0.4473  0.4710  0.1418
18389SOL    HW156608   6.394   1.805   0.223  1.4740  1.4081  0.1528
18389SOL    HW256609   6.453   1.787   0.084  0.8532  0.2068  0.0339
18390SOL     OW56610   3.048   0.794   3.663 -0.6409  0.3411 -0.4362
18390SOL    HW156611   3.117   0.847   3.625  0.6808  0.6927  2.2107
18390SOL    HW256612   2.979   0.857   3.686 -0.6234  0.3908 -0.5200
18391SOL     OW56613   4.261   6.400  10.499 -0.4184 -0.1338 -0.0181
18391SOL    HW156614   4.329   6.343  10.535 -0.9111 -0.3252  0.6355
18391SOL    HW256615   4.209   6.342  10.443 -0.3301 -0.0947 -0.1418
18392SOL     OW56616   6.076   7.534   1.470  0.0191  0.0988  0.1869
18392SOL    HW156617   6.080   7.445   1.506 -0.2161 -0.2418 -0.6005
18392SOL    HW256618   6.023   7.525   1.391 -0.8255  1.1216  0.6199
18393SOL     OW56619   1.884   7.323   5.276 -0.3389  0.4441  0.7153
18393SOL    HW156620   1.938   7.283   5.208 -0.2539  0.9716  0.4611
18393SOL    HW256621   1.806   7.353   5.230 -0.4044  0.5597  0.8998
18394SOL     OW56622   1.163   4.280   6.121 -0.5621 -0.6338  0.2347
18394SOL    HW156623   1.251   4.248   6.141 -0.4481 -0.5324 -0.0920
18394SOL    HW256624   1.106   4.205   6.134 -0.2893 -0.9921 -0.6067
18395SOL     OW56625   1.790   6.802   8.021  0.0328  0.3956 -0.5504
18395SOL    HW156626   1.836   6.873   7.976  0.5082  0.3053 -0.2193
18395SOL    HW256627   1.831   6.798   8.108  1.3185 -1.5016 -1.1857
18396SOL     OW56628   1.420   2.705   0.095 -0.1245  0.1315 -0.0652
18396SOL    HW156629   1.472   2.759   0.036 -0.4614  0.6359  0.0891
18396SOL    HW256630   1.380   2.639   0.038  0.4211 -0.0542 -0.2293
18397SOL     OW56631   1.690   3.164   3.025  0.0266 -0.1078  0.2500
18397SOL    HW156632   1.755   3.139   2.959 -0.4633 -0.2413 -0.1783
18397SOL    HW256633   1.712   3.110   3.101  1.0575  0.5781  0.4656
18398SOL     OW56634   3.754   2.387  11.316  0.6559  0.0634  0.4229
18398SOL    HW156635   3.730   2.368  11.406 -1.0958 -0.0095 -0.0199
18398SOL    HW256636   3.680   2.354  11.264  2.2347 -1.1964 -1.1699
18399SOL     OW56637   1.269   7.894   5.705 -0.0611  0.5996  0.1376
18399SOL    HW156638   1.219   7.818   5.674  0.1313  0.5409 -0.0316
18399SOL    HW256639   1.325   7.917   5.630 -1.2646  1.8878 -0.4073
18400SOL     OW56640   5.100   3.790   3.259 -0.2150 -0.4995 -0.3890
18400SOL    HW156641   5.114   3.699   3.285  3.5635 -0.1507 -0.5598
18400SOL    HW256642   5.133   3.794   3.169  0.1229  1.0940 -0.2219
18401SOL     OW56643   6.437   1.376  11.454 -0.4943 -0.0034 -0.1154
18401SOL    HW156644   6.519   1.426  11.459 -0.7268  0.3147  0.6142
18401SOL    HW256645   6.375   1.435  11.411  0.0323 -0.7688 -2.0128
18402SOL     OW56646   0.011   5.778   0.113 -0.0770  0.4349  0.1871
18402SOL    HW156647   0.073   5.752   0.045  1.0593  0.6994  1.0864
18402SOL    HW256648   0.008   5.704   0.173  1.3497  1.3597  1.4863
18403SOL     OW56649   0.835   4.664   0.313  0.3785 -0.2867  0.3238
18403SOL    HW156650   0.789   4.743   0.285 -0.3131 -0.0636  2.0257
18403SOL    HW256651   0.923   4.694   0.336  0.2500 -0.0953  0.5586
18404SOL     OW56652   6.440   4.453   6.928 -0.3001  0.4805  0.8956
18404SOL    HW156653   6.464   4.523   6.867 -0.6299  0.9715  1.3173
18404SOL    HW256654   6.512   4.451   6.991  0.7014 -0.9198 -0.2302
18405SOL     OW56655   0.184   5.418   0.893 -0.2845  0.1829  0.2744
18405SOL    HW156656   0.100   5.452   0.863 -0.3519 -0.8534 -0.8049
18405SOL    HW256657   0.190   5.331   0.854  0.8359 -0.1739  1.1758
18406SOL     OW56658   1.540   1.767   8.294  0.3685 -0.1112  0.0891
18406SOL    HW156659   1.493   1.850   8.297  1.1004  0.2944  1.2266
18406SOL    HW256660   1.589   1.770   8.212  0.2784  0.5273  0.0508
18407SOL     OW56661   5.727   1.382   1.268  0.4644  0.0646  0.0174
18407SOL    HW156662   5.787   1.406   1.339  0.5447 -0.4039  0.1130
18407SOL    HW256663   5.689   1.299   1.296  1.7414 -1.0021 -1.2097
18408SOL     OW56664   5.941   6.898   4.692 -0.0716  0.2813  0.6050
18408SOL    HW156665   6.007   6.899   4.762 -0.2814  0.5538  0.8023
18408SOL    HW256666   5.967   6.970   4.634 -0.4863  0.7228  0.9597
18409SOL     OW56667   2.915   2.288   8.244  0.4134 -0.0522  0.3580
18409SOL    HW156668   2.900   2.383   8.245  0.0370 -0.0798 -1.0938
18409SOL    HW256669   2.861   2.254   8.315 -1.7608  0.5209 -0.9212
18410SOL     OW56670   7.611   0.069   0.168 -0.5014 -0.1526  0.1095
18410SOL    HW156671   7.654   0.055   0.083 -0.5714  0.5640 -0.0466
18410SOL    HW256672   7.614   0.164   0.182  0.5546 -0.3597  1.4660
18411SOL     OW56673   7.002   1.813   3.252  0.1922  0.0594 -0.1805
18411SOL    HW156674   6.913   1.825   3.284  0.1851 -1.1178  0.2750
18411SOL    HW256675   7.053   1.881   3.297 -0.2763  0.0567  0.3588
18412SOL     OW56676   2.810   1.205  11.175 -0.1010 -0.6031  0.3620
18412SOL    HW156677   2.888   1.255  11.151 -0.8028  0.0356 -0.6510
18412SOL    HW256678   2.759   1.264  11.230 -0.4328 -0.5852  0.0355
18413SOL     OW56679   6.578   6.771   8.193  0.3513  0.2821  0.3776
18413SOL    HW156680   6.656   6.716   8.195 -0.2697 -0.6106  1.3895
18413SOL    HW256681   6.594   6.834   8.123  1.9937  0.1491  0.6013
18414SOL     OW56682   4.973   1.040   9.044  0.8587 -0.3530 -0.3678
18414SOL    HW156683   5.058   0.998   9.059  1.3581  1.3726  2.3471
18414SOL    HW256684   4.975   1.118   9.099 -2.7365 -0.5291  0.2400
18415SOL     OW56685   4.296   3.689   6.476 -0.1571 -0.2913  0.1288
18415SOL    HW156686   4.320   3.772   6.433 -0.3002  0.1143  0.8168
18415SOL    HW256687   4.350   3.686   6.554 -1.2389 -0.1059  0.9027
18416SOL     OW56688   4.799   2.114   9.510  0.1036 -0.0067  0.0195
18416SOL    HW156689   4.803   2.036   9.565  0.2111  1.3079  1.9715
18416SOL    HW256690   4.730   2.168   9.549 -0.8961  0.3452 -2.0777
18417SOL     OW56691   6.365   4.139   3.537 -0.1192 -0.0726 -0.4825
18417SOL    HW156692   6.445   4.188   3.518 -0.1978  0.5957  0.8268
18417SOL    HW256693   6.374   4.112   3.628 -1.8658  0.9843  0.0535
18418SOL     OW56694   0.825   6.704   2.669  0.1079  0.9493 -0.5878
18418SOL    HW156695   0.836   6.728   2.761 -2.0032  2.1037 -0.5611
18418SOL    HW256696   0.789   6.783   2.628 -1.8887 -0.4524 -1.7109
18419SOL     OW56697   6.159   7.163   9.032 -0.0143  0.4834  0.4079
18419SOL    HW156698   6.117   7.147   9.116 -0.5853 -0.7492 -0.0839
18419SOL    HW256699   6.252   7.170   9.053 -0.1142 -0.1508  1.1085
18420SOL     OW56700   0.227   5.009   9.803 -0.5243  0.0689 -0.4765
18420SOL    HW156701   0.177   4.952   9.744 -0.0533  0.6737 -1.4878
18420SOL    HW256702   0.315   5.009   9.767 -0.5126  1.4088 -0.4912
18421SOL     OW56703   3.240   3.238   9.786  0.3915 -0.1878 -0.4888
18421SOL    HW156704   3.151   3.260   9.814  0.6957  0.8994 -0.3573
18421SOL    HW256705   3.296   3.264   9.859  0.7357 -1.9596 -0.0687
18422SOL     OW56706   2.927   4.712   0.575 -0.3015  0.3656  0.1111
18422SOL    HW156707   2.999   4.758   0.618 -0.0176 -1.5406  1.8171
18422SOL    HW256708   2.913   4.760   0.493  1.7323  1.8109  0.5472
18423SOL     OW56709   2.709   4.400  10.487  0.3962  0.5732 -0.4851
18423SOL    HW156710   2.785   4.359  10.527  0.5919  2.0275  0.7411
18423SOL    HW256711   2.634   4.360  10.532  0.5365  0.7029 -0.1308
18424SOL     OW56712   3.512   1.461   8.415 -0.0521  0.2614  0.6575
18424SOL    HW156713   3.497   1.428   8.503 -0.6007 -1.4805 -0.0453
18424SOL    HW256714   3.603   1.437   8.395 -0.5150 -1.1186  0.0683
18425SOL     OW56715   2.396   2.011   0.124  0.2446 -0.2068  0.6168
18425SOL    HW156716   2.380   1.922   0.091 -1.4263 -0.0797  0.9664
18425SOL    HW256717   2.478   2.005   0.172  2.2668 -0.6260 -2.6374
18426SOL     OW56718   0.912   7.082  12.418 -0.3624  0.3907  0.4760
18426SOL    HW156719   0.866   7.086  12.335 -0.7009  0.3137  0.6610
18426SOL    HW256720   0.891   7.164  12.462 -0.0184  0.5214  0.3982
18427SOL     OW56721   4.681   6.290   4.931  0.5877  0.2749 -0.6011
18427SOL    HW156722   4.725   6.262   5.011  0.8228 -0.8302 -1.0860
18427SOL    HW256723   4.694   6.217   4.871 -0.8961  0.4346 -1.1500
18428SOL     OW56724   5.635   6.473   4.382  0.2249  0.1637 -0.3390
18428SOL    HW156725   5.595   6.520   4.310 -1.7236  0.5863  0.9270
18428SOL    HW256726   5.638   6.536   4.454 -1.9364 -1.3357  1.2329
18429SOL     OW56727   6.021   7.292   7.925 -0.7841 -0.0049 -0.0147
18429SOL    HW156728   6.076   7.270   7.850 -1.0079  0.0503 -0.1930
18429SOL    HW256729   6.065   7.250   7.999 -1.9850 -2.3053 -0.5357
18430SOL     OW56730   2.744   1.109  10.479  0.6378 -0.0199 -0.1259
18430SOL    HW156731   2.649   1.124  10.479  0.7626  0.7964 -0.1826
18430SOL    HW256732   2.780   1.184  10.527  1.3947  0.5924 -1.5922
18431SOL     OW56733   2.838   5.053   8.338 -0.3298 -0.0066 -0.2512
18431SOL    HW156734   2.827   5.041   8.432  0.4979 -0.5518 -0.2206
18431SOL    HW256735   2.844   4.964   8.302 -0.0743  0.2042 -0.7482
18432SOL     OW56736   7.580   0.253   7.763 -0.4617  0.7973  0.5582
18432SOL    HW156737   7.662   0.267   7.715 -1.0622  0.1995 -0.6878
18432SOL    HW256738   7.556   0.339   7.795 -0.4251  1.3543 -0.8742
18433SOL     OW56739   2.841   4.912   0.904 -0.0275 -0.0971  0.7612
18433SOL    HW156740   2.823   4.867   0.986 -0.7665 -2.5466 -0.6293
18433SOL    HW256741   2.764   4.894   0.849  0.6684  0.9934 -0.6373
18434SOL     OW56742   1.405   7.766   2.658  0.1436 -0.0384  0.2203
18434SOL    HW156743   1.314   7.762   2.630  0.3278 -0.0680 -0.4146
18434SOL    HW256744   1.435   7.675   2.656  0.6792  0.1411 -1.3540
18435SOL     OW56745   2.671   5.797  11.626  0.8126  0.1353  0.5095
18435SOL    HW156746   2.749   5.752  11.595  0.5963 -0.0370  0.2103
18435SOL    HW256747   2.693   5.890  11.619  0.9192  0.0915  0.2219
18436SOL     OW56748   4.462   1.190   9.357  0.1224  0.1132 -0.3057
18436SOL    HW156749   4.443   1.098   9.343 -0.5251  0.3353 -0.9114
18436SOL    HW256750   4.527   1.212   9.290 -0.6773  0.4023 -1.0128
18437SOL     OW56751   4.659   1.994  12.157 -0.8118 -0.5374  0.1826
18437SOL    HW156752   4.615   2.018  12.238 -1.0671  0.3679 -0.2030
18437SOL    HW256753   4.622   2.054  12.091 -0.2319 -0.8983 -0.4906
18438SOL     OW56754   5.106   5.371   9.245  0.2048 -0.1841  0.2861
18438SOL    HW156755   5.159   5.341   9.319  2.1900  1.8782 -0.1686
18438SOL    HW256756   5.074   5.457   9.272 -0.1032  0.0477 -0.7559
18439SOL     OW56757   1.366   1.009  10.520  1.0858  0.2722 -0.4446
18439SOL    HW156758   1.385   0.943  10.587  0.6598 -0.4392 -0.9986
18439SOL    HW256759   1.301   1.067  10.561  0.6898 -0.2626 -0.2990
18440SOL     OW56760   2.816   0.629  11.039 -0.3688  0.2975  0.1042
18440SOL    HW156761   2.846   0.710  10.997 -0.1231  1.2924  2.1111
18440SOL    HW256762   2.721   0.629  11.025 -0.2922  0.6060 -0.4458
18441SOL     OW56763   2.505   6.311  11.503 -0.4217  0.0818  0.0522
18441SOL    HW156764   2.515   6.222  11.539  1.2104 -0.3029 -1.1972
18441SOL    HW256765   2.573   6.362  11.548 -0.4616  0.3648 -0.2079
18442SOL     OW56766   2.779   7.404   0.058  0.6153 -0.1817 -0.3516
18442SOL    HW156767   2.829   7.465   0.003  1.1449 -0.6643 -0.4177
18442SOL    HW256768   2.828   7.400   0.140 -0.2259  0.6088  0.2072
18443SOL     OW56769   4.193   1.550   8.666 -0.0388  0.0655 -0.1847
18443SOL    HW156770   4.203   1.488   8.739  0.7568 -0.6519 -0.8868
18443SOL    HW256771   4.224   1.634   8.701 -0.4618 -0.0763  0.5578
18444SOL     OW56772   6.354   6.269   7.258  0.0397 -0.4512 -0.4495
18444SOL    HW156773   6.361   6.175   7.278 -0.9819 -0.0936  2.0157
18444SOL    HW256774   6.417   6.310   7.318 -1.0609  0.5489  0.0517
18445SOL     OW56775   3.812   1.293  10.258 -0.1016  0.0917 -0.3249
18445SOL    HW156776   3.849   1.351  10.324 -2.0170  1.1712 -0.1328
18445SOL    HW256777   3.794   1.350  10.183 -0.2231 -0.6455 -0.8695
18446SOL     OW56778   3.183   0.802   9.413 -0.5932  0.4222  0.2167
18446SOL    HW156779   3.173   0.725   9.469  0.1135  0.1336 -0.0337
18446SOL    HW256780   3.264   0.843   9.444 -1.1003  1.2158  0.5173
18447SOL     OW56781   0.742   4.021   2.891  0.2928  0.1732  0.5647
18447SOL    HW156782   0.805   4.026   2.820  0.5536 -1.2642  0.6651
18447SOL    HW256783   0.669   4.077   2.863  0.5219 -0.1297 -0.6839
18448SOL     OW56784   0.362   6.187   5.269 -0.0513 -0.8490 -0.5234
18448SOL    HW156785   0.323   6.254   5.326  1.7384 -0.5737  0.4606
18448SOL    HW256786   0.289   6.152   5.220 -1.2449  0.9451 -0.1369
18449SOL     OW56787   5.893   2.644   4.406  0.1410  0.3004 -0.2218
18449SOL    HW156788   5.901   2.732   4.442 -0.5544  0.3789 -0.2461
18449SOL    HW256789   5.973   2.599   4.434  1.1683  1.3442 -1.3764
18450SOL     OW56790   7.398   4.610   4.068  0.6007  0.4964  0.2090
18450SOL    HW156791   7.417   4.598   4.161 -0.1993  0.2286  0.3490
18450SOL    HW256792   7.309   4.576   4.057  0.6806  0.5378 -0.6525
18451SOL     OW56793   1.389   6.943   9.304  0.1478 -0.0960  0.4220
18451SOL    HW156794   1.391   6.984   9.390 -0.5860  0.0639  0.3656
18451SOL    HW256795   1.308   6.893   9.303  1.3147 -2.1044  0.7329
18452SOL     OW56796   0.124   1.985  12.012  0.1183  0.1453 -0.1897
18452SOL    HW156797   0.054   2.045  11.983  1.5087  1.7280 -0.4297
18452SOL    HW256798   0.083   1.899  12.011 -1.9649  1.0578  0.0882
18453SOL     OW56799   6.300   2.991   0.366  0.4203  0.0413  0.1773
18453SOL    HW156800   6.267   3.002   0.455  0.4625 -0.2563  0.2291
18453SOL    HW256801   6.381   2.941   0.376  0.9883  0.9237  0.0681
18454SOL     OW56802   6.644   6.407   9.664  0.0807  0.3024 -0.3345
18454SOL    HW156803   6.580   6.460   9.713  0.1072  0.5044 -0.5163
18454SOL    HW256804   6.614   6.412   9.573 -0.5672 -0.9236 -0.2081
18455SOL     OW56805   3.481   4.055   8.540 -0.6506 -0.3124 -0.4602
18455SOL    HW156806   3.390   4.067   8.567 -0.8410 -0.6468 -0.9456
18455SOL    HW256807   3.479   4.064   8.445 -0.3320 -1.2910 -0.5631
18456SOL     OW56808   3.139   6.759  12.286 -0.5109 -0.3106  0.5656
18456SOL    HW156809   3.063   6.712  12.320  0.9448 -2.7229  0.6952
18456SOL    HW256810   3.195   6.691  12.248  0.4944  1.6476 -1.7412
18457SOL     OW56811   4.658   4.737  10.586 -0.3670  0.3183  0.6592
18457SOL    HW156812   4.739   4.689  10.569  0.0395  0.5679  1.8134
18457SOL    HW256813   4.668   4.819  10.538 -0.0039  0.2900  0.6845
18458SOL     OW56814   2.675   6.028   4.946 -0.8973  0.1347  0.0283
18458SOL    HW156815   2.705   6.002   5.032 -2.1376 -1.2913  0.0705
18458SOL    HW256816   2.603   6.089   4.963 -0.2853  0.8840 -0.0295
18459SOL     OW56817   1.520   6.755   0.476  0.3172 -1.0830  0.2130
18459SOL    HW156818   1.606   6.752   0.434  0.1386 -0.3622 -0.2198
18459SOL    HW256819   1.459   6.732   0.406  0.0521 -0.2867  0.1779
18460SOL     OW56820   0.204   3.491   5.533  0.1563  0.3083 -0.3328
18460SOL    HW156821   0.247   3.412   5.499 -0.4451  0.2896 -1.0606
18460SOL    HW256822   0.241   3.502   5.621  1.8502  0.4374 -1.0131
18461SOL     OW56823   1.810   7.193   8.166 -0.3219 -0.0533  0.6684
18461SOL    HW156824   1.837   7.145   8.087 -2.4915 -1.0577  0.4571
18461SOL    HW256825   1.892   7.218   8.208  0.9482 -2.9294  0.1427
18462SOL     OW56826   1.990   4.284  11.836 -0.7407 -0.6048  0.0539
18462SOL    HW156827   2.032   4.206  11.800  2.5276  0.3871  1.3742
18462SOL    HW256828   1.956   4.331  11.760  3.1717 -0.1011 -1.5853
18463SOL     OW56829   2.618   1.545   0.377 -0.5227 -0.3058  0.0375
18463SOL    HW156830   2.665   1.498   0.308 -1.3921  0.5495 -1.1610
18463SOL    HW256831   2.629   1.490   0.455  1.7963 -0.5107 -0.3694
18464SOL     OW56832   2.148   6.689   5.772  0.1110 -0.4722 -0.1128
18464SOL    HW156833   2.211   6.621   5.796  1.4199  0.3519 -1.0334
18464SOL    HW256834   2.147   6.688   5.676 -1.2023 -0.3678 -0.1162
18465SOL     OW56835   1.580   6.136  11.261  0.4989  0.0075 -0.4870
18465SOL    HW156836   1.667   6.172  11.241  1.6078 -1.4651  1.3864
18465SOL    HW256837   1.548   6.103  11.177  1.1331  1.7649 -1.4675
18466SOL     OW56838   2.652   3.900   6.768 -0.3918 -0.2767  0.0235
18466SOL    HW156839   2.697   3.847   6.701  0.6651 -1.0049  1.2553
18466SOL    HW256840   2.564   3.912   6.733  0.6264  0.9532 -2.3620
18467SOL     OW56841   7.629   7.869   9.355  0.2678  0.0080  0.3953
18467SOL    HW156842   7.716   7.894   9.387  0.4154 -1.7748  1.5462
18467SOL    HW256843   7.644   7.838   9.266  0.9286 -0.8120  0.7789
18468SOL     OW56844   7.624   1.452  12.191  0.3054 -0.0774  0.2937
18468SOL    HW156845   7.578   1.454  12.107  0.3070  0.2488  0.3024
18468SOL    HW256846   7.573   1.390  12.244  0.0924 -0.0019  0.1783
18469SOL     OW56847   7.855   5.446   8.717 -0.3122  0.0285 -0.0267
18469SOL    HW156848   7.890   5.508   8.652 -0.4035 -0.1366 -0.2353
18469SOL    HW256849   7.764   5.472   8.727 -0.1448  0.4246  0.4774
18470SOL     OW56850   5.223   0.207   5.802 -0.3500  0.0169 -0.0413
18470SOL    HW156851   5.172   0.228   5.881  1.3302  0.4102  0.9822
18470SOL    HW256852   5.289   0.145   5.832  0.7148  0.6620 -1.0032
18471SOL     OW56853   7.698   3.285   2.934  0.6862  0.1712 -0.4933
18471SOL    HW156854   7.746   3.203   2.933 -1.2386 -1.0325  0.7922
18471SOL    HW256855   7.631   3.275   2.866  0.7645  0.9031 -0.6929
18472SOL     OW56856   3.015   6.226  11.283  0.4781 -0.0054  0.1498
18472SOL    HW156857   2.975   6.303  11.323 -0.3303 -0.2016 -0.2471
18472SOL    HW256858   3.085   6.200  11.343 -0.8447 -0.4460  1.5667
18473SOL     OW56859   2.594   4.992   7.570 -0.2468 -0.4801  0.1101
18473SOL    HW156860   2.617   4.905   7.536 -0.0123 -0.1596 -0.5706
18473SOL    HW256861   2.651   5.004   7.645  2.3290  0.5103 -1.8376
18474SOL     OW56862   2.737   0.090   7.506  0.1297 -0.7738  0.2030
18474SOL    HW156863   2.741   0.105   7.412  0.0533  0.2808  0.3470
18474SOL    HW256864   2.826   0.109   7.537 -0.1061 -0.0696  0.4705
18475SOL     OW56865   2.954   6.318   2.957 -0.0174  0.3169  0.0110
18475SOL    HW156866   2.962   6.223   2.968 -1.9920  0.1856  0.7189
18475SOL    HW256867   3.020   6.354   3.016 -0.6114 -0.6338  1.3245
18476SOL     OW56868   6.108   5.599   2.750  0.3465 -1.1023 -0.3382
18476SOL    HW156869   6.185   5.593   2.806  1.6757  0.2871 -1.8835
18476SOL    HW256870   6.034   5.588   2.809  1.6586  0.0891  1.6571
18477SOL     OW56871   3.891   2.097   4.997  0.1228  0.4261 -0.3027
18477SOL    HW156872   3.927   2.185   5.005 -1.2828  1.0007  0.0995
18477SOL    HW256873   3.927   2.050   5.073  0.3972  0.8281 -0.1797
18478SOL     OW56874   3.188   0.700   2.701  0.6447  0.2070  0.1693
18478SOL    HW156875   3.260   0.637   2.710  1.7023  0.5418 -3.8192
18478SOL    HW256876   3.232   0.782   2.676 -0.9907  1.1228  0.2034
18479SOL     OW56877   5.858   1.176  11.534 -0.0878 -0.2068  0.1856
18479SOL    HW156878   5.826   1.183  11.444 -0.7919  1.0942  0.5180
18479SOL    HW256879   5.780   1.177  11.588  0.4035  2.1077  0.9555
18480SOL     OW56880   6.791   6.610   8.188  0.5717 -0.3895  0.0307
18480SOL    HW156881   6.884   6.629   8.199  0.6717  0.0942 -1.4239
18480SOL    HW256882   6.785   6.515   8.193  1.2346 -0.4608 -0.3698
18481SOL     OW56883   6.274   7.309  10.315  0.7405 -0.1420 -0.4308
18481SOL    HW156884   6.333   7.377  10.284  0.1815  0.0695 -1.0661
18481SOL    HW256885   6.306   7.229  10.274  1.5206 -0.3138  0.4788
18482SOL     OW56886   1.288   0.347   6.778 -0.5637  0.0688 -0.1287
18482SOL    HW156887   1.329   0.334   6.692  0.0595 -2.4678  0.4569
18482SOL    HW256888   1.194   0.349   6.760 -0.3809  2.2132 -1.0949
18483SOL     OW56889   7.495   4.064   9.653  0.1100 -0.7236 -0.0428
18483SOL    HW156890   7.538   4.148   9.672 -1.7068  0.2796 -0.1970
18483SOL    HW256891   7.502   4.054   9.558 -0.1152 -0.5006 -0.0827
18484SOL     OW56892   0.368   3.298   9.886  0.2952 -0.1618 -0.3561
18484SOL    HW156893   0.370   3.386   9.849 -0.0011 -0.1515 -0.3447
18484SOL    HW256894   0.439   3.252   9.841  0.4499  0.0814 -0.3620
18485SOL     OW56895   2.743   3.854   0.219 -0.4103 -0.8072 -0.3739
18485SOL    HW156896   2.685   3.919   0.180 -0.7745 -0.1776  1.1668
18485SOL    HW256897   2.736   3.778   0.161 -0.9433  0.0804 -1.5065
18486SOL     OW56898   4.517   4.490   7.698 -0.1615 -0.0300  0.0705
18486SOL    HW156899   4.587   4.511   7.636 -0.6320 -0.3428 -0.5747
18486SOL    HW256900   4.498   4.574   7.741 -0.9630  0.5777 -1.3999
18487SOL     OW56901   4.312   6.323   7.519 -0.2160 -0.1947 -0.6121
18487SOL    HW156902   4.379   6.314   7.451 -0.9179 -0.1167 -1.3363
18487SOL    HW256903   4.310   6.416   7.539  1.2581 -0.4462  0.8557
18488SOL     OW56904   0.860   0.795   6.043  0.3129  0.3497 -0.1810
18488SOL    HW156905   0.861   0.736   5.967 -1.8358  0.8581 -0.6544
18488SOL    HW256906   0.870   0.736   6.118 -1.9460 -0.6911 -0.6382
18489SOL     OW56907   7.240   3.073  10.116  0.3533 -0.4578  0.0011
18489SOL    HW156908   7.304   3.121  10.169 -1.7684 -1.4068  3.8548
18489SOL    HW256909   7.271   2.982  10.118 -0.9391 -0.9164  1.8620
18490SOL     OW56910   6.684   6.942  11.658 -0.0417  0.1976  0.3270
18490SOL    HW156911   6.699   6.992  11.738  1.7928  1.6290 -0.8210
18490SOL    HW256912   6.686   6.851  11.685 -1.0367  0.6635  2.1301
18491SOL     OW56913   2.626   3.193  11.090 -0.2717  0.2113 -0.1252
18491SOL    HW156914   2.629   3.257  11.161  1.2768  0.1013 -0.0474
18491SOL    HW256915   2.644   3.109  11.133 -1.6641 -0.1964 -0.3173
18492SOL     OW56916   5.246   4.944  10.708 -0.0881 -0.1700 -0.6348
18492SOL    HW156917   5.164   4.900  10.685 -0.7582  0.1360  0.9764
18492SOL    HW256918   5.239   4.958  10.803  2.3708 -1.2673 -0.2166
18493SOL     OW56919   4.052   0.701   2.205 -0.1078 -0.3737  0.1131
18493SOL    HW156920   4.123   0.639   2.188  0.4982  0.1179  0.7905
18493SOL    HW256921   4.089   0.764   2.267 -0.8925  0.3481 -0.1309
18494SOL     OW56922   0.509   6.839   2.207  0.3834 -0.0782  0.0041
18494SOL    HW156923   0.500   6.869   2.116 -0.4785  1.4541  0.5489
18494SOL    HW256924   0.597   6.866   2.233  0.4891 -0.1714 -0.2531
18495SOL     OW56925   4.189   5.523   0.147  0.3658 -0.5777  0.0522
18495SOL    HW156926   4.128   5.477   0.091  1.5576 -0.7205 -1.1968
18495SOL    HW256927   4.136   5.555   0.220 -0.8709 -2.0668 -0.1409
18496SOL     OW56928   1.601   3.764   5.425  0.3410  0.3089  0.2036
18496SOL    HW156929   1.606   3.790   5.516  1.2866  0.6035  0.0723
18496SOL    HW256930   1.617   3.844   5.375  0.3895  0.0438 -0.2205
18497SOL     OW56931   6.570   0.705   0.651 -0.5354 -0.4057  0.3496
18497SOL    HW156932   6.659   0.672   0.658 -0.6317 -0.8532 -0.3776
18497SOL    HW256933   6.532   0.693   0.738  0.9449  2.3497  1.4921
18498SOL     OW56934   6.740   0.008   9.596 -0.1305 -0.0903  0.0551
18498SOL    HW156935   6.727  -0.014   9.504  0.2678 -0.6432  0.1238
18498SOL    HW256936   6.662   0.057   9.621 -0.8855 -1.1480 -0.1973
18499SOL     OW56937   0.661   1.495   1.704 -0.3015 -0.2734  0.3306
18499SOL    HW156938   0.587   1.441   1.676  0.2580 -0.1907 -1.3955
18499SOL    HW256939   0.639   1.520   1.794 -1.7419 -1.3233  0.3070
18500SOL     OW56940   1.886   0.852  11.930 -0.3662 -0.1778 -0.2836
18500SOL    HW156941   1.964   0.806  11.962 -0.0315 -0.3201 -1.2632
18500SOL    HW256942   1.822   0.844  12.001  0.1570 -0.9593  0.1151
18501SOL     OW56943   3.524   5.892   4.500 -0.1342  0.0670  0.3508
18501SOL    HW156944   3.548   5.928   4.585 -1.1243  1.0875  0.2181
18501SOL    HW256945   3.433   5.919   4.487 -0.3270 -0.9636 -0.5720
18502SOL     OW56946   6.432   1.430   1.243 -0.1396 -0.0189 -0.0203
18502SOL    HW156947   6.490   1.357   1.218 -0.2881 -0.0560 -0.2678
18502SOL    HW256948   6.348   1.406   1.206 -0.2177  0.2261 -0.0006
18503SOL     OW56949   1.510   2.164   0.887  0.4734 -0.4688  0.1267
18503SOL    HW156950   1.444   2.234   0.888  0.8648  0.1376  4.5209
18503SOL    HW256951   1.593   2.209   0.879  0.6371 -0.5923  1.0685
18504SOL     OW56952   1.522   1.565   0.887  0.2670 -0.2968  0.6730
18504SOL    HW156953   1.549   1.489   0.835  1.3795  1.8911 -2.2096
18504SOL    HW256954   1.600   1.590   0.936  1.2398  1.2888 -1.5280
18505SOL     OW56955   0.623   0.567   2.480  0.8791  0.5159  0.1225
18505SOL    HW156956   0.689   0.520   2.430 -1.0285 -2.0604 -0.1956
18505SOL    HW256957   0.539   0.538   2.444 -0.5000  2.6730  1.3191
18506SOL     OW56958   6.816   0.731   1.947 -0.2284  0.2192 -0.5647
18506SOL    HW156959   6.818   0.827   1.952  0.5160  0.1469  1.7003
18506SOL    HW256960   6.907   0.705   1.958 -0.4851 -0.7555 -0.6806
18507SOL     OW56961   3.013   6.823   5.606 -0.0916  0.5119 -0.2193
18507SOL    HW156962   3.053   6.887   5.548 -1.4918  1.6672  0.0188
18507SOL    HW256963   2.926   6.858   5.624 -0.7272 -1.2103  0.3413
18508SOL     OW56964   0.020   2.646   8.881 -0.6984  0.4552 -0.3653
18508SOL    HW156965   0.041   2.623   8.972  0.2667  1.2457 -0.3708
18508SOL    HW256966   0.073   2.587   8.828 -1.0482  0.1844 -0.4163
18509SOL     OW56967   1.844   3.569   5.230  0.8169 -0.3505  0.2012
18509SOL    HW156968   1.758   3.534   5.252  0.9436  0.1532  1.5463
18509SOL    HW256969   1.890   3.496   5.190 -0.1921 -0.6519 -0.4460
18510SOL     OW56970   2.646   5.020   6.143  0.2495 -0.3957 -0.2731
18510SOL    HW156971   2.719   5.074   6.114  1.3470 -1.4881  0.4083
18510SOL    HW256972   2.571   5.080   6.142  1.3827  1.1006  0.2500
18511SOL     OW56973   3.477   2.232   2.489 -0.4277 -0.1475  0.7318
18511SOL    HW156974   3.417   2.198   2.423 -1.1306 -1.1940  1.8665
18511SOL    HW256975   3.431   2.308   2.526 -1.0982 -0.9526  1.6051
18512SOL     OW56976   6.116   0.206   1.888  0.1371  0.3886  0.0102
18512SOL    HW156977   6.132   0.166   1.974 -2.9373  0.9975  1.0109
18512SOL    HW256978   6.198   0.193   1.840  1.8123 -0.4690  2.8146
18513SOL     OW56979   7.519   7.876   3.156  0.1583  0.4601  0.5682
18513SOL    HW156980   7.510   7.950   3.096  0.3556 -0.6445 -0.8743
18513SOL    HW256981   7.613   7.868   3.171  0.3180 -0.6473 -0.8256
18514SOL     OW56982   0.777   1.256   0.511 -0.2731  0.0652  0.3696
18514SOL    HW156983   0.850   1.309   0.479 -0.8379  2.4103  2.6110
18514SOL    HW256984   0.773   1.274   0.605 -3.0820 -0.7878  0.5178
18515SOL     OW56985   6.408   7.403   6.201  0.0100  0.2881  0.1979
18515SOL    HW156986   6.413   7.315   6.162 -0.9728 -0.2123  1.1536
18515SOL    HW256987   6.441   7.461   6.133 -0.6686 -0.6761 -0.9929
18516SOL     OW56988   5.474   4.818   0.932  0.3179 -0.7596  0.5373
18516SOL    HW156989   5.413   4.888   0.959  0.7085  0.6157 -1.8618
18516SOL    HW256990   5.417   4.744   0.912 -0.3370 -0.3530  0.8291
18517SOL     OW56991   6.196   5.257  10.205 -0.0957 -0.0800 -0.2249
18517SOL    HW156992   6.228   5.226  10.290  1.6133  1.1796 -0.3591
18517SOL    HW256993   6.158   5.179  10.164 -0.6553 -0.7790  1.5440
18518SOL     OW56994   7.933   1.364   7.414  0.0426  0.7006 -0.7597
18518SOL    HW156995   7.892   1.346   7.330 -0.8678  1.0425 -0.4033
18518SOL    HW256996   7.977   1.449   7.402  1.8285 -0.2759 -1.5427
18519SOL     OW56997   3.376   4.606   5.196  0.7387 -0.0365 -0.3767
18519SOL    HW156998   3.338   4.675   5.141  2.0420 -0.2295 -1.5705
18519SOL    HW256999   3.470   4.615   5.183  0.9223 -2.6705 -1.3623
18520SOL     OW57000   5.427   1.997   5.433  0.0092  0.2829  0.0169
18520SOL    HW157001   5.392   2.077   5.473 -1.1025 -0.3354  0.3400
18520SOL    HW257002   5.515   1.988   5.469 -0.3744  0.6225  1.0646
18521SOL     OW57003   7.220   7.761   4.336  0.0044  0.1303  0.5754
18521SOL    HW157004   7.157   7.731   4.402 -1.4442  0.4445 -0.6104
18521SOL    HW257005   7.200   7.854   4.326 -0.5421 -0.1448 -1.0755
18522SOL     OW57006   0.887   2.990  10.878  0.0456 -0.3775  0.8618
18522SOL    HW157007   0.962   2.932  10.894  0.1608 -0.3545  0.4274
18522SOL    HW257008   0.924   3.063  10.828 -0.5782 -1.2336 -0.9407
18523SOL     OW57009   5.899   4.873   0.250 -0.5515 -0.4746  0.4663
18523SOL    HW157010   5.869   4.953   0.206 -2.0967  0.6851  3.3637
18523SOL    HW257011   5.973   4.844   0.197 -0.7841  2.0884 -1.5084
18524SOL     OW57012   5.263   4.767   9.081  0.2144 -0.1053 -0.2727
18524SOL    HW157013   5.169   4.771   9.064  0.0486 -0.1632  0.6034
18524SOL    HW257014   5.300   4.833   9.023 -0.2314 -0.9124 -1.5115
18525SOL     OW57015   4.352   3.498   0.563  0.8765  0.3185  0.1261
18525SOL    HW157016   4.375   3.573   0.508  0.7127  0.4198  0.1944
18525SOL    HW257017   4.374   3.526   0.652  1.1056  0.1692  0.1182
18526SOL     OW57018   7.542   2.043  10.145  0.2434 -0.1169 -0.4574
18526SOL    HW157019   7.526   1.978  10.077 -0.2331 -0.3529 -0.1253
18526SOL    HW257020   7.553   2.125  10.098 -2.8252  0.2492 -0.7100
18527SOL     OW57021   2.889   6.032  10.471  0.2388 -0.1333 -0.2503
18527SOL    HW157022   2.804   6.044  10.513  0.8255  1.2338  0.6011
18527SOL    HW257023   2.876   6.066  10.382 -0.3839 -0.9440 -0.4843
18528SOL     OW57024   6.642   6.868  11.304 -0.4140  0.2629 -0.3859
18528SOL    HW157025   6.651   6.960  11.329  1.0150  0.0243  0.1117
18528SOL    HW257026   6.548   6.850  11.311 -0.5646  1.3411  0.7671
18529SOL     OW57027   0.722   1.937  12.097 -0.2979  0.6061  0.1220
18529SOL    HW157028   0.814   1.924  12.119 -0.4254  0.1410  0.3967
18529SOL    HW257029   0.688   1.995  12.166 -0.6073 -0.5553  0.9913
18530SOL     OW57030   0.146   1.535  11.068  0.4109 -0.1232 -0.0382
18530SOL    HW157031   0.081   1.591  11.111  0.4456  0.5033 -0.7741
18530SOL    HW257032   0.106   1.513  10.984  1.4625  0.9209 -0.8313
18531SOL     OW57033   6.018   3.889  10.136  0.1442  0.4430 -0.7311
18531SOL    HW157034   5.929   3.887  10.171  1.1419  0.8934  2.0417
18531SOL    HW257035   6.019   3.967  10.080 -1.8881 -1.0714 -3.0897
18532SOL     OW57036   3.320   1.578  11.724  0.3527 -0.3803 -0.1098
18532SOL    HW157037   3.260   1.607  11.793  0.4385 -0.8286  0.1576
18532SOL    HW257038   3.278   1.500  11.688 -1.2853  1.5151 -2.6890
18533SOL     OW57039   5.568   5.342   7.260 -0.1980 -0.6073  0.1762
18533SOL    HW157040   5.488   5.290   7.254 -0.7828  0.3194 -0.2978
18533SOL    HW257041   5.634   5.280   7.291 -1.0759 -1.4075  0.5144
18534SOL     OW57042   5.891   1.413   0.723 -0.3049 -0.1574  0.1243
18534SOL    HW157043   5.985   1.427   0.709 -0.4448  0.6081 -0.1154
18534SOL    HW257044   5.855   1.501   0.735 -1.0764 -0.4059 -0.2961
18535SOL     OW57045   4.541   0.756   4.356 -0.6383 -0.1253 -0.3938
18535SOL    HW157046   4.588   0.797   4.284  0.4517 -0.8809 -0.1539
18535SOL    HW257047   4.576   0.666   4.359 -2.6653 -0.9786 -0.6876
18536SOL     OW57048   3.514   3.014   9.396  0.1309  0.1116  0.1015
18536SOL    HW157049   3.602   2.976   9.393  0.5902  0.9753  1.6431
18536SOL    HW257050   3.528   3.108   9.388 -0.6276  0.2735  0.5408
18537SOL     OW57051   6.573   5.650   8.494 -0.5368  0.0674 -0.0702
18537SOL    HW157052   6.592   5.620   8.405 -0.3538 -1.6678  0.5132
18537SOL    HW257053   6.554   5.570   8.543  2.5112  0.5602  2.2382
18538SOL     OW57054   7.728   4.747   0.361  0.2635 -0.0251 -0.2407
18538SOL    HW157055   7.754   4.808   0.431  2.6553 -0.8087 -0.3599
18538SOL    HW257056   7.653   4.701   0.397  1.0899 -0.0135  1.6467
18539SOL     OW57057   6.766   4.152   7.944 -0.5707 -0.4971  0.0914
18539SOL    HW157058   6.825   4.135   7.870  0.6408  0.0249  0.8959
18539SOL    HW257059   6.822   4.140   8.021 -1.2009  1.2054  0.8571
18540SOL     OW57060   6.315   5.148   0.340  0.4782 -0.4026 -0.0561
18540SOL    HW157061   6.360   5.229   0.364 -1.2925  0.5811  0.1199
18540SOL    HW257062   6.371   5.108   0.274  0.6070  1.8035 -1.3787
18541SOL     OW57063   2.294   0.445   2.388 -0.1513  0.4520 -0.1274
18541SOL    HW157064   2.290   0.540   2.393 -0.6970  0.3691  2.1620
18541SOL    HW257065   2.304   0.426   2.295 -1.7799  2.6653 -0.8246
18542SOL     OW57066   2.784   1.882   9.662  0.2257  1.0446  0.3448
18542SOL    HW157067   2.821   1.909   9.578  2.1169  1.5829  1.3040
18542SOL    HW257068   2.789   1.960   9.717 -0.5398  0.5642  1.1238
18543SOL     OW57069   3.751   7.188   7.056 -0.2689 -0.0378  0.2357
18543SOL    HW157070   3.767   7.106   7.009  0.3873  0.9679 -1.3970
18543SOL    HW257071   3.657   7.204   7.045  0.2005  1.3786 -3.0071
18544SOL     OW57072   2.994   2.041   4.013  0.5689 -0.1834 -0.2353
18544SOL    HW157073   3.052   2.071   3.943 -0.1805  0.0229 -0.7782
18544SOL    HW257074   3.052   1.993   4.073  1.9503  2.6568  0.9255
18545SOL     OW57075   1.116   5.392   1.579 -0.3019 -0.1706 -0.1118
18545SOL    HW157076   1.079   5.386   1.491 -1.2919 -1.0596  0.3400
18545SOL    HW257077   1.054   5.344   1.635  1.5357 -1.7651  0.6974
18546SOL     OW57078   4.339   7.166   0.247 -0.4240  0.1131 -0.3233
18546SOL    HW157079   4.266   7.165   0.308  0.2715  1.5660  0.6081
18546SOL    HW257080   4.335   7.252   0.206 -0.6625 -0.7001 -2.1027
18547SOL     OW57081   6.933   1.317   3.967  0.1392  0.3929  0.0992
18547SOL    HW157082   6.965   1.383   4.029  1.1508  0.9678 -0.9861
18547SOL    HW257083   6.849   1.351   3.937  0.0795  0.5722  0.4692
18548SOL     OW57084   1.246   2.973   4.821 -0.1824  0.2757 -0.3024
18548SOL    HW157085   1.219   3.048   4.873 -0.1138  0.3510 -0.3745
18548SOL    HW257086   1.288   2.914   4.884  0.5607  0.6912 -0.3965
18549SOL     OW57087   1.194   3.757  10.615 -0.2462  0.2480  0.1880
18549SOL    HW157088   1.211   3.832  10.673 -1.3400  1.8095 -1.4075
18549SOL    HW257089   1.263   3.763  10.548 -1.3613  0.9484 -0.9463
18550SOL     OW57090   6.152   6.604   2.584 -0.5124 -0.5907 -0.0829
18550SOL    HW157091   6.185   6.517   2.608  0.5014 -0.1130  0.3558
18550SOL    HW257092   6.185   6.661   2.654 -1.0226  0.1702 -0.4535
18551SOL     OW57093   0.765   5.771   9.727 -0.0459  0.3381  0.0759
18551SOL    HW157094   0.691   5.721   9.693  0.9911 -1.3116  0.1373
18551SOL    HW257095   0.811   5.710   9.785  1.2319  1.3937  0.2226
18552SOL     OW57096   7.536   4.211   7.845  0.0080 -0.3941  0.0436
18552SOL    HW157097   7.556   4.134   7.899  1.3011  0.0987  0.3172
18552SOL    HW257098   7.465   4.255   7.891 -1.1677 -1.7399 -0.4481
18553SOL     OW57099   0.646   6.234   6.890  0.0462  0.3526  0.1741
18553SOL    HW157100   0.580   6.180   6.846 -0.4407  1.2344 -0.1943
18553SOL    HW257101   0.596   6.302   6.934  0.6053  0.0633  1.2986
18554SOL     OW57102   1.961   2.880  10.654 -0.3110 -0.0464 -0.3579
18554SOL    HW157103   1.951   2.886  10.558 -0.5070  0.1061 -0.3293
18554SOL    HW257104   2.002   2.795  10.668  0.1668  0.1361 -0.6126
18555SOL     OW57105   7.423   7.370   3.591 -0.1972  0.4139  0.3599
18555SOL    HW157106   7.426   7.355   3.497 -0.5937 -0.3082  0.4554
18555SOL    HW257107   7.381   7.455   3.600 -0.7335  0.2073 -0.1012
18556SOL     OW57108   7.437   3.057   7.703  0.7642 -0.1411 -0.1818
18556SOL    HW157109   7.342   3.072   7.704  0.6144 -0.9780 -0.3948
18556SOL    HW257110   7.460   3.056   7.610  0.6321 -1.8235 -0.2310
18557SOL     OW57111   5.664   1.530  11.271 -0.1389  0.2148 -0.2222
18557SOL    HW157112   5.616   1.597  11.320 -0.1875 -0.4015  0.6030
18557SOL    HW257113   5.755   1.561  11.270 -0.1702  0.3195  0.1150
18558SOL     OW57114   6.744   0.249   2.107  0.2646 -0.5195  0.3321
18558SOL    HW157115   6.673   0.290   2.059 -0.8421 -3.6890 -0.9647
18558SOL    HW257116   6.801   0.212   2.040  1.0973 -1.2453  1.4003
18559SOL     OW57117   7.885   3.185   5.868  0.0252 -0.1313  0.4272
18559SOL    HW157118   7.888   3.281   5.875  0.4394  0.0001 -1.1728
18559SOL    HW257119   7.975   3.157   5.885  0.1878 -0.1181 -0.3752
18560SOL     OW57120   3.243   1.158   7.835  0.2236  0.2581  0.6485
18560SOL    HW157121   3.182   1.222   7.871 -0.0864  0.5119 -0.2977
18560SOL    HW257122   3.272   1.107   7.911  1.5273  2.3694  1.6814
18561SOL     OW57123   0.680   6.436   5.520 -0.5146  0.0032 -0.0451
18561SOL    HW157124   0.742   6.400   5.457  0.4280 -2.0071  1.9203
18561SOL    HW257125   0.729   6.504   5.566 -0.1193 -0.7678  0.6968
18562SOL     OW57126   3.341   7.269   9.524 -0.1199 -0.0732  0.2391
18562SOL    HW157127   3.405   7.301   9.587 -0.1313 -2.8083  1.7621
18562SOL    HW257128   3.257   7.279   9.568 -0.8831  3.1059 -1.5902
18563SOL     OW57129   0.350   5.524  12.263 -0.1798  0.3136 -0.2443
18563SOL    HW157130   0.299   5.531  12.183  1.4649  0.1471 -1.3525
18563SOL    HW257131   0.403   5.445  12.251  1.8673  1.5939 -0.0996
18564SOL     OW57132   2.939   7.126   2.364  0.4441 -0.2122  0.4040
18564SOL    HW157133   2.957   7.220   2.374  0.4646  0.2863 -2.9284
18564SOL    HW257134   2.866   7.123   2.301 -0.7665 -2.4497  1.8033
18565SOL     OW57135   4.553   2.432   7.615  0.0138 -0.1589 -0.4298
18565SOL    HW157136   4.576   2.390   7.531 -1.4351 -0.0999 -0.8721
18565SOL    HW257137   4.526   2.520   7.590  3.7295  1.4732  0.5478
18566SOL     OW57138   1.728   6.173   0.906  0.5565  0.0634 -0.3304
18566SOL    HW157139   1.773   6.114   0.966 -0.8465  0.7497  1.4625
18566SOL    HW257140   1.641   6.135   0.894 -0.4051  1.7592  0.9362
18567SOL     OW57141   2.393   4.619  10.020 -0.1044  0.4338 -0.0279
18567SOL    HW157142   2.362   4.591   9.934 -0.5481 -0.6467  0.4621
18567SOL    HW257143   2.482   4.586  10.026 -0.2625  0.0350  0.1382
18568SOL     OW57144   2.108   4.334   0.342 -0.5777 -0.6329  0.4795
18568SOL    HW157145   2.068   4.420   0.361 -0.4239 -0.2796 -0.6942
18568SOL    HW257146   2.100   4.325   0.247  1.8899 -0.6782  0.2190
18569SOL     OW57147   6.595   7.567  11.536 -0.3664 -0.3692  0.0076
18569SOL    HW157148   6.550   7.554  11.620 -0.2802 -1.5738 -0.1200
18569SOL    HW257149   6.647   7.646  11.548 -0.9738 -0.0888  0.8271
18570SOL     OW57150   4.986   7.519   4.620  0.1090  0.2182 -0.4999
18570SOL    HW157151   4.923   7.590   4.635 -0.2359 -0.1824  0.0033
18570SOL    HW257152   4.972   7.493   4.529 -1.5231 -0.8430 -0.0034
18571SOL     OW57153   4.926   1.193   7.602 -0.4339 -0.1904 -0.0718
18571SOL    HW157154   4.929   1.232   7.689  1.9914 -1.9917  0.7922
18571SOL    HW257155   4.841   1.218   7.566 -1.4053  0.8236  2.6980
18572SOL     OW57156   0.024   3.389  10.263  0.0145  0.2623  0.0507
18572SOL    HW157157  -0.052   3.356  10.310  0.2287 -0.5583 -0.1547
18572SOL    HW257158  -0.007   3.468  10.219 -1.2959 -1.1093 -1.6275
18573SOL     OW57159   1.079   0.100   6.938  0.0560 -0.2968 -0.4106
18573SOL    HW157160   1.149   0.055   6.892  0.1202 -0.4331 -0.1817
18573SOL    HW257161   1.009   0.035   6.946 -0.1694 -0.1042 -0.8038
18574SOL     OW57162   7.196   1.473   2.011  0.0685 -0.0392  0.1040
18574SOL    HW157163   7.207   1.404   2.077 -1.1964  0.9807  1.4527
18574SOL    HW257164   7.254   1.544   2.040  1.6564 -0.6116 -1.4876
18575SOL     OW57165   7.858   1.798   6.968  0.2457  0.5017  0.1656
18575SOL    HW157166   7.879   1.848   7.047  1.9846  0.3178 -0.1406
18575SOL    HW257167   7.828   1.864   6.906  0.8765  0.9477  0.3204
18576SOL     OW57168   1.714   6.167   4.370 -0.0744 -0.4837  0.3306
18576SOL    HW157169   1.768   6.161   4.449 -0.2965 -1.3772  0.4267
18576SOL    HW257170   1.662   6.087   4.371 -1.0397  0.1265 -0.0321
18577SOL     OW57171   0.083   7.128   3.061 -0.1177  0.2991 -0.3074
18577SOL    HW157172   0.119   7.069   2.994 -2.0599  0.0308 -1.1756
18577SOL    HW257173   0.160   7.173   3.096  1.1975 -1.1866 -1.1275
18578SOL     OW57174   0.595   0.386   8.342 -0.5625 -0.2344 -0.1180
18578SOL    HW157175   0.620   0.376   8.434 -1.1272  1.1163  0.1976
18578SOL    HW257176   0.679   0.396   8.296 -0.3280  0.2783  0.4094
18579SOL     OW57177   2.099   0.564   9.838 -0.4513 -0.3064  0.0199
18579SOL    HW157178   2.061   0.643   9.801  0.1249  0.1704  0.4180
18579SOL    HW257179   2.033   0.497   9.825  0.1235 -0.4320 -2.8160
18580SOL     OW57180   0.188   0.782   7.578 -0.4512 -0.4363 -0.1882
18580SOL    HW157181   0.246   0.707   7.559  0.1761  0.1858 -0.8152
18580SOL    HW257182   0.171   0.821   7.492 -0.2523  0.5125  0.1880
18581SOL     OW57183   2.506   6.904  10.488  0.1574 -0.1516  0.1978
18581SOL    HW157184   2.446   6.853  10.542  1.4741 -1.1802  0.7242
18581SOL    HW257185   2.575   6.931  10.548 -0.1837  1.7808 -0.1964
18582SOL     OW57186   7.225   7.870   4.883 -0.4220 -1.2701  0.6123
18582SOL    HW157187   7.284   7.937   4.849 -0.2515 -0.3750  2.5269
18582SOL    HW257188   7.190   7.908   4.964 -1.6700 -2.8068  0.8439
18583SOL     OW57189   7.371   1.685   9.357  0.5044 -0.1873  0.2405
18583SOL    HW157190   7.432   1.714   9.290 -1.2570 -1.3931 -2.0089
18583SOL    HW257191   7.289   1.730   9.337 -0.4685 -1.6986  0.6560
18584SOL     OW57192   0.161   0.550   5.963 -0.4017  0.5892 -0.1829
18584SOL    HW157193   0.241   0.601   5.950 -0.3305  0.7802  0.8941
18584SOL    HW257194   0.190   0.471   6.008 -0.5797 -0.2082 -1.4297
18585SOL     OW57195   0.257   7.891  10.841  0.2516  0.3743  0.1276
18585SOL    HW157196   0.223   7.965  10.790  0.4612  0.8890  0.7291
18585SOL    HW257197   0.272   7.822  10.775 -0.9154  0.5049 -0.2962
18586SOL     OW57198   7.306   7.746  10.056 -0.1409  0.5645 -0.1760
18586SOL    HW157199   7.249   7.761   9.980 -0.7558  1.5034  0.4367
18586SOL    HW257200   7.279   7.661  10.090 -0.0241  0.2460 -0.8649
18587SOL     OW57201   0.771   6.869  10.833  0.3485 -0.4674 -0.3437
18587SOL    HW157202   0.822   6.889  10.755  0.4820  3.0321  0.4754
18587SOL    HW257203   0.834   6.873  10.905 -0.6419  1.8987  0.4679
18588SOL     OW57204   0.430   2.288   7.496  0.2728  0.0873 -0.0027
18588SOL    HW157205   0.390   2.363   7.452  1.8844  2.1818  1.9066
18588SOL    HW257206   0.377   2.275   7.575 -0.0823 -0.9323 -0.3864
18589SOL     OW57207   6.971   1.071  12.389 -0.0722  0.2730 -0.0411
18589SOL    HW157208   6.879   1.096  12.400 -0.2474 -0.7231  0.8755
18589SOL    HW257209   6.983   0.995  12.446  1.6538  1.1786  0.9201
18590SOL     OW57210   4.441   5.835   1.782  0.6927 -0.3531 -0.4109
18590SOL    HW157211   4.357   5.860   1.822  1.3027 -0.2332  0.8504
18590SOL    HW257212   4.460   5.905   1.720 -1.0917 -1.3680 -2.2405
18591SOL     OW57213   5.840   1.728   2.162  0.0380  0.3225  0.2387
18591SOL    HW157214   5.892   1.796   2.203 -2.3124  2.6680 -0.4230
18591SOL    HW257215   5.904   1.676   2.112  1.8992  2.0611  0.6958
18592SOL     OW57216   7.188   4.456   5.601 -0.8348  0.3071  0.0003
18592SOL    HW157217   7.184   4.368   5.565 -1.6885  0.5933 -0.6624
18592SOL    HW257218   7.261   4.497   5.555 -2.1888  0.8115 -1.8532
18593SOL     OW57219   7.947   0.378   2.592  0.2366 -0.2916 -0.5469
18593SOL    HW157220   7.912   0.289   2.600 -0.5374 -0.0654 -1.3098
18593SOL    HW257221   7.990   0.394   2.676 -1.9855 -0.3922  0.6895
18594SOL     OW57222   6.468   1.324   0.540  0.4138  0.1878  0.2573
18594SOL    HW157223   6.480   1.238   0.499 -0.2113 -1.0546  2.4705
18594SOL    HW257224   6.375   1.344   0.527  0.0928 -0.4508  1.4012
18595SOL     OW57225   5.222   6.562   1.496 -0.4039  0.0934 -0.3845
18595SOL    HW157226   5.167   6.569   1.418 -0.9468 -0.2952 -0.0420
18595SOL    HW257227   5.199   6.639   1.548  1.2081  1.3188 -1.3622
18596SOL     OW57228   2.480   1.546   7.932  0.4291 -0.1199  0.4453
18596SOL    HW157229   2.447   1.549   8.022  0.6318 -0.0292  0.5183
18596SOL    HW257230   2.403   1.559   7.878  0.4767  1.0273  0.6310
18597SOL     OW57231   0.821   0.415   2.294  0.0659  0.5783 -0.4363
18597SOL    HW157232   0.829   0.327   2.256 -1.1598  0.4236 -0.3765
18597SOL    HW257233   0.794   0.470   2.220 -3.0484  0.1429  0.2366
18598SOL     OW57234   2.607   1.638  10.991  0.0708 -0.3980  0.7018
18598SOL    HW157235   2.563   1.722  11.004  0.3249 -0.2178  0.4274
18598SOL    HW257236   2.607   1.625  10.897  0.5024 -0.4480  0.7067
18599SOL     OW57237   4.881   1.175  10.909 -0.1839  0.0252  0.2245
18599SOL    HW157238   4.878   1.261  10.952  0.0790  0.3193 -0.3404
18599SOL    HW257239   4.865   1.194  10.817 -1.9518 -0.7389  0.3484
18600SOL     OW57240   3.348   5.884   3.744  0.1309  0.2021 -0.6295
18600SOL    HW157241   3.337   5.965   3.793  0.8309  1.0491 -1.8025
18600SOL    HW257242   3.341   5.911   3.652 -2.2273 -1.4776 -1.0475
18601SOL     OW57243   4.675   0.044   2.904  0.0545  0.8508 -0.3664
18601SOL    HW157244   4.600   0.102   2.888  0.0692  0.6637 -1.1563
18601SOL    HW257245   4.645  -0.015   2.974 -0.9546  0.0728 -1.4140
18602SOL     OW57246   1.659   4.607   6.627  0.3335  0.4088  0.1521
18602SOL    HW157247   1.618   4.682   6.669  0.6665  0.3697  0.5553
18602SOL    HW257248   1.709   4.564   6.697 -0.2771 -0.4918  0.0539
18603SOL     OW57249   2.123   0.351  11.031 -0.0873 -0.4129  0.1633
18603SOL    HW157250   2.106   0.299  10.952  0.0616 -0.5094  0.1938
18603SOL    HW257251   2.143   0.286  11.098 -1.5055 -0.4086  0.6169
18604SOL     OW57252   7.713   7.359   1.250  0.4790 -0.3929 -0.3833
18604SOL    HW157253   7.789   7.309   1.280  0.1200 -0.2910  0.7285
18604SOL    HW257254   7.733   7.449   1.273 -0.5987 -0.5368  1.3340
18605SOL     OW57255   0.476   1.996   4.736 -0.2150 -0.0093 -0.4892
18605SOL    HW157256   0.473   2.071   4.676 -2.2506 -0.2766 -0.7763
18605SOL    HW257257   0.386   1.985   4.766  0.2238 -1.7459  0.3221
18606SOL     OW57258   1.801   2.179   2.389  0.0508  0.3847 -0.5333
18606SOL    HW157259   1.745   2.148   2.460 -0.1952  2.1080  0.0822
18606SOL    HW257260   1.767   2.135   2.311 -1.1455  0.1734  0.0785
18607SOL     OW57261   5.001   3.144   0.246  0.4433 -0.0557  0.4251
18607SOL    HW157262   4.949   3.064   0.252  1.2326 -0.5952  0.1190
18607SOL    HW257263   4.939   3.210   0.214  0.0496 -0.7953 -0.3720
18608SOL     OW57264   4.246   1.828  11.262  0.1407  0.0829 -0.2050
18608SOL    HW157265   4.268   1.917  11.288 -0.3597  1.1034 -2.9506
18608SOL    HW257266   4.153   1.832  11.240  0.1881 -1.0402 -0.6580
18609SOL     OW57267   1.688   0.111   8.488  0.2596 -0.2882  0.5332
18609SOL    HW157268   1.715   0.203   8.494 -0.5093 -0.1425  2.2850
18609SOL    HW257269   1.758   0.069   8.437 -0.1628  1.5245 -1.7214
18610SOL     OW57270   0.578   0.956   6.899  0.0198  0.1689  0.2080
18610SOL    HW157271   0.564   1.049   6.880 -0.3835  0.4831  1.8856
18610SOL    HW257272   0.635   0.925   6.828  0.8663  1.8994  0.0897
18611SOL     OW57273   3.152   1.592  12.237  0.5620 -0.4903 -0.1316
18611SOL    HW157274   3.158   1.500  12.262  1.1959  0.1296  2.2941
18611SOL    HW257275   3.081   1.627  12.292 -0.1651  0.3491 -1.5377
18612SOL     OW57276   2.232   5.630   5.593  0.4624 -0.1068 -0.1504
18612SOL    HW157277   2.258   5.566   5.659 -0.8645 -0.1509  0.3679
18612SOL    HW257278   2.279   5.710   5.617  2.3976 -0.9142 -0.9994
18613SOL     OW57279   3.169   2.394  10.179 -0.2780  0.2244  0.5249
18613SOL    HW157280   3.159   2.299  10.189 -0.2158  0.1560 -0.0620
18613SOL    HW257281   3.200   2.423  10.265  0.0791 -0.3414  0.5961
18614SOL     OW57282   3.706   2.618   7.355 -0.2465 -0.2693 -0.0409
18614SOL    HW157283   3.719   2.695   7.410  0.5689 -1.0550  0.9298
18614SOL    HW257284   3.695   2.652   7.267 -3.2846  1.1419  0.7661
18615SOL     OW57285   1.192   5.760  11.765 -0.1596 -0.2030  0.0605
18615SOL    HW157286   1.178   5.769  11.671 -0.6026 -1.4494 -0.0157
18615SOL    HW257287   1.163   5.671  11.785  3.7305 -1.5051  0.6717
18616SOL     OW57288   7.473   7.422   8.452 -0.3209  0.2816  0.2250
18616SOL    HW157289   7.480   7.515   8.433  1.0570  0.4510  1.4115
18616SOL    HW257290   7.493   7.414   8.545 -0.1627 -1.2256  0.0954
18617SOL     OW57291   6.970   3.229  11.783 -0.6571 -0.2760 -0.1274
18617SOL    HW157292   6.987   3.251  11.874 -1.2886 -0.5528  0.0645
18617SOL    HW257293   7.048   3.258  11.736 -1.0919  1.5462  0.2250
18618SOL     OW57294   0.791   2.249   9.622  0.3218 -0.1999  0.3408
18618SOL    HW157295   0.872   2.211   9.655 -0.6780 -1.4202  1.5015
18618SOL    HW257296   0.765   2.192   9.550  1.6513  1.5333 -1.6378
18619SOL     OW57297   2.422   5.539  11.868  0.5751  0.1490  0.1919
18619SOL    HW157298   2.416   5.447  11.896  1.3155 -0.0049 -0.1063
18619SOL    HW257299   2.470   5.582  11.939  1.2263  0.0537 -0.1780
18620SOL     OW57300   6.343   2.277   2.642 -0.4875 -0.2845 -0.2285
18620SOL    HW157301   6.415   2.321   2.597  0.0496 -1.0405 -0.1364
18620SOL    HW257302   6.343   2.314   2.730 -0.6171  0.1662 -0.4151
18621SOL     OW57303   6.657   1.200  12.005 -0.0048 -0.0374 -0.1620
18621SOL    HW157304   6.747   1.225  11.980 -0.1528  2.4765  1.4000
18621SOL    HW257305   6.667   1.116  12.049  1.8995  0.8899  1.3555
18622SOL     OW57306   0.589   6.016  10.409 -0.2248  0.0057 -0.7876
18622SOL    HW157307   0.667   6.013  10.354  0.8494 -2.0389  0.7117
18622SOL    HW257308   0.600   5.944  10.471 -2.2853  0.9989  0.8765
18623SOL     OW57309   6.514   7.839   8.767 -0.4262 -0.4299 -0.1990
18623SOL    HW157310   6.551   7.912   8.816  2.2541 -0.2023 -2.3429
18623SOL    HW257311   6.439   7.877   8.721 -0.0543  0.5440 -0.0216
18624SOL     OW57312   7.824   1.835  11.425 -0.2168  0.3234 -0.3335
18624SOL    HW157313   7.838   1.848  11.519  2.1150  0.9444 -0.6925
18624SOL    HW257314   7.780   1.914  11.396  2.3613  1.8745 -0.3143
18625SOL     OW57315   7.613   1.676   9.214  0.1355 -0.4730 -0.5023
18625SOL    HW157316   7.553   1.655   9.143 -0.2724 -2.9191  0.4707
18625SOL    HW257317   7.678   1.606   9.212  1.3102  0.5569  0.2634
18626SOL     OW57318   2.013   0.034   5.600  0.0045 -0.1264 -0.2292
18626SOL    HW157319   2.012   0.061   5.508  0.7203 -1.4123 -0.6439
18626SOL    HW257320   1.947  -0.036   5.605 -0.3489  0.2360  0.3471
18627SOL     OW57321   6.826   3.741  11.861 -0.1546 -0.4687  0.2344
18627SOL    HW157322   6.812   3.655  11.901 -0.0639 -0.2387  0.7743
18627SOL    HW257323   6.747   3.791  11.883 -1.3283 -1.1370 -2.1202
18628SOL     OW57324   2.431   1.225  11.884  0.1046  0.1023  0.2915
18628SOL    HW157325   2.403   1.316  11.883 -2.2942 -0.5431  0.9110
18628SOL    HW257326   2.461   1.208  11.795 -1.2755  1.0120 -0.3982
18629SOL     OW57327   6.712   6.715   4.804  0.0722 -0.3075 -0.1630
18629SOL    HW157328   6.796   6.733   4.762  0.4582  0.3774  0.8526
18629SOL    HW257329   6.650   6.707   4.732  0.7499  0.5991 -0.8714
18630SOL     OW57330   2.162   6.164  11.865 -0.0460 -0.3558  0.1102
18630SOL    HW157331   2.231   6.187  11.927 -1.1827 -2.3933  2.3032
18630SOL    HW257332   2.081   6.193  11.908 -0.8078 -0.8799 -0.9320
18631SOL     OW57333   0.821   6.883   8.162  0.0526 -0.1527  0.3415
18631SOL    HW157334   0.824   6.794   8.196 -0.0801 -0.1657  0.3208
18631SOL    HW257335   0.792   6.936   8.236 -2.5947 -0.4964 -0.3276
18632SOL     OW57336   3.941   7.358   8.087  0.6027 -0.5992 -0.5355
18632SOL    HW157337   3.900   7.278   8.121  0.7471 -1.3696 -2.0716
18632SOL    HW257338   3.868   7.420   8.078  0.5361 -0.4384  0.9420
18633SOL     OW57339   5.581   7.768  11.341 -0.2637 -0.1923  0.5877
18633SOL    HW157340   5.599   7.772  11.247 -0.9715 -0.9756  0.4037
18633SOL    HW257341   5.641   7.831  11.380 -1.2661  1.5367 -0.5729
18634SOL     OW57342   4.568   7.358   4.399  0.1097 -0.6345 -0.0686
18634SOL    HW157343   4.544   7.403   4.480 -2.2289 -1.3809 -0.2751
18634SOL    HW257344   4.595   7.428   4.339 -2.4873  0.4625 -0.0601
18635SOL     OW57345   2.694   0.286   6.917  0.3720 -0.1639 -0.3878
18635SOL    HW157346   2.763   0.276   6.852  1.1143 -0.6966  0.4523
18635SOL    HW257347   2.729   0.350   6.980  0.1949 -0.5871  0.1528
18636SOL     OW57348   5.475   4.422  10.014 -0.8906  1.2971  0.0684
18636SOL    HW157349   5.553   4.475   9.999  0.0741 -0.0346  0.2186
18636SOL    HW257350   5.452   4.387   9.928 -0.9753  1.2098  0.1252
18637SOL     OW57351   3.150   7.000   7.526  0.4914 -0.9549 -0.1240
18637SOL    HW157352   3.058   6.975   7.530  0.7836 -2.0459  0.4634
18637SOL    HW257353   3.155   7.083   7.572 -0.1032 -1.2198  0.4368
18638SOL     OW57354   6.358   2.348  11.243  0.2982  0.2848  0.4508
18638SOL    HW157355   6.438   2.341  11.296 -1.0938 -3.2458  2.4050
18638SOL    HW257356   6.295   2.392  11.300 -0.5735 -1.5898  1.0133
18639SOL     OW57357   7.914   2.883   8.805 -0.1409  0.1736  0.0870
18639SOL    HW157358   7.942   2.798   8.840 -0.4851 -0.3011 -0.7472
18639SOL    HW257359   7.993   2.937   8.807  0.5385 -0.7208 -0.9655
18640SOL     OW57360   4.826   5.232   6.369 -0.1623  0.6019  0.2196
18640SOL    HW157361   4.894   5.249   6.434 -0.3865 -0.9113  0.8878
18640SOL    HW257362   4.744   5.234   6.418 -0.2820 -1.1705  0.1350
18641SOL     OW57363   6.991   5.758   6.401 -0.2730  0.0113  0.4797
18641SOL    HW157364   7.012   5.697   6.331 -0.4698  1.3382 -0.7983
18641SOL    HW257365   6.909   5.725   6.438 -0.5365 -0.3444 -0.3888
18642SOL     OW57366   2.901   1.223   0.505 -0.2938  0.4849  0.2825
18642SOL    HW157367   2.832   1.192   0.564 -0.6148  0.4057 -0.1273
18642SOL    HW257368   2.964   1.266   0.562 -0.7206  0.6221  0.6597
18643SOL     OW57369   5.902   6.237   3.473  0.0744 -0.4844  0.0560
18643SOL    HW157370   5.921   6.177   3.401 -0.0438 -1.3252  0.7078
18643SOL    HW257371   5.898   6.323   3.432  2.0432 -0.6785 -0.6207
18644SOL     OW57372   5.428   6.159   0.689  0.1515 -0.1044  0.0175
18644SOL    HW157373   5.490   6.147   0.617 -0.7375  0.6238 -0.8974
18644SOL    HW257374   5.484   6.169   0.767  1.1736  0.3959 -0.7566
18645SOL     OW57375   3.541   4.601   7.113 -0.0821  0.1156 -0.0017
18645SOL    HW157376   3.512   4.565   7.197 -0.5091 -1.2036 -0.6772
18645SOL    HW257377   3.620   4.552   7.092  0.6631  1.2265  0.1464
18646SOL     OW57378   0.335   4.056   7.972 -0.3267 -0.0206  0.2094
18646SOL    HW157379   0.330   4.134   8.027  0.8625  0.3259 -0.1559
18646SOL    HW257380   0.400   4.000   8.016  2.2467  1.1435 -1.8688
18647SOL     OW57381   0.508   4.918   8.056  0.6426  0.5272 -0.1778
18647SOL    HW157382   0.582   4.858   8.053  1.3961  1.3829  0.7753
18647SOL    HW257383   0.470   4.906   8.143  0.4280  0.9816 -0.2027
18648SOL     OW57384   6.814   7.621  10.296 -0.0618 -0.2312  0.6193
18648SOL    HW157385   6.898   7.648  10.333  0.2581 -1.5294  0.8913
18648SOL    HW257386   6.775   7.702  10.262  1.6408  0.2667 -0.2159
18649SOL     OW57387   4.383   0.521   0.649 -0.1120 -0.4297  0.4843
18649SOL    HW157388   4.320   0.554   0.713  1.4924  0.7605  1.5241
18649SOL    HW257389   4.404   0.432   0.680  0.3914  0.0072  1.4648
18650SOL     OW57390   6.962   1.961  12.265  0.1894 -0.5818 -0.3618
18650SOL    HW157391   6.957   2.041  12.318 -1.3810 -0.3860 -0.7615
18650SOL    HW257392   7.054   1.955  12.241  0.9466 -0.5746  2.2129
18651SOL     OW57393   1.946   7.147   6.245  0.9112 -0.1719  0.2197
18651SOL    HW157394   1.979   7.081   6.307 -0.4771 -1.4590 -0.3506
18651SOL    HW257395   2.023   7.174   6.196  1.5325 -1.3584  0.4911
18652SOL     OW57396   7.472   3.679   0.533  0.1905 -0.2163 -0.5716
18652SOL    HW157397   7.415   3.736   0.483  0.1127  0.3758  0.1736
18652SOL    HW257398   7.435   3.591   0.521 -2.0336  0.3469  1.3701
18653SOL     OW57399   4.521   1.727  11.165  0.2409 -0.1589 -0.0456
18653SOL    HW157400   4.611   1.758  11.160 -0.3443  1.7428  0.3434
18653SOL    HW257401   4.511   1.694  11.255  0.5706 -0.4960 -0.1319
18654SOL     OW57402   5.702   0.570   2.084  0.1902  0.4271  0.4831
18654SOL    HW157403   5.676   0.567   1.992 -1.4356 -1.2454  0.9466
18654SOL    HW257404   5.781   0.515   2.088 -0.9823 -1.3279  0.4157
18655SOL     OW57405   1.099   2.143   7.632 -0.0544  0.5747  0.5282
18655SOL    HW157406   1.157   2.141   7.555 -1.6529 -1.4186 -0.7359
18655SOL    HW257407   1.145   2.092   7.698  0.5114  0.6994  0.2391
18656SOL     OW57408   2.545   4.692   8.844  0.2312 -0.2380  0.2585
18656SOL    HW157409   2.548   4.695   8.748  0.3261  0.3251  0.2740
18656SOL    HW257410   2.549   4.784   8.871  1.9294 -0.4546  0.8512
18657SOL     OW57411   0.431   1.840   0.002  0.0871 -0.0562 -0.0905
18657SOL    HW157412   0.457   1.751  -0.019 -2.2110 -0.9819  0.6069
18657SOL    HW257413   0.447   1.848   0.096 -1.5086 -0.4865  0.2580
18658SOL     OW57414   6.482   4.764   4.310  0.0949  0.2342 -0.2659
18658SOL    HW157415   6.393   4.730   4.306  0.3009 -0.2486 -0.7966
18658SOL    HW257416   6.482   4.838   4.250  0.3107 -0.3757 -1.0279
18659SOL     OW57417   3.374   0.726   6.573 -0.1201 -0.2024 -0.1030
18659SOL    HW157418   3.353   0.719   6.666  0.3519 -1.4088 -0.0703
18659SOL    HW257419   3.414   0.642   6.551 -2.1558 -0.8083 -1.8981
18660SOL     OW57420   4.571   2.411   0.034  0.0291 -0.1164  0.1999
18660SOL    HW157421   4.564   2.325  -0.007  0.1338  0.4860 -1.1259
18660SOL    HW257422   4.563   2.394   0.128 -0.5593 -1.4999 -0.0849
18661SOL     OW57423   6.495   6.595   0.675  0.0956  0.1610  0.1891
18661SOL    HW157424   6.464   6.507   0.651 -0.3029  0.0884  0.9647
18661SOL    HW257425   6.588   6.584   0.690 -0.4949 -0.9701  3.9220
18662SOL     OW57426   1.102   3.974   2.388  0.0170 -0.0752  0.1012
18662SOL    HW157427   1.123   3.931   2.471  0.9459 -0.5253 -0.3545
18662SOL    HW257428   1.186   4.010   2.358 -0.0353 -1.0290 -1.2686
18663SOL     OW57429   6.681   3.694   0.469  0.5474  0.2071 -0.3821
18663SOL    HW157430   6.711   3.784   0.482 -0.4339  0.7312 -1.4782
18663SOL    HW257431   6.753   3.640   0.500  0.9267  1.3607  0.8410
18664SOL     OW57432   1.686   5.197   6.498  0.3032 -0.2537 -0.4473
18664SOL    HW157433   1.666   5.113   6.456  0.2079 -0.6874  0.4432
18664SOL    HW257434   1.602   5.227   6.532 -0.0104  1.0391 -2.1714
18665SOL     OW57435   1.027   6.112  12.298  0.0509 -0.6288 -0.0137
18665SOL    HW157436   0.958   6.175  12.319 -0.0156 -0.7363  0.0927
18665SOL    HW257437   1.053   6.133  12.208  0.6846  0.1540  0.3413
18666SOL     OW57438   1.917   5.805   5.772 -0.4675 -0.3978 -0.0436
18666SOL    HW157439   1.957   5.725   5.806  0.5086  0.6743  1.4568
18666SOL    HW257440   1.964   5.822   5.690  1.6222  0.3136  1.2118
18667SOL     OW57441   4.315   0.561   3.503 -0.0282  0.1586 -0.6950
18667SOL    HW157442   4.320   0.488   3.566 -0.6509  0.9703  0.3262
18667SOL    HW257443   4.223   0.586   3.503 -0.1862 -0.3199 -2.5421
18668SOL     OW57444   0.497   1.390   1.103 -0.7433 -0.4984 -0.4759
18668SOL    HW157445   0.426   1.385   1.168 -1.4095  1.7608 -0.9386
18668SOL    HW257446   0.536   1.303   1.104  0.1532 -0.2834  3.9014
18669SOL     OW57447   3.307   5.050   6.299  0.0412  0.7839 -0.6373
18669SOL    HW157448   3.216   5.022   6.298 -0.9100  3.6179 -0.4555
18669SOL    HW257449   3.350   4.994   6.235 -1.1709 -2.4164  1.1043
18670SOL     OW57450   6.882   6.435  10.137  0.5760  0.1372  0.1055
18670SOL    HW157451   6.919   6.355  10.099 -1.0583 -0.0437 -1.1894
18670SOL    HW257452   6.819   6.466  10.073  0.5481  2.0226  0.9712
18671SOL     OW57453   0.664   7.310   3.074  0.3434  0.4214 -0.5365
18671SOL    HW157454   0.678   7.280   3.164 -0.1428  1.7139  0.0016
18671SOL    HW257455   0.605   7.385   3.083 -1.5992 -0.7927 -2.1166
18672SOL     OW57456   0.071   2.209  12.245 -0.1024 -0.5669 -0.5656
18672SOL    HW157457  -0.015   2.168  12.242 -0.4128 -0.7712  4.1688
18672SOL    HW257458   0.132   2.136  12.255 -0.2689 -0.3866  3.4860
18673SOL     OW57459   1.679   6.521  11.903 -0.2897  0.1027 -0.0360
18673SOL    HW157460   1.701   6.440  11.857  1.0528  0.0537  0.6254
18673SOL    HW257461   1.586   6.533  11.887 -0.3945 -1.2549 -0.6395
18674SOL     OW57462   1.690   1.354   1.419 -0.4387  0.8689 -0.2636
18674SOL    HW157463   1.746   1.276   1.410 -0.7742  0.6857 -0.8082
18674SOL    HW257464   1.751   1.427   1.415 -0.3023  0.7082 -1.7751
18675SOL     OW57465   7.347   6.651  12.448  0.5565 -0.1546  0.3059
18675SOL    HW157466   7.260   6.615  12.465  0.9645 -1.2012  0.2532
18675SOL    HW257467   7.394   6.580  12.405  2.1265 -0.3742  2.2654
18676SOL     OW57468   0.615   3.509   2.678  0.3991  0.3776  0.2947
18676SOL    HW157469   0.541   3.486   2.620  0.9992 -1.4613  0.1827
18676SOL    HW257470   0.578   3.506   2.766  0.2331 -0.0859  0.2106
18677SOL     OW57471   0.601   3.361   0.763  0.1756 -0.1989  0.3262
18677SOL    HW157472   0.647   3.420   0.823 -1.6289  0.0831  1.5040
18677SOL    HW257473   0.539   3.417   0.716  1.4072 -0.4507 -1.7423
18678SOL     OW57474   2.468   7.470   4.733  0.1242  0.8387  0.5228
18678SOL    HW157475   2.386   7.481   4.780  0.0871  1.6751  0.2825
18678SOL    HW257476   2.450   7.503   4.645  0.5928  0.6231  0.3429
18679SOL     OW57477   3.932   2.867   6.515  0.0306 -0.0670 -0.4891
18679SOL    HW157478   3.888   2.856   6.599  2.1827  0.6617  0.7852
18679SOL    HW257479   3.875   2.820   6.453 -2.1734  0.2982  1.1343
18680SOL     OW57480   5.185   1.419   7.810  0.0664 -0.8700  0.4278
18680SOL    HW157481   5.187   1.427   7.905  1.6426 -0.4590  0.3854
18680SOL    HW257482   5.125   1.489   7.781  2.6293  1.7371  0.9350
18681SOL     OW57483   7.527   7.345   1.062  0.5896 -0.1088 -0.8595
18681SOL    HW157484   7.514   7.434   1.029  0.6533  0.0618 -0.4307
18681SOL    HW257485   7.589   7.354   1.134 -1.6571 -0.0255  1.2383
18682SOL     OW57486   2.836   5.906   8.243 -0.2303  0.4730 -0.1620
18682SOL    HW157487   2.890   5.871   8.172  2.6339  0.5036  1.8235
18682SOL    HW257488   2.814   5.830   8.297  0.8303  0.8808  0.8875
18683SOL     OW57489   5.118   0.506   3.778 -0.2781  0.6075 -0.0992
18683SOL    HW157490   5.053   0.479   3.713 -1.3069 -0.1622  1.1945
18683SOL    HW257491   5.128   0.600   3.764 -0.5181  0.4738 -1.3172
18684SOL     OW57492   5.452   3.435   3.911 -0.6892 -0.2134  0.0805
18684SOL    HW157493   5.453   3.482   3.828  0.0216 -0.2286  0.0815
18684SOL    HW257494   5.382   3.370   3.900 -1.1655  0.3341 -0.1908
18685SOL     OW57495   3.013   7.675  10.765  0.4011  0.1808  0.1811
18685SOL    HW157496   3.026   7.719  10.849  0.2072  1.1503 -0.2793
18685SOL    HW257497   2.956   7.735  10.716 -0.5935 -0.9927 -0.1502
18686SOL     OW57498   6.520   0.569   9.273 -0.1778  0.3262 -0.3073
18686SOL    HW157499   6.591   0.602   9.327  0.7656 -1.0220 -0.6507
18686SOL    HW257500   6.553   0.575   9.183  0.2565 -1.8993 -0.3567
18687SOL     OW57501   0.117   7.596  11.074  0.8406 -0.1940  0.0355
18687SOL    HW157502   0.212   7.604  11.064  0.7492 -1.2480 -2.5262
18687SOL    HW257503   0.082   7.615  10.987 -1.4990  1.9856  1.3089
18688SOL     OW57504   5.930   7.278   6.766 -0.2545 -0.6524 -0.0874
18688SOL    HW157505   6.003   7.317   6.718 -0.4451  0.4995  0.4999
18688SOL    HW257506   5.871   7.245   6.699 -0.7250  1.2982 -0.7127
18689SOL     OW57507   3.986   0.027   0.034  0.6132  0.4378  0.2126
18689SOL    HW157508   4.025   0.076  -0.039  0.1246 -0.4746 -0.6859
18689SOL    HW257509   3.893   0.021   0.012  0.3569  0.5892  1.1849
18690SOL     OW57510   0.140   4.233   5.955  1.0702  0.0480 -0.2233
18690SOL    HW157511   0.139   4.246   6.049  0.9959  0.2523 -0.2512
18690SOL    HW257512   0.048   4.230   5.930  1.0059 -2.9721  0.1015
18691SOL     OW57513   5.327   4.042  10.235 -0.0581  0.0703  0.1570
18691SOL    HW157514   5.331   3.987  10.156  1.1468  1.8725 -1.1143
18691SOL    HW257515   5.267   4.112  10.211 -1.2398 -0.4011  1.6051
18692SOL     OW57516   3.969   7.039   7.793 -0.1153 -0.3997  0.0814
18692SOL    HW157517   3.985   7.104   7.861  1.5620 -1.1161  0.4291
18692SOL    HW257518   3.997   7.080   7.712 -1.8367  0.3468 -0.1782
18693SOL     OW57519   1.729   6.036   4.902 -0.2264  0.1349  1.1534
18693SOL    HW157520   1.648   6.078   4.871 -0.1853  1.1293  2.2940
18693SOL    HW257521   1.699   5.961   4.954 -0.3170 -0.9811 -0.4494
18694SOL     OW57522   0.624   4.114   8.972  0.4515  0.6059 -0.2529
18694SOL    HW157523   0.631   4.186   9.035  0.1502 -0.7849  1.4404
18694SOL    HW257524   0.706   4.066   8.982 -0.5111 -0.9091  0.7527
18695SOL     OW57525   1.766   3.582   1.273 -0.3570 -0.1995 -0.3442
18695SOL    HW157526   1.835   3.560   1.336 -0.3925  1.1890  0.2241
18695SOL    HW257527   1.726   3.498   1.251  0.9720 -0.9399 -0.0502
18696SOL     OW57528   1.720   1.751   4.613 -0.1519 -0.2647 -0.2825
18696SOL    HW157529   1.655   1.783   4.551  0.2595  0.8070 -0.1689
18696SOL    HW257530   1.768   1.828   4.640  0.5216 -0.9064  0.3990
18697SOL     OW57531   3.390   7.339   7.484  0.3153 -0.3620  0.5649
18697SOL    HW157532   3.436   7.343   7.400  0.1389 -0.5431  0.4572
18697SOL    HW257533   3.418   7.417   7.531  0.3841 -0.2385  0.3189
18698SOL     OW57534   0.257   6.033  10.497  0.2302  0.2121 -0.1065
18698SOL    HW157535   0.200   5.974  10.548 -0.5040  0.2320 -0.8903
18698SOL    HW257536   0.332   6.049  10.555 -0.2286 -0.3703  0.6725
18699SOL     OW57537   2.806   4.947  10.485 -0.2818 -0.1998 -0.1167
18699SOL    HW157538   2.782   4.855  10.498 -0.5322 -0.0766  0.2894
18699SOL    HW257539   2.883   4.943  10.428  0.2892 -0.7028  0.6629
18700SOL     OW57540   7.014   4.822   5.414 -0.3366  0.5337  0.3385
18700SOL    HW157541   7.083   4.784   5.360 -1.3604 -2.8017  1.0953
18700SOL    HW257542   7.040   4.913   5.426  2.7788 -0.0133 -1.1500
18701SOL     OW57543   7.575   6.488   1.227  0.5310  0.4760  0.4297
18701SOL    HW157544   7.516   6.471   1.302  2.0768 -1.2715  1.3214
18701SOL    HW257545   7.526   6.457   1.151 -0.8011  1.6691  0.7392
18702SOL     OW57546   7.438   3.989   9.025 -0.2792 -0.2537 -0.3489
18702SOL    HW157547   7.397   3.915   8.980 -0.9102 -1.7707  2.5300
18702SOL    HW257548   7.375   4.060   9.016 -1.2395 -1.0748 -0.2819
18703SOL     OW57549   2.234   4.318  12.244 -0.0094  0.6172  0.0642
18703SOL    HW157550   2.224   4.306  12.338 -1.2012  0.1047 -0.1053
18703SOL    HW257551   2.320   4.282  12.224 -0.2564 -0.4234  0.7854
18704SOL     OW57552   0.486   3.349   5.738 -0.2350 -0.0146  0.6273
18704SOL    HW157553   0.502   3.425   5.793 -1.1939  0.1186  0.7419
18704SOL    HW257554   0.573   3.319   5.712  0.2954 -0.5677  2.8553
18705SOL     OW57555   2.717   4.691  10.561  0.0309 -0.5805 -0.0137
18705SOL    HW157556   2.730   4.597  10.551 -0.4058 -0.9086  1.9802
18705SOL    HW257557   2.725   4.706  10.655  0.1727  1.3978 -0.3061
18706SOL     OW57558   7.457   0.299   4.831  0.1233 -0.2889 -0.3095
18706SOL    HW157559   7.376   0.349   4.846 -1.9469 -2.5297 -2.9461
18706SOL    HW257560   7.515   0.362   4.788 -0.4695  1.1705  0.9048
18707SOL     OW57561   5.452   5.975   7.567 -0.6115  0.2966  0.0106
18707SOL    HW157562   5.411   5.989   7.481  0.2054  2.9662 -0.0484
18707SOL    HW257563   5.383   5.996   7.630  0.0965  3.4824 -0.0913
18708SOL     OW57564   5.498   1.232  12.149 -0.7486  0.2696  0.0912
18708SOL    HW157565   5.475   1.141  12.164  1.1934 -0.3433 -0.3590
18708SOL    HW257566   5.504   1.271  12.236  3.3757 -1.4014  0.7839
18709SOL     OW57567   0.471   3.983  11.718 -0.0505 -0.0825  0.4056
18709SOL    HW157568   0.468   3.952  11.809  0.5374 -0.6326  0.2362
18709SOL    HW257569   0.502   4.074  11.725 -1.5380  0.4267  0.8770
18710SOL     OW57570   6.727   5.004   2.629  0.4265  0.1642  0.2413
18710SOL    HW157571   6.792   5.017   2.560  1.5202 -0.6774  1.0722
18710SOL    HW257572   6.677   4.927   2.602  0.5050  0.1481  0.1448
18711SOL     OW57573   6.509   1.367   4.789 -0.2342  0.1845 -0.3905
18711SOL    HW157574   6.427   1.403   4.823 -0.5463 -0.8932  0.0275
18711SOL    HW257575   6.482   1.294   4.733  0.4817 -1.9718  1.8941
18712SOL     OW57576   6.934   7.421  11.491  0.4892  0.0751  0.2914
18712SOL    HW157577   6.942   7.512  11.520 -0.1733  1.0814 -2.4287
18712SOL    HW257578   7.024   7.394  11.471  0.4691  0.9294 -1.0350
18713SOL     OW57579   7.921   4.590   0.953  0.1389 -0.5241  0.6294
18713SOL    HW157580   7.844   4.567   0.902 -0.2166 -0.1030  0.9611
18713SOL    HW257581   7.995   4.575   0.894 -0.2764  0.1576 -0.0876
18714SOL     OW57582   0.491   2.884  11.416  0.1206 -0.1166 -0.4234
18714SOL    HW157583   0.502   2.860  11.508 -1.2293 -0.4695 -0.3312
18714SOL    HW257584   0.576   2.920  11.390  1.1322 -1.8094  0.3958
18715SOL     OW57585   0.039   1.799   7.790 -0.2929  0.1604 -0.2079
18715SOL    HW157586   0.083   1.751   7.859 -0.3129 -0.1816 -0.4301
18715SOL    HW257587  -0.005   1.731   7.738  0.9591  0.2648 -1.4423
18716SOL     OW57588   7.609   6.631  11.801  0.1636  0.1317  0.0575
18716SOL    HW157589   7.528   6.581  11.814 -0.9052  1.4821 -1.0853
18716SOL    HW257590   7.588   6.719  11.832  1.7119  0.1528  1.1707
18717SOL     OW57591   1.023   4.296  11.278  0.5839 -0.1313  0.4251
18717SOL    HW157592   1.054   4.252  11.199  1.5785 -0.0352  0.7549
18717SOL    HW257593   0.928   4.301  11.266  0.8049  0.9521 -1.3287
18718SOL     OW57594   3.774   5.333   7.337 -0.2693 -0.0364 -0.4670
18718SOL    HW157595   3.718   5.312   7.411  0.1054 -0.5536 -0.3285
18718SOL    HW257596   3.862   5.306   7.364 -0.2814 -1.1594 -1.4685
18719SOL     OW57597   0.345   0.961  12.184 -0.2624  0.0262  0.4774
18719SOL    HW157598   0.352   0.971  12.089 -0.1318 -1.2099  0.3419
18719SOL    HW257599   0.290   1.034  12.212 -0.7028  0.1255 -0.6191
18720SOL     OW57600   0.765   0.431  10.591  0.1348  0.3667 -0.1493
18720SOL    HW157601   0.767   0.411  10.684  1.2359  0.7486 -0.0738
18720SOL    HW257602   0.807   0.517  10.584 -2.1165  1.5154 -0.7400
18721SOL     OW57603   2.220   7.643   7.995 -0.0213 -0.1070  0.8203
18721SOL    HW157604   2.289   7.579   8.016 -0.8596 -1.3319 -0.0664
18721SOL    HW257605   2.139   7.601   8.024 -0.6864  0.1477 -0.6036
18722SOL     OW57606   2.521   0.310   9.157  0.3905 -0.0197 -0.1185
18722SOL    HW157607   2.525   0.381   9.222  0.9555 -0.3414  0.2035
18722SOL    HW257608   2.492   0.233   9.207  2.1750 -0.6071  0.0670
18723SOL     OW57609   5.185   6.165  10.212 -0.0862 -0.0788  0.4992
18723SOL    HW157610   5.246   6.102  10.252 -1.1298 -0.2555  1.8900
18723SOL    HW257611   5.109   6.112  10.188  0.3475  0.0963 -1.4484
18724SOL     OW57612   7.121   2.302   9.664  0.5351  0.2643  0.2274
18724SOL    HW157613   7.125   2.292   9.759  1.9212  0.3808  0.2101
18724SOL    HW257614   7.115   2.397   9.651 -2.6539  0.1646  0.2091
18725SOL     OW57615   0.816   0.101   1.641 -0.0810 -0.5044  0.2342
18725SOL    HW157616   0.839   0.141   1.557 -0.5303  0.6707  0.6533
18725SOL    HW257617   0.899   0.064   1.673  0.4620  0.5585  0.0781
18726SOL     OW57618   2.988   5.228  10.652 -0.1568 -0.0606  0.2674
18726SOL    HW157619   3.082   5.238  10.668  0.0992 -0.7930 -0.6847
18726SOL    HW257620   2.964   5.305  10.600 -0.1403  0.2509  0.7180
18727SOL     OW57621   5.314   2.413  12.465  0.7559 -0.3812 -0.1216
18727SOL    HW157622   5.318   2.329  12.420 -0.5029 -0.8341  0.5517
18727SOL    HW257623   5.405   2.440  12.474  1.1325 -1.2479 -1.1145
18728SOL     OW57624   1.346   2.614   9.934 -0.0164 -0.1994  0.1082
18728SOL    HW157625   1.359   2.564  10.014 -0.8110  0.0032  0.3763
18728SOL    HW257626   1.364   2.705   9.960 -1.3875  0.0172  0.3600
18729SOL     OW57627   2.324   5.907  11.809 -0.4645  0.5043  0.2732
18729SOL    HW157628   2.267   5.976  11.842  0.1369  0.6033  1.1492
18729SOL    HW257629   2.266   5.831  11.798 -0.9902  0.9424 -0.0145
18730SOL     OW57630   6.659   6.704   6.417 -0.4113 -0.3126  0.0449
18730SOL    HW157631   6.740   6.666   6.452 -0.7441 -1.0784  0.0030
18730SOL    HW257632   6.593   6.686   6.484 -0.0416  2.6812  1.3572
18731SOL     OW57633   2.266   1.185   4.782 -0.1118  0.4256  0.3688
18731SOL    HW157634   2.226   1.169   4.868  1.1049 -2.1840  0.5758
18731SOL    HW257635   2.322   1.108   4.769 -0.0108  0.9241 -2.6353
18732SOL     OW57636   2.101   1.609   0.180  0.4340  0.2899 -0.4299
18732SOL    HW157637   2.040   1.608   0.254  1.7325  0.2954  0.6622
18732SOL    HW257638   2.075   1.533   0.127  0.0696 -0.2531  0.5015
18733SOL     OW57639   3.720   6.910  12.398 -0.1731 -0.5015 -0.1126
18733SOL    HW157640   3.716   6.819  12.367 -0.8300 -1.5205  2.6541
18733SOL    HW257641   3.630   6.941  12.393 -0.2100 -0.5322  0.2635
18734SOL     OW57642   3.778   5.614  10.786  0.0291  0.5212 -0.0084
18734SOL    HW157643   3.865   5.577  10.802 -1.3760 -2.4497  1.6303
18734SOL    HW257644   3.734   5.610  10.872 -1.5118  2.7511 -0.5772
18735SOL     OW57645   6.680   1.082  11.065 -0.3711 -0.0059  0.4364
18735SOL    HW157646   6.677   1.159  11.123 -1.8613  0.0934  0.2728
18735SOL    HW257647   6.588   1.057  11.055 -0.0842 -0.4730 -1.3011
18736SOL     OW57648   3.781   1.551   2.371  0.5739 -0.4803  0.0199
18736SOL    HW157649   3.847   1.484   2.354  0.9712  0.0570 -0.5735
18736SOL    HW257650   3.724   1.550   2.294 -0.7268 -1.6136  0.9299
18737SOL     OW57651   2.452   3.989  10.058  0.2043 -0.0200 -0.3107
18737SOL    HW157652   2.492   3.986  10.145 -0.3411 -1.0120 -0.0858
18737SOL    HW257653   2.519   3.955   9.999 -0.5439 -2.5423  0.1808
18738SOL     OW57654   2.369   5.718   0.084  0.1316 -0.0439 -0.2616
18738SOL    HW157655   2.435   5.718   0.153  2.7763  0.7278 -2.6144
18738SOL    HW257656   2.366   5.809   0.054 -1.7012 -0.1631 -0.5667
18739SOL     OW57657   5.410   1.759   9.084  0.5255  0.4098  0.3129
18739SOL    HW157658   5.441   1.844   9.116  0.4261  0.6989 -0.3519
18739SOL    HW257659   5.421   1.764   8.989  1.0974 -0.5552  0.3174
18740SOL     OW57660   1.169   2.132   6.867 -0.1026 -0.3430  0.3135
18740SOL    HW157661   1.090   2.110   6.917  1.0140 -0.3393  2.1616
18740SOL    HW257662   1.148   2.214   6.824 -1.2256 -0.5153  0.4910
18741SOL     OW57663   0.069   1.390   3.022 -0.0669 -0.3307 -0.2099
18741SOL    HW157664   0.079   1.423   2.933 -0.9294 -1.1943 -0.6402
18741SOL    HW257665   0.137   1.435   3.072  1.3233 -0.8504 -1.5700
18742SOL     OW57666   7.291   2.748   1.049 -0.0386 -0.6156 -0.1384
18742SOL    HW157667   7.302   2.668   0.997 -1.0054 -0.7590 -0.1349
18742SOL    HW257668   7.239   2.720   1.125 -0.4958  0.0437 -0.2024
18743SOL     OW57669   6.908   3.719   8.860 -0.2077  0.1406 -0.6331
18743SOL    HW157670   6.832   3.679   8.817 -1.7368  1.6836  0.4935
18743SOL    HW257671   6.952   3.646   8.903 -1.6086 -0.6657 -0.5017
18744SOL     OW57672   5.473   4.599   5.097  0.1708 -0.1795  0.2770
18744SOL    HW157673   5.454   4.578   5.188  1.1752 -0.5795  0.4100
18744SOL    HW257674   5.388   4.618   5.058 -0.4844 -1.9394  0.7974
18745SOL     OW57675   1.867   5.735   5.345 -0.8181 -0.5288 -0.7797
18745SOL    HW157676   1.877   5.757   5.438  0.2982 -0.3441 -0.9307
18745SOL    HW257677   1.780   5.696   5.339 -1.3794  0.5151  0.1422
18746SOL     OW57678   4.020   2.174   2.127 -0.0061 -0.3751 -0.6458
18746SOL    HW157679   3.949   2.237   2.136  0.1825 -0.3123  0.4756
18746SOL    HW257680   4.067   2.178   2.210 -1.6469 -3.9690  0.6822
18747SOL     OW57681   2.475   4.888   8.161  0.2642  0.2674  0.1202
18747SOL    HW157682   2.483   4.868   8.068  1.1775  0.1849  0.2060
18747SOL    HW257683   2.538   4.830   8.204 -0.0822  0.3636  0.7815
18748SOL     OW57684   6.738   0.662   6.963  0.2579  0.1968 -0.0111
18748SOL    HW157685   6.711   0.670   6.871  0.1230 -0.7449 -0.0653
18748SOL    HW257686   6.763   0.750   6.988  0.8471  0.3675 -1.1318
18749SOL     OW57687   3.645   0.505   4.818 -0.2057 -0.3283  0.4164
18749SOL    HW157688   3.621   0.555   4.896  1.2024  1.6221 -0.3449
18749SOL    HW257689   3.690   0.567   4.761 -1.8522 -1.4725 -2.3556
18750SOL     OW57690   6.255   5.949   0.790 -0.1769 -0.4496  0.3370
18750SOL    HW157691   6.294   5.867   0.821  0.3302 -0.0626  0.7349
18750SOL    HW257692   6.261   5.945   0.695  2.7064  0.4894  0.4062
18751SOL     OW57693   4.735   3.267   0.907 -0.0129  0.5373 -0.3270
18751SOL    HW157694   4.742   3.199   0.973 -0.2913  0.8554  0.0410
18751SOL    HW257695   4.825   3.284   0.879 -0.0005 -0.4475 -0.9164
18752SOL     OW57696   2.305   7.615   2.783 -0.4694  0.3476 -0.2215
18752SOL    HW157697   2.332   7.672   2.712  0.4535 -1.4406 -1.3786
18752SOL    HW257698   2.210   7.629   2.791 -0.3793  1.4826 -0.9364
18753SOL     OW57699   2.659   4.379   3.034  0.4750 -0.2965  0.2618
18753SOL    HW157700   2.586   4.333   2.993 -0.6315  0.9739  0.7430
18753SOL    HW257701   2.631   4.470   3.039  1.9077  0.1435  0.8858
18754SOL     OW57702   6.626   1.762   1.417  0.5072 -0.2162 -0.3584
18754SOL    HW157703   6.554   1.822   1.399  0.5500 -0.4881 -1.4619
18754SOL    HW257704   6.640   1.714   1.335  1.5622 -0.5734  0.0056
18755SOL     OW57705   0.014   7.905   6.515  0.3161 -0.2581  0.2065
18755SOL    HW157706   0.034   7.812   6.505  1.9493 -0.1498  1.7794
18755SOL    HW257707   0.068   7.933   6.590 -1.6175  1.5042  1.0527
18756SOL     OW57708   0.396   2.150   7.878 -0.1159 -0.4489 -0.3166
18756SOL    HW157709   0.480   2.133   7.837  1.3624 -2.1617  3.0407
18756SOL    HW257710   0.352   2.066   7.879 -1.3913  0.1823 -0.9664
18757SOL     OW57711   6.522   5.537   6.071 -0.7558  0.2204 -0.4251
18757SOL    HW157712   6.428   5.538   6.090 -0.5873 -0.3214  0.5016
18757SOL    HW257713   6.555   5.458   6.114  0.1944  0.6295 -0.3567
18758SOL     OW57714   4.226   6.910   3.247  0.0310 -0.1830  0.1853
18758SOL    HW157715   4.183   6.996   3.243 -0.3492 -0.4017 -1.1065
18758SOL    HW257716   4.306   6.925   3.297  0.7768  1.3104 -1.3318
18759SOL     OW57717   0.206   2.819   2.665 -0.4952  0.2142 -0.8208
18759SOL    HW157718   0.252   2.779   2.591 -2.5095 -1.4375 -1.2556
18759SOL    HW257719   0.132   2.865   2.627 -0.6551  0.7099  0.0547
18760SOL     OW57720   2.637   2.765   7.444 -0.4294  0.1033 -0.2763
18760SOL    HW157721   2.682   2.702   7.501 -0.7962  0.5716  0.5588
18760SOL    HW257722   2.663   2.850   7.479 -0.7058  0.4000 -0.7898
18761SOL     OW57723   7.887   1.315   7.002 -0.4054  0.3641 -0.0334
18761SOL    HW157724   7.872   1.290   7.094  1.5604  0.3774  0.3397
18761SOL    HW257725   7.980   1.338   6.999 -0.7699  1.7894 -1.7242
18762SOL     OW57726   7.196   5.600   2.791 -0.3287  0.4570 -0.0544
18762SOL    HW157727   7.119   5.616   2.845 -0.5433  2.1198 -0.7848
18762SOL    HW257728   7.257   5.554   2.849 -0.6963  1.8145  1.4994
18763SOL     OW57729   1.686   4.676   9.776 -0.1181  0.1792  0.1932
18763SOL    HW157730   1.660   4.766   9.797 -2.2675 -0.7253  1.6678
18763SOL    HW257731   1.709   4.680   9.683 -1.6416  1.9557 -0.1806
18764SOL     OW57732   4.118   0.095  10.555 -0.2609 -0.0320 -0.0034
18764SOL    HW157733   4.066   0.063  10.629  0.3634  0.3867  0.6134
18764SOL    HW257734   4.114   0.023  10.491 -0.7563 -0.4136  0.4477
18765SOL     OW57735   5.953   4.945   3.648  0.3067  0.2444  0.7253
18765SOL    HW157736   5.985   4.939   3.738  0.0101 -0.0461  0.8110
18765SOL    HW257737   6.032   4.962   3.596  0.3569  1.4061  1.1427
18766SOL     OW57738   3.651   7.013   5.979 -0.0254 -0.1779  0.1613
18766SOL    HW157739   3.597   7.086   5.951  0.1405  0.0853  0.5207
18766SOL    HW257740   3.591   6.956   6.028 -0.2957 -0.5943 -0.6239
18767SOL     OW57741   2.277   5.871   5.713  0.0472 -0.2977 -0.0210
18767SOL    HW157742   2.274   5.851   5.807 -2.1385  0.6263  0.1688
18767SOL    HW257743   2.244   5.961   5.707  1.4243  0.1562 -1.5847
18768SOL     OW57744   4.806   3.740   2.027  0.1535  0.2226  0.0949
18768SOL    HW157745   4.819   3.646   2.010 -2.2367 -0.3682  1.1774
18768SOL    HW257746   4.860   3.783   1.961  0.6264 -1.9052 -1.0172
18769SOL     OW57747   0.179   5.461   5.322 -0.0081  0.3745  0.1761
18769SOL    HW157748   0.127   5.523   5.372  0.5927  1.3149 -0.3365
18769SOL    HW257749   0.269   5.490   5.333  0.0983  0.9987 -1.9238
18770SOL     OW57750   6.234   4.667   6.721 -0.4012 -0.1947  0.1847
18770SOL    HW157751   6.160   4.610   6.743 -0.5288 -0.5530 -1.1063
18770SOL    HW257752   6.311   4.613   6.740 -0.5096 -0.4832 -0.1666
18771SOL     OW57753   6.627   4.404   0.519  0.0497 -0.1465 -0.1336
18771SOL    HW157754   6.603   4.328   0.572 -1.9379  0.6843  0.2642
18771SOL    HW257755   6.569   4.473   0.549  0.8720  1.1663 -1.4258
18772SOL     OW57756   6.346   4.827  11.799 -0.0378 -0.1359  0.2760
18772SOL    HW157757   6.357   4.823  11.894 -1.0808  0.0688  0.4115
18772SOL    HW257758   6.402   4.900  11.772  1.8482 -1.4447  0.4632
18773SOL     OW57759   0.906   3.837   4.140  0.4501  0.3397 -0.1321
18773SOL    HW157760   0.839   3.870   4.200  0.5719  0.2675  0.0461
18773SOL    HW257761   0.940   3.915   4.096 -2.0177  0.1231 -2.6593
18774SOL     OW57762   7.964   5.129   2.146  0.4762 -0.0252 -0.1686
18774SOL    HW157763   8.002   5.177   2.219 -1.0843  2.5993 -0.9354
18774SOL    HW257764   8.005   5.168   2.068 -0.4021 -0.3432 -0.8095
18775SOL     OW57765   0.299   6.566   9.437 -0.0936  0.8985  0.0917
18775SOL    HW157766   0.257   6.481   9.453 -1.5006  0.8853 -2.9613
18775SOL    HW257767   0.263   6.623   9.505 -0.0054 -0.6157  1.4962
18776SOL     OW57768   6.207   4.436   5.290  0.0117  0.3294  0.3851
18776SOL    HW157769   6.228   4.390   5.372 -0.0034 -1.2301 -0.4562
18776SOL    HW257770   6.260   4.516   5.294 -0.6581  0.7485  2.3100
18777SOL     OW57771   7.325   5.729   1.535 -0.1455  0.2887  0.4570
18777SOL    HW157772   7.399   5.788   1.544  0.0467  0.5134 -1.9298
18777SOL    HW257773   7.353   5.665   1.469 -1.0404 -1.3743  1.5939
18778SOL     OW57774   5.792   5.086   7.549  0.1545 -0.5017 -0.1426
18778SOL    HW157775   5.703   5.091   7.581  0.6030 -1.0744  1.2349
18778SOL    HW257776   5.789   5.130   7.463 -1.0385  1.1868  0.7080
18779SOL     OW57777   6.104   4.792   0.079 -0.2591 -0.1031 -0.2476
18779SOL    HW157778   6.082   4.734   0.007  1.7058 -1.3212  0.0595
18779SOL    HW257779   6.156   4.861   0.039  0.7184 -0.7072 -0.0580
18780SOL     OW57780   6.658   6.002  10.557  0.5203 -0.6602 -0.3614
18780SOL    HW157781   6.657   5.958  10.472 -0.0963  0.4668 -0.9486
18780SOL    HW257782   6.574   6.046  10.563  0.9805  0.1565  0.3622
18781SOL     OW57783   5.328   4.587  10.212  0.3127  0.3509 -0.6088
18781SOL    HW157784   5.236   4.580  10.187  0.6242  1.3617 -2.1839
18781SOL    HW257785   5.376   4.546  10.141  1.0940 -0.5318  0.3941
18782SOL     OW57786   5.908   4.001   1.550  0.0257  0.0743 -0.4253
18782SOL    HW157787   5.999   4.025   1.571  0.3155 -1.1686 -0.2246
18782SOL    HW257788   5.916   3.931   1.486 -0.7671 -1.0065  0.6198
18783SOL     OW57789   3.390   2.302   4.623  0.8548 -0.0794  0.3739
18783SOL    HW157790   3.317   2.242   4.637  0.7385  0.0957  0.5144
18783SOL    HW257791   3.468   2.251   4.648  0.8261 -0.4253 -0.2340
18784SOL     OW57792   2.200   1.433   3.510  0.3613 -0.5238 -0.0885
18784SOL    HW157793   2.182   1.441   3.603  1.5973  0.1182  0.1094
18784SOL    HW257794   2.227   1.342   3.498  0.0935 -0.6364  0.1468
18785SOL     OW57795   6.951   1.998   8.607  0.1791 -0.0973  0.3674
18785SOL    HW157796   7.041   2.029   8.595  0.0768  0.5696  1.2284
18785SOL    HW257797   6.960   1.905   8.623  0.8330  0.1780  1.6956
18786SOL     OW57798   7.460   4.140   1.656 -0.1289 -0.7487 -0.0348
18786SOL    HW157799   7.528   4.139   1.589 -0.4516  0.7743 -0.4160
18786SOL    HW257800   7.494   4.195   1.726 -1.3976  1.0432 -0.7541
18787SOL     OW57801   1.082   2.039   0.225  0.0828  0.1188 -0.5606
18787SOL    HW157802   0.991   2.050   0.197  0.5098  0.3549 -1.9469
18787SOL    HW257803   1.110   1.958   0.182  0.9190  0.7698 -1.2879
18788SOL     OW57804   1.867   7.937   3.234 -0.1577 -0.5138  0.7539
18788SOL    HW157805   1.845   7.993   3.308 -2.8495 -1.8559  1.0960
18788SOL    HW257806   1.876   7.849   3.272 -0.7122 -1.0815 -0.3629
18789SOL     OW57807   3.210   5.974  10.686  0.2486 -0.1164  0.0433
18789SOL    HW157808   3.279   6.037  10.666  0.6271 -0.5185  0.0620
18789SOL    HW257809   3.252   5.912  10.746 -0.6329  0.6341  1.4980
18790SOL     OW57810   3.093   0.469   1.618 -0.2570 -0.3264 -0.0908
18790SOL    HW157811   3.166   0.530   1.624  0.3530 -0.8099 -1.9478
18790SOL    HW257812   3.017   0.520   1.647  0.8744 -0.0352  2.5757
18791SOL     OW57813   3.594   3.048   6.182 -0.3465  0.2166 -0.4950
18791SOL    HW157814   3.514   2.998   6.163 -0.6248  0.3557  0.2882
18791SOL    HW257815   3.617   3.023   6.271  0.5120  0.1531 -0.7294
18792SOL     OW57816   5.801   4.853   2.862  0.0023 -0.2233 -0.1568
18792SOL    HW157817   5.726   4.851   2.920  0.4812 -0.0495  0.4873
18792SOL    HW257818   5.820   4.946   2.850  1.6095 -0.2569  1.6977
18793SOL     OW57819   7.179   1.140   1.557 -0.7311  0.0608 -0.9996
18793SOL    HW157820   7.127   1.144   1.637  0.2950  0.9216 -0.3318
18793SOL    HW257821   7.142   1.207   1.500 -0.7211  0.2783 -0.7520
18794SOL     OW57822   3.255   4.167   1.068  0.0578 -0.5185  0.2482
18794SOL    HW157823   3.214   4.130   0.990 -2.2891 -0.9404  1.6053
18794SOL    HW257824   3.300   4.246   1.036 -2.6183  0.5237 -1.2289
18795SOL     OW57825   5.297   2.011   2.918 -0.7400  0.4952  0.1055
18795SOL    HW157826   5.292   1.916   2.920  0.6022  0.2848 -2.0023
18795SOL    HW257827   5.334   2.036   3.003  0.0405 -0.9844  0.2267
18796SOL     OW57828   1.914   1.609   4.189 -0.0421 -0.5552 -0.2291
18796SOL    HW157829   1.819   1.611   4.191 -0.0613 -0.4426 -1.0469
18796SOL    HW257830   1.941   1.656   4.268 -0.6619 -2.2930  1.0703
18797SOL     OW57831   2.767   0.782   4.538 -0.0875  0.2138  0.3542
18797SOL    HW157832   2.860   0.760   4.539 -0.0603  0.3267  0.9414
18797SOL    HW257833   2.734   0.751   4.623 -0.8039 -0.7214 -0.2378
18798SOL     OW57834   3.600   3.449   8.997 -0.1759  0.8856  0.3064
18798SOL    HW157835   3.531   3.475   9.058 -1.4488  2.3054 -1.6234
18798SOL    HW257836   3.562   3.465   8.911  0.8039 -2.9005 -0.9825
18799SOL     OW57837   1.705   6.882   2.425  0.0206 -0.3959  0.0409
18799SOL    HW157838   1.759   6.866   2.347 -0.8016 -1.4842 -0.3290
18799SOL    HW257839   1.641   6.946   2.397  0.5734  0.2558  0.2361
18800SOL     OW57840   0.779   3.013   9.651 -0.0111  0.6530  0.2814
18800SOL    HW157841   0.758   3.029   9.743 -2.8686 -0.0378 -0.1839
18800SOL    HW257842   0.712   3.060   9.602  1.8098  1.5455 -1.5541
18801SOL     OW57843   6.573   0.984   5.134 -0.0315  0.4113 -0.0284
18801SOL    HW157844   6.492   0.964   5.087 -1.2570  1.6162  1.4806
18801SOL    HW257845   6.594   0.904   5.181 -0.5338  0.2044 -0.1530
18802SOL     OW57846   5.122   7.671   9.198  0.4482 -0.0187 -0.3335
18802SOL    HW157847   5.107   7.626   9.115  0.6025 -0.3903 -0.1635
18802SOL    HW257848   5.124   7.601   9.263 -1.4513  0.3811  0.2483
18803SOL     OW57849   3.528   6.806  11.360  0.3768 -0.1771 -0.5667
18803SOL    HW157850   3.519   6.773  11.271 -0.1284  0.6790 -0.8520
18803SOL    HW257851   3.622   6.822  11.371  0.3979  0.0875 -1.0915
18804SOL     OW57852   3.819   3.208   9.676 -0.1573 -0.0258  0.1423
18804SOL    HW157853   3.764   3.130   9.683  1.1768 -0.8602  2.7031
18804SOL    HW257854   3.893   3.190   9.734  0.9682  2.5360 -0.3703
18805SOL     OW57855   4.425   6.769  10.925  0.2883 -0.6450 -0.5872
18805SOL    HW157856   4.507   6.740  10.966  1.2369  2.0793 -0.3018
18805SOL    HW257857   4.405   6.702  10.860  2.0191 -2.0538  0.2343
18806SOL     OW57858   4.198   1.064   6.013 -0.3337  0.1364 -0.0418
18806SOL    HW157859   4.289   1.042   5.995 -0.4135  0.6159 -1.1030
18806SOL    HW257860   4.202   1.147   6.061 -0.2219  0.4424 -0.5698
18807SOL     OW57861   6.740   6.198   0.524 -0.2085 -0.1963 -0.8082
18807SOL    HW157862   6.693   6.170   0.445  0.9847  0.6755 -1.8525
18807SOL    HW257863   6.772   6.285   0.504  0.9421 -0.3410  0.2811
18808SOL     OW57864   7.619   1.610   8.534 -0.3925 -0.3741 -0.8258
18808SOL    HW157865   7.672   1.674   8.487 -2.4031  1.8633 -0.2141
18808SOL    HW257866   7.656   1.608   8.623 -0.3086 -0.1026 -0.8550
18809SOL     OW57867   4.621   3.109   6.905  0.0235 -0.0580  0.5096
18809SOL    HW157868   4.612   3.154   6.989  0.3254  0.6280  0.1815
18809SOL    HW257869   4.678   3.166   6.853  0.3803 -0.8039  0.0694
18810SOL     OW57870   7.769   6.081   1.573 -0.1098 -0.2151 -0.3780
18810SOL    HW157871   7.836   6.148   1.585 -0.3043 -0.1406  0.3081
18810SOL    HW257872   7.817   5.998   1.574 -0.0253 -0.1579  0.0573
18811SOL     OW57873   4.107   3.692   6.056 -0.6287  0.0653  0.1432
18811SOL    HW157874   4.033   3.665   6.111  0.1303 -1.4330  0.4835
18811SOL    HW257875   4.184   3.676   6.110 -0.0502  2.2376  0.0381
18812SOL     OW57876   1.668   0.631   9.539  0.0900 -0.0614 -1.0624
18812SOL    HW157877   1.744   0.624   9.482  0.4391 -0.5348 -0.5588
18812SOL    HW257878   1.635   0.720   9.526  2.1062  0.9867  0.3956
18813SOL     OW57879   2.416   3.498   3.553  0.3485  0.1219  0.1175
18813SOL    HW157880   2.481   3.566   3.535  0.6746 -0.6588 -1.9543
18813SOL    HW257881   2.337   3.546   3.576  0.7370  1.2132 -0.7036
18814SOL     OW57882   0.510   1.994   9.103  0.3777 -0.4752  0.0352
18814SOL    HW157883   0.424   2.020   9.071  1.1546  1.9738 -0.2719
18814SOL    HW257884   0.529   2.056   9.174  1.6765 -1.2950  0.4421
18815SOL     OW57885   1.402   5.148   4.742  0.0614  0.4340  0.1208
18815SOL    HW157886   1.372   5.128   4.831 -1.2993 -0.0044 -0.4176
18815SOL    HW257887   1.479   5.092   4.731 -0.6751 -0.6926  0.4804
18816SOL     OW57888   0.953   1.410   6.581  0.0042 -0.3568 -0.6745
18816SOL    HW157889   1.014   1.480   6.559  1.8738 -1.8859 -0.7058
18816SOL    HW257890   0.955   1.352   6.505  1.1874 -2.1552  0.6251
18817SOL     OW57891   0.473   0.871   2.751  0.0550 -0.4114 -0.1044
18817SOL    HW157892   0.469   0.940   2.685 -1.1431 -1.8920 -1.6915
18817SOL    HW257893   0.433   0.795   2.708 -0.4225 -1.5583  2.2308
18818SOL     OW57894   0.584   5.270   4.465 -0.4266 -0.0420  0.3660
18818SOL    HW157895   0.604   5.320   4.544  1.3676  0.5008 -0.3955
18818SOL    HW257896   0.518   5.322   4.420 -1.0618 -0.0845  1.2061
18819SOL     OW57897   7.150   5.681   4.175  0.3610 -0.2083 -0.0532
18819SOL    HW157898   7.223   5.645   4.125  1.0553 -0.0142  0.8035
18819SOL    HW257899   7.138   5.620   4.248 -2.4289 -2.0416 -1.8271
18820SOL     OW57900   2.264   1.545   4.236 -0.4148 -0.1820 -0.5406
18820SOL    HW157901   2.170   1.539   4.218 -0.4213  0.3654 -0.7243
18820SOL    HW257902   2.296   1.606   4.169  0.1087 -0.5472 -0.6212
18821SOL     OW57903   2.636   3.434   7.025 -0.2304  0.2080  0.1070
18821SOL    HW157904   2.550   3.397   7.009 -0.0673  0.2834 -0.9653
18821SOL    HW257905   2.619   3.526   7.048 -0.4546  0.1204  0.2957
18822SOL     OW57906   7.783   1.218   3.174  0.4010  0.6138  0.1804
18822SOL    HW157907   7.746   1.300   3.139 -4.6543 -1.1463  0.5223
18822SOL    HW257908   7.773   1.156   3.102  0.7961 -0.4887  1.0570
18823SOL     OW57909   1.782   4.598  11.543  0.1248  0.4696 -0.1318
18823SOL    HW157910   1.760   4.509  11.517  0.2946  0.6151 -0.8079
18823SOL    HW257911   1.853   4.588  11.607  0.7368  0.1435 -0.8431
18824SOL     OW57912   0.694   4.211   6.174  0.1885  0.0420 -0.0182
18824SOL    HW157913   0.684   4.275   6.245 -0.6237 -1.8912  1.7417
18824SOL    HW257914   0.605   4.193   6.145  0.4366  0.0065 -0.7829
18825SOL     OW57915   3.855   0.275   3.665 -0.5103 -0.1268  0.0679
18825SOL    HW157916   3.787   0.339   3.644 -0.2676 -0.4560 -1.9292
18825SOL    HW257917   3.899   0.259   3.582  0.1892 -2.0399  0.7530
18826SOL     OW57918   2.907   2.332   0.064  0.8113 -0.1165  0.0223
18826SOL    HW157919   2.973   2.267   0.042  0.0785 -0.6876 -0.5549
18826SOL    HW257920   2.951   2.416   0.054  1.2464 -0.4657 -1.0845
18827SOL     OW57921   3.783   4.757   4.959 -0.1838  0.2657 -0.0473
18827SOL    HW157922   3.715   4.740   5.024  1.2972  1.3787  1.9179
18827SOL    HW257923   3.812   4.670   4.931 -1.8281 -0.2191 -0.3531
18828SOL     OW57924   4.217   3.827   5.623  0.0991  0.2869 -0.2658
18828SOL    HW157925   4.178   3.879   5.552  0.9765 -0.0809 -1.0466
18828SOL    HW257926   4.308   3.813   5.595  0.2460 -0.5301  0.5694
18829SOL     OW57927   5.346   3.070  10.518  0.1556  0.2431 -0.6243
18829SOL    HW157928   5.260   3.112  10.512  1.2759  2.8296  0.0474
18829SOL    HW257929   5.379   3.070  10.429 -0.3095 -0.2801 -0.8032
18830SOL     OW57930   0.933   5.122   9.557 -0.0530  0.0286  0.7630
18830SOL    HW157931   1.016   5.077   9.567 -1.1015 -1.9352  1.0905
18830SOL    HW257932   0.956   5.207   9.519  1.9372 -1.1567 -0.8648
18831SOL     OW57933   0.369   2.694   5.402  0.0586 -0.2270  0.1399
18831SOL    HW157934   0.422   2.615   5.394 -0.2562 -0.6731  1.9559
18831SOL    HW257935   0.432   2.763   5.420  0.3177 -0.0640 -1.2709
18832SOL     OW57936   5.505   2.109  10.797  0.1985 -0.0133 -0.3726
18832SOL    HW157937   5.546   2.137  10.715  1.2464  1.7554  0.7051
18832SOL    HW257938   5.576   2.070  10.847  0.8552  3.3133  1.6214
18833SOL     OW57939   3.197   4.617  12.181 -0.1765  0.2936 -0.4319
18833SOL    HW157940   3.271   4.617  12.242 -0.5582  1.3900  0.0560
18833SOL    HW257941   3.154   4.701  12.197 -2.1691 -0.7693  0.0750
18834SOL     OW57942   1.609   2.747   9.558 -0.1151 -0.0670 -0.4455
18834SOL    HW157943   1.656   2.830   9.569 -1.4505  0.6270  0.2938
18834SOL    HW257944   1.604   2.734   9.464 -0.2113  0.8982 -0.5834
18835SOL     OW57945   4.251   1.797   8.432  0.0693 -0.1119  0.0064
18835SOL    HW157946   4.287   1.787   8.343 -1.0065 -0.2993 -0.4184
18835SOL    HW257947   4.323   1.770   8.489  1.0466  0.7344 -0.7625
18836SOL     OW57948   2.824   3.301   6.195  0.0836 -0.4286  0.1922
18836SOL    HW157949   2.770   3.239   6.244 -0.7860  1.0556  1.2023
18836SOL    HW257950   2.774   3.317   6.114 -1.2550  1.1980  1.2708
18837SOL     OW57951   7.196   4.668  11.386  0.3257 -0.8701  0.4830
18837SOL    HW157952   7.275   4.660  11.333  0.0101  0.0214 -0.1561
18837SOL    HW257953   7.208   4.605  11.457  1.7038 -0.6179  0.5155
18838SOL     OW57954   1.839   1.141   9.697 -0.1365  0.2428 -0.2275
18838SOL    HW157955   1.862   1.223   9.741 -0.2937  0.2480 -0.1549
18838SOL    HW257956   1.832   1.077   9.767  2.0791 -0.3316 -0.4601
18839SOL     OW57957   1.008   6.069   8.603 -0.1061  0.3697 -0.2321
18839SOL    HW157958   0.993   6.125   8.527 -0.9905  1.6779  0.8510
18839SOL    HW257959   0.923   6.027   8.620  0.1440 -0.0978 -0.1095
18840SOL     OW57960   4.749   7.339   4.699 -0.1981  0.3040  0.2670
18840SOL    HW157961   4.813   7.282   4.655  0.6785  0.9120  0.7186
18840SOL    HW257962   4.667   7.323   4.653  0.4074 -0.0676 -0.7129
18841SOL     OW57963   3.183   6.911   5.157  0.1174  0.2507  0.0689
18841SOL    HW157964   3.161   6.823   5.188  0.9851 -0.8400 -2.1781
18841SOL    HW257965   3.102   6.942   5.115 -0.2427  0.6223  1.0159
18842SOL     OW57966   7.090   0.162  10.573 -0.1200 -0.3345  0.2757
18842SOL    HW157967   7.077   0.250  10.609  3.1742  0.2290  0.3377
18842SOL    HW257968   7.003   0.122  10.578 -1.7294  2.8301  0.3622
18843SOL     OW57969   0.463   3.761   5.065  0.1230  0.1240 -0.1965
18843SOL    HW157970   0.486   3.674   5.096  0.7808  0.0500 -0.8653
18843SOL    HW257971   0.379   3.781   5.107 -1.1436 -1.7031 -1.6929
18844SOL     OW57972   2.637   2.056  11.668 -0.3039 -0.1925 -0.4033
18844SOL    HW157973   2.646   2.141  11.626  2.6157 -1.1160 -1.9294
18844SOL    HW257974   2.595   2.000  11.603 -1.8416 -0.0846  0.4440
18845SOL     OW57975   1.274   7.903   1.867  0.2632  0.6042  0.4860
18845SOL    HW157976   1.337   7.974   1.879  0.6038 -0.0555  3.0810
18845SOL    HW257977   1.266   7.863   1.953 -0.8071 -1.7933 -0.6414
18846SOL     OW57978   4.655   0.476   0.202  0.0383 -0.1331 -0.4042
18846SOL    HW157979   4.739   0.492   0.160 -0.8391 -1.2254 -2.7342
18846SOL    HW257980   4.672   0.404   0.263  1.5038  1.9892  1.8942
18847SOL     OW57981   3.499   2.877   5.443 -0.0998 -0.4412  0.0141
18847SOL    HW157982   3.505   2.961   5.487 -1.1921  0.2521 -1.0906
18847SOL    HW257983   3.410   2.847   5.461  0.0358 -0.9972 -0.2220
18848SOL     OW57984   0.717   3.144   9.302  0.0502  0.1022 -0.2695
18848SOL    HW157985   0.625   3.168   9.304 -0.0412 -0.3066  0.8893
18848SOL    HW257986   0.762   3.225   9.281 -0.5158  0.4876 -0.0169
18849SOL     OW57987   1.456   0.447  11.367 -0.2986  0.4506  0.2505
18849SOL    HW157988   1.367   0.444  11.332 -0.1763 -0.3374 -0.0009
18849SOL    HW257989   1.445   0.436  11.461 -0.4312 -0.0813  0.1713
18850SOL     OW57990   0.654   0.001   1.189 -0.2797  0.2024 -0.5687
18850SOL    HW157991   0.593   0.075   1.181 -1.1574 -0.3437  0.6760
18850SOL    HW257992   0.740   0.043   1.201 -0.7718  1.0517  0.2001
18851SOL     OW57993   2.111   6.586   5.260  0.1224  0.2963 -0.1380
18851SOL    HW157994   2.166   6.633   5.198  0.3588  1.0911  0.6473
18851SOL    HW257995   2.097   6.500   5.220 -0.0786  0.9263 -1.4651
18852SOL     OW57996   0.395   0.521  10.591  0.3116  0.2444 -0.3698
18852SOL    HW157997   0.343   0.449  10.555  1.3139  0.3923 -2.2589
18852SOL    HW257998   0.419   0.492  10.679 -3.0498  0.2672  0.6934
18853SOL     OW57999   5.207   0.769   2.596  0.1598  0.2240 -0.0028
18853SOL    HW158000   5.161   0.750   2.514  0.0774  2.7019 -0.6212
18853SOL    HW258001   5.140   0.807   2.653  0.3021 -1.1357  1.1235
18854SOL     OW58002   1.069   2.430   5.309 -0.0155 -0.2354  0.2922
18854SOL    HW158003   1.098   2.487   5.238 -0.7978 -0.1254  0.0493
18854SOL    HW258004   0.999   2.377   5.270  0.5841 -1.2545  0.5546
18855SOL     OW58005   4.119   5.468   3.057 -0.1969 -0.2735 -0.4460
18855SOL    HW158006   4.168   5.409   3.115 -0.4772 -1.0499 -0.9801
18855SOL    HW258007   4.186   5.515   3.009  0.0446 -1.0641 -0.9078
18856SOL     OW58008   7.060   4.314  11.974  0.5743  0.1068 -0.3317
18856SOL    HW158009   7.033   4.288  12.062  0.3501  2.1768  0.2428
18856SOL    HW258010   6.983   4.299  11.920  1.2351 -2.9238 -0.6471
18857SOL     OW58011   7.369   1.620   7.166 -0.0501  0.7200  0.0712
18857SOL    HW158012   7.275   1.630   7.151 -0.5303 -2.3130  0.3135
18857SOL    HW258013   7.379   1.619   7.261 -0.0498 -0.4661  0.0805
18858SOL     OW58014   2.445   5.714   6.347 -0.0403 -0.5496 -0.4671
18858SOL    HW158015   2.424   5.788   6.291  0.9639  0.4426  0.4253
18858SOL    HW258016   2.395   5.729   6.427 -0.5348 -1.3264 -0.6149
18859SOL     OW58017   7.775   5.479   9.515 -0.0738 -0.5208 -0.3715
18859SOL    HW158018   7.823   5.457   9.435  1.2356 -1.4377  0.6241
18859SOL    HW258019   7.816   5.560   9.546  0.2276 -0.8088 -0.0082
18860SOL     OW58020   2.615   0.842  10.344 -0.1699  0.0310 -0.0782
18860SOL    HW158021   2.672   0.766  10.352  2.0530  1.4631 -1.1657
18860SOL    HW258022   2.653   0.907  10.404 -2.0501  0.3099  0.8798
18861SOL     OW58023   7.506   4.632  12.418  0.4028 -0.1150 -0.0339
18861SOL    HW158024   7.486   4.539  12.414 -1.6144  0.2353  0.9221
18861SOL    HW258025   7.592   4.636  12.461  0.9331 -1.5230 -0.8766
18862SOL     OW58026   1.081   2.178   4.459  0.4493  0.5264 -0.1998
18862SOL    HW158027   1.145   2.244   4.433 -0.1847  0.7962 -1.1156
18862SOL    HW258028   1.014   2.227   4.505  0.4430  0.3769 -0.0492
18863SOL     OW58029   4.178   2.067   4.115  0.1323  0.4234 -0.4593
18863SOL    HW158030   4.207   2.123   4.043  0.1438  0.5180 -0.3801
18863SOL    HW258031   4.104   2.017   4.078 -0.1191  0.7607 -0.4137
18864SOL     OW58032   7.171   0.696   9.422  0.3619 -0.6810  0.9010
18864SOL    HW158033   7.212   0.754   9.486  1.3949 -1.1098  0.6387
18864SOL    HW258034   7.129   0.628   9.475  1.0023 -0.8980  1.1323
18865SOL     OW58035   5.570   5.053   1.198  0.1265 -0.0708  0.3163
18865SOL    HW158036   5.560   5.073   1.291 -0.3825 -0.8447  0.4398
18865SOL    HW258037   5.599   4.961   1.196 -1.1879 -0.5044 -0.3039
18866SOL     OW58038   3.754   5.101   9.075 -0.4191  0.2889 -0.0596
18866SOL    HW158039   3.819   5.124   9.008 -0.4884  0.8481  0.0636
18866SOL    HW258040   3.765   5.007   9.086  0.1384  0.3182 -0.2870
18867SOL     OW58041   4.004   2.086   0.800 -0.0763  0.4695 -0.1659
18867SOL    HW158042   4.067   2.119   0.736 -0.7425  0.7331 -0.7029
18867SOL    HW258043   3.919   2.097   0.757 -0.6008  1.2642  1.0248
18868SOL     OW58044   4.058   4.737   0.475  0.2113 -0.2481 -0.0700
18868SOL    HW158045   3.998   4.662   0.478 -1.6451  1.1750  0.3954
18868SOL    HW258046   4.074   4.758   0.567  0.3689  0.1895 -0.1975
18869SOL     OW58047   4.021   7.301   0.889 -0.1369  0.1734  0.0954
18869SOL    HW158048   3.980   7.242   0.952 -0.8463 -0.4900 -0.9547
18869SOL    HW258049   4.082   7.354   0.941  0.2213 -1.2114  1.1281
18870SOL     OW58050   4.483   5.871   0.203 -0.1510 -0.4223 -0.1714
18870SOL    HW158051   4.549   5.876   0.133 -0.5485  0.5782 -0.4935
18870SOL    HW258052   4.445   5.959   0.206  0.5883 -0.1263  2.0306
18871SOL     OW58053   6.330   4.203   2.704 -0.3417 -0.2064 -0.1988
18871SOL    HW158054   6.380   4.257   2.765 -1.7270 -0.2786  1.0533
18871SOL    HW258055   6.323   4.257   2.625  1.2400  0.0095 -0.2095
18872SOL     OW58056   5.544   5.882  10.863 -0.5999  0.3921  0.0729
18872SOL    HW158057   5.607   5.820  10.899 -1.1787  0.3960  1.1459
18872SOL    HW258058   5.464   5.831  10.852 -0.5540  0.5062 -0.8029
18873SOL     OW58059   1.883   5.046  10.521 -0.5237 -0.0387 -0.0877
18873SOL    HW158060   1.877   5.098  10.441  2.7268 -0.0499 -0.4581
18873SOL    HW258061   1.878   4.955  10.491  0.1577 -0.0316 -0.2376
18874SOL     OW58062   1.296   2.565   3.233 -0.2923 -0.4772 -0.2182
18874SOL    HW158063   1.313   2.573   3.327  1.2987  0.6978 -0.5629
18874SOL    HW258064   1.235   2.636   3.214  1.1185  0.7175 -0.4278
18875SOL     OW58065   0.894   7.776  12.349 -0.2843 -0.0081  0.0825
18875SOL    HW158066   0.809   7.819  12.336 -0.5622 -0.9182 -1.3862
18875SOL    HW258067   0.896   7.706  12.283  1.8510  0.3605 -0.3298
18876SOL     OW58068   4.173   2.972   6.020 -0.1701 -0.5454  0.3869
18876SOL    HW158069   4.243   2.954   6.083 -0.4917 -0.4457  0.7739
18876SOL    HW258070   4.219   2.983   5.937  0.1649 -1.8100  0.3772
18877SOL     OW58071   1.684   1.097   1.128  0.3917  0.3771  0.3783
18877SOL    HW158072   1.705   1.006   1.152 -1.1217  0.3334  1.6808
18877SOL    HW258073   1.597   1.112   1.164 -0.2620  1.7159 -1.6225
18878SOL     OW58074   3.657   5.140   7.166  0.5120  0.1532  0.0810
18878SOL    HW158075   3.693   5.227   7.186 -0.1944  0.5833 -0.4434
18878SOL    HW258076   3.676   5.088   7.243  1.8158  0.4947  0.0111
18879SOL     OW58077   6.266   7.531   3.397  0.2574 -0.4063 -0.6960
18879SOL    HW158078   6.260   7.612   3.347 -1.9140  1.3416  2.0681
18879SOL    HW258079   6.175   7.502   3.408  0.6671 -1.0580  1.5338
18880SOL     OW58080   0.932   4.565   2.514 -0.3066  0.6499  0.2275
18880SOL    HW158081   1.003   4.519   2.559  0.1468  0.9298 -0.1905
18880SOL    HW258082   0.875   4.495   2.482 -0.9884  0.4579  1.7753
18881SOL     OW58083   7.491   1.351   0.151  0.3425 -0.2581 -0.4819
18881SOL    HW158084   7.542   1.427   0.178 -1.9438  1.2997 -0.2986
18881SOL    HW258085   7.481   1.298   0.230  0.0353  0.4286 -0.0576
18882SOL     OW58086   6.776   4.039   8.855 -0.2509  0.0453  0.0959
18882SOL    HW158087   6.868   4.016   8.843 -0.7288 -1.8546 -0.2128
18882SOL    HW258088   6.752   3.997   8.937 -0.9544  0.2062 -0.0271
18883SOL     OW58089   6.554   5.707   9.256 -0.3353 -0.7335  0.3397
18883SOL    HW158090   6.627   5.744   9.306 -0.2511 -0.3333 -0.0700
18883SOL    HW258091   6.570   5.736   9.166  0.1168 -2.3514 -0.1445
18884SOL     OW58092   4.708   6.232   0.160  0.3980 -0.8122 -0.6150
18884SOL    HW158093   4.706   6.200   0.251  2.6261  2.9718  1.0079
18884SOL    HW258094   4.625   6.279   0.150  0.6341 -0.2427 -0.0380
18885SOL     OW58095   2.548   2.557   3.138 -0.0810  0.2957  0.7011
18885SOL    HW158096   2.641   2.537   3.146  0.7521  2.8072 -1.3126
18885SOL    HW258097   2.508   2.515   3.214  2.2583 -2.9617  0.3911
18886SOL     OW58098   3.898   5.441   7.821 -0.5053  0.3873 -0.0581
18886SOL    HW158099   3.853   5.373   7.870  1.2020 -1.0087 -0.3323
18886SOL    HW258100   3.943   5.493   7.888  0.1164 -0.2280  0.0092
18887SOL     OW58101   6.594   3.402   6.367  0.5859  0.0614  0.0968
18887SOL    HW158102   6.619   3.492   6.388 -0.2900  0.7709 -1.6629
18887SOL    HW258103   6.669   3.368   6.319  1.8006 -0.9255  2.5211
18888SOL     OW58104   7.385   2.991   8.093 -0.5365  0.3238 -0.4262
18888SOL    HW158105   7.350   2.929   8.157 -0.0948  0.7447  0.2425
18888SOL    HW258106   7.355   2.959   8.008 -0.2342 -0.8518 -0.1008
18889SOL     OW58107   4.990   0.159   4.845  0.0602  0.6311  0.2452
18889SOL    HW158108   4.984   0.117   4.931  2.3825  1.1966  0.7612
18889SOL    HW258109   5.014   0.088   4.785 -1.7278  0.2038 -0.0190
18890SOL     OW58110   1.111   4.162   3.798 -0.0459 -0.1355  0.0996
18890SOL    HW158111   1.180   4.128   3.741  2.7395 -0.2965  3.2798
18890SOL    HW258112   1.130   4.124   3.884 -3.8139  0.3322  1.3092
18891SOL     OW58113   6.363   1.460   1.883  0.2195  0.1679 -0.3455
18891SOL    HW158114   6.291   1.501   1.836 -0.7124  0.4205  1.2079
18891SOL    HW258115   6.403   1.531   1.932 -0.1080 -0.3929  0.7776
18892SOL     OW58116   4.495   3.899   6.977  0.0674 -0.5534 -0.5695
18892SOL    HW158117   4.408   3.929   7.003 -0.1428 -1.1979 -0.5159
18892SOL    HW258118   4.518   3.833   7.042  0.3015 -0.8812 -0.9806
18893SOL     OW58119   7.378   7.899   2.612 -0.0286 -0.2393 -0.5392
18893SOL    HW158120   7.431   7.979   2.614 -0.1548  0.0050 -3.1396
18893SOL    HW258121   7.405   7.851   2.690  1.7161  1.3075 -0.1026
18894SOL     OW58122   1.630   4.920  11.272  0.0350 -0.0653  0.1714
18894SOL    HW158123   1.704   4.859  11.271 -0.2020 -0.3634  0.5051
18894SOL    HW258124   1.663   4.997  11.318 -0.4992 -1.0544  2.3812
18895SOL     OW58125   3.772   7.329   1.550  0.2919 -0.1198  0.5326
18895SOL    HW158126   3.830   7.253   1.544 -1.4781 -1.4150 -1.8849
18895SOL    HW258127   3.687   7.293   1.573  0.4072  1.8665  5.2217
18896SOL     OW58128   2.692   5.017   5.355  0.2993 -0.8371  0.0324
18896SOL    HW158129   2.779   4.978   5.365 -0.4186 -2.4425  0.3276
18896SOL    HW258130   2.641   4.951   5.308 -1.0615 -0.4056  0.8405
18897SOL     OW58131   7.770   7.622   1.270  0.0890 -0.2651  0.2015
18897SOL    HW158132   7.830   7.657   1.336 -2.4213 -1.4555  3.3996
18897SOL    HW258133   7.751   7.696   1.213  0.9473  1.3794  1.9562
18898SOL     OW58134   5.367   2.610   2.087 -0.9430  0.6851 -0.2428
18898SOL    HW158135   5.357   2.533   2.142  1.9253  0.0648 -0.4426
18898SOL    HW258136   5.462   2.625   2.082 -1.1306  1.7297 -3.5982
18899SOL     OW58137   1.441   6.902  11.424  0.1962  0.0634  0.1883
18899SOL    HW158138   1.402   6.938  11.344 -0.5677  1.4430  1.1196
18899SOL    HW258139   1.370   6.905  11.488  1.0512 -0.1021  1.1725
18900SOL     OW58140   4.881   6.787   0.214  0.0039  0.4012  0.1916
18900SOL    HW158141   4.940   6.725   0.257  1.1142  0.0707 -1.6614
18900SOL    HW258142   4.793   6.752   0.230  0.5669 -1.3718 -0.3257
18901SOL     OW58143   6.661   5.576   5.202  0.0459  0.4620 -0.2824
18901SOL    HW158144   6.752   5.608   5.198  0.1503  0.3875  0.9858
18901SOL    HW258145   6.654   5.514   5.130  1.6047 -0.9774  0.7110
18902SOL     OW58146   0.973   5.808   6.986 -0.1342 -0.5220 -0.0933
18902SOL    HW158147   0.948   5.898   6.964 -0.7720 -0.9651 -1.2951
18902SOL    HW258148   0.895   5.756   6.964  0.2315 -1.3684  0.5689
18903SOL     OW58149   4.023   5.616   5.595  0.2274  0.1941  0.0612
18903SOL    HW158150   3.994   5.543   5.542 -1.3312 -1.3818  2.8485
18903SOL    HW258151   4.116   5.600   5.610  1.1889  1.6425 -3.4230
18904SOL     OW58152   5.198   7.698  11.807 -0.0099 -0.5242 -0.5082
18904SOL    HW158153   5.122   7.704  11.865  0.4761  0.3052  0.0683
18904SOL    HW258154   5.199   7.607  11.778  1.4018 -1.8962  3.1656
18905SOL     OW58155   2.565   6.720   6.816  0.3092 -0.2213 -0.6100
18905SOL    HW158156   2.657   6.744   6.807  0.3538 -1.0336 -3.0868
18905SOL    HW258157   2.564   6.625   6.804 -0.7791 -0.3209  0.1680
18906SOL     OW58158   6.508   7.013  10.860  0.1868  0.3887  0.3246
18906SOL    HW158159   6.467   6.929  10.880  2.1268 -0.5724  0.5320
18906SOL    HW258160   6.453   7.051  10.792 -1.0974 -0.7538  0.6745
18907SOL     OW58161   3.976   4.811   8.469 -1.0768 -0.0233 -0.5323
18907SOL    HW158162   4.026   4.747   8.520 -1.2948  0.4553  0.3026
18907SOL    HW258163   4.040   4.879   8.448 -0.3852 -1.2863 -2.9351
18908SOL     OW58164   0.559   3.923   7.723  0.6819 -0.2507  0.3875
18908SOL    HW158165   0.593   3.980   7.792  0.2147  1.6564 -0.8829
18908SOL    HW258166   0.464   3.929   7.732  0.6212  0.0451 -0.4456
18909SOL     OW58167   3.035   0.998   2.418 -0.1688  0.0993 -0.1533
18909SOL    HW158168   3.002   1.085   2.438 -0.5302 -0.4600  1.8530
18909SOL    HW258169   3.100   0.980   2.485 -0.7085 -1.4872 -0.0034
18910SOL     OW58170   7.024   7.296   8.983  0.0507  0.3792  0.0367
18910SOL    HW158171   6.982   7.271   8.901  0.0969 -0.2156  0.1948
18910SOL    HW258172   6.970   7.256   9.051  0.7825 -0.2623  0.2467
18911SOL     OW58173   2.552   5.537   7.072  0.5530 -0.2708  0.2048
18911SOL    HW158174   2.598   5.542   6.988  0.7316 -3.4446  0.0137
18911SOL    HW258175   2.618   5.504   7.133  0.0341  0.6658  1.3022
18912SOL     OW58176   1.963   2.451   6.393 -0.2271 -0.1094 -0.5741
18912SOL    HW158177   1.890   2.480   6.449  0.5946  0.6687  0.1270
18912SOL    HW258178   1.994   2.531   6.351 -0.2093 -0.5435 -1.4072
18913SOL     OW58179   1.881   1.140   3.309 -0.1559  0.5612 -0.3374
18913SOL    HW158180   1.828   1.213   3.340 -1.2019 -0.0597 -0.6013
18913SOL    HW258181   1.863   1.136   3.215 -1.0010 -0.7009 -0.1555
18914SOL     OW58182   3.131   3.513   2.495  0.5315 -0.4298 -0.1611
18914SOL    HW158183   3.141   3.590   2.440  0.2266 -0.6040 -0.4660
18914SOL    HW258184   3.045   3.477   2.471  0.9895 -1.2962 -0.5709
18915SOL     OW58185   4.116   1.968  10.950  1.1717  0.6088  0.8205
18915SOL    HW158186   4.027   1.961  10.917  0.9221  1.4784  1.2741
18915SOL    HW258187   4.168   1.995  10.874  1.3016 -1.0925  0.2467
18916SOL     OW58188   7.098   3.415   1.467 -1.0195  0.2490 -0.3503
18916SOL    HW158189   7.023   3.357   1.451 -2.2788  1.6376  0.2834
18916SOL    HW258190   7.099   3.473   1.391  0.0791 -0.3998 -0.8568
18917SOL     OW58191   6.808   2.218  10.819 -0.1967  0.2963  0.1328
18917SOL    HW158192   6.783   2.278  10.889 -0.6038  0.5472 -0.2203
18917SOL    HW258193   6.859   2.150  10.862 -1.1482  0.0030  0.8178
18918SOL     OW58194   2.914   7.486   6.644 -0.0524 -0.6941  0.1539
18918SOL    HW158195   2.923   7.496   6.739  1.3804 -1.2761  0.1039
18918SOL    HW258196   2.850   7.552   6.619  1.6668  1.4858  1.1494
18919SOL     OW58197   0.388   6.407   9.862 -0.1495 -0.8886 -0.2712
18919SOL    HW158198   0.308   6.459   9.860  0.9809  0.9085 -0.2541
18919SOL    HW258199   0.418   6.413   9.953  1.4061  0.7182 -0.8522
18920SOL     OW58200   1.733   7.638   7.187  0.1851  0.4003 -0.4241
18920SOL    HW158201   1.641   7.638   7.211 -0.0780 -0.1027 -1.4074
18920SOL    HW258202   1.761   7.729   7.198 -0.3315  0.4898  0.1919
18921SOL     OW58203   1.965   3.463   8.877  0.1943  0.2713 -0.0502
18921SOL    HW158204   1.947   3.369   8.875  0.0569  0.1571  2.5532
18921SOL    HW258205   2.040   3.474   8.819 -0.1311 -1.3464 -0.8312
18922SOL     OW58206   6.572   6.411   9.068 -0.1512 -0.3861 -0.2381
18922SOL    HW158207   6.479   6.398   9.088 -0.5482  1.9459 -0.2725
18922SOL    HW258208   6.617   6.343   9.117 -1.5878  0.9572  3.2616
18923SOL     OW58209   4.609   5.445   0.409 -0.1569 -0.1553 -0.1296
18923SOL    HW158210   4.695   5.477   0.435  0.4013 -1.6072 -0.0700
18923SOL    HW258211   4.583   5.502   0.336  1.4436 -0.4927 -1.0088
18924SOL     OW58212   0.696   1.630  12.158  0.3846  0.1552 -0.4898
18924SOL    HW158213   0.776   1.590  12.192 -0.1825 -1.3457 -0.8553
18924SOL    HW258214   0.726   1.686  12.087  1.1583  0.0024 -0.2942
18925SOL     OW58215   2.825   0.212  11.040  0.0268  0.1379  0.0149
18925SOL    HW158216   2.828   0.143  11.106 -0.4119 -1.7065 -1.7740
18925SOL    HW258217   2.731   0.225  11.024  0.1238 -0.8530 -1.5651
18926SOL     OW58218   5.038   5.209   3.648 -0.0547  0.3799 -0.1888
18926SOL    HW158219   5.072   5.278   3.705  2.3414 -1.0216  0.2300
18926SOL    HW258220   5.003   5.256   3.572 -0.6298  2.1344  1.0913
18927SOL     OW58221   0.353   0.933   0.105 -0.8479  0.2654 -0.1849
18927SOL    HW158222   0.280   0.918   0.164 -0.1588  0.2262  0.6836
18927SOL    HW258223   0.413   0.861   0.122  0.5467  1.6155  0.9580
18928SOL     OW58224   4.733   1.427  11.792 -0.0732  0.1429  0.1102
18928SOL    HW158225   4.821   1.389  11.792  0.4388  1.3121 -0.2750
18928SOL    HW258226   4.685   1.376  11.858  1.0727 -0.0829  0.7847
18929SOL     OW58227   4.662   6.195   4.569 -0.0964 -0.1440  0.4943
18929SOL    HW158228   4.712   6.134   4.513  0.0153 -0.7288  1.2143
18929SOL    HW258229   4.644   6.145   4.648 -1.6862  0.1175  0.3345
18930SOL     OW58230   3.620   5.988   8.139 -0.0484 -0.1790  0.5824
18930SOL    HW158231   3.656   5.940   8.064  0.5773 -0.1089  0.8274
18930SOL    HW258232   3.550   6.042   8.102  0.8320  0.5224 -0.1105
18931SOL     OW58233   6.960   3.415   4.637  0.3093  0.3660  0.7026
18931SOL    HW158234   6.914   3.498   4.623  1.4543  0.6989 -1.4596
18931SOL    HW258235   7.049   3.440   4.661  0.7509 -0.2197 -0.2807
18932SOL     OW58236   4.003   0.439   1.868  0.5364  0.4451  0.0678
18932SOL    HW158237   4.062   0.366   1.849 -0.4824 -0.8711  1.6284
18932SOL    HW258238   3.915   0.402   1.859 -0.0993  2.1726 -1.5053
18933SOL     OW58239   3.797   6.871   7.077  0.4796  0.1626  0.3776
18933SOL    HW158240   3.820   6.811   7.148 -0.1260 -1.1255 -0.4653
18933SOL    HW258241   3.880   6.893   7.036  0.8821  1.2836  1.7482
18934SOL     OW58242   1.538   2.691   0.333  0.4028 -0.4151  0.5985
18934SOL    HW158243   1.604   2.623   0.326  0.2802 -0.3929 -1.0306
18934SOL    HW258244   1.497   2.694   0.247 -0.5105  0.7979  1.0478
18935SOL     OW58245   5.851   3.647  10.889  0.0729  0.3577 -0.2831
18935SOL    HW158246   5.835   3.663  10.796  0.7321  0.2316 -0.4187
18935SOL    HW258247   5.816   3.560  10.905  0.1829  0.2816 -0.4645
18936SOL     OW58248   6.156   1.576   4.238 -0.0157  0.3055 -0.2799
18936SOL    HW158249   6.152   1.485   4.208  0.9630 -0.3376  1.4538
18936SOL    HW258250   6.076   1.616   4.203 -1.6942 -1.8433  0.9043
18937SOL     OW58251   3.987   3.933   8.264 -0.2997  0.1759 -0.1465
18937SOL    HW158252   3.937   3.980   8.197  1.1288  1.4058 -0.4021
18937SOL    HW258253   4.037   3.868   8.216  0.6030  0.9522 -0.2967
18938SOL     OW58254   1.188   1.391  11.637 -0.4019  0.5875  0.1964
18938SOL    HW158255   1.258   1.329  11.655  2.1604  2.9898 -0.8854
18938SOL    HW258256   1.185   1.447  11.714 -0.9321  0.7105  0.0887
18939SOL     OW58257   6.504   7.875   9.856 -0.0732  0.7110 -0.0510
18939SOL    HW158258   6.528   7.947   9.798  0.1348 -0.4971 -1.5406
18939SOL    HW258259   6.550   7.799   9.820 -0.3009 -0.1934  1.4525
18940SOL     OW58260   0.272   3.029   0.166 -0.4506  0.0446  0.2114
18940SOL    HW158261   0.259   2.935   0.147 -0.6566  0.2268 -0.6213
18940SOL    HW258262   0.317   3.031   0.250  1.0294 -0.8612 -0.5208
18941SOL     OW58263   1.007   1.070   8.475  0.1839 -0.1208  0.4886
18941SOL    HW158264   0.933   1.015   8.499 -2.7577  2.1837 -2.2855
18941SOL    HW258265   1.004   1.143   8.536  0.6310 -0.3389  0.7797
18942SOL     OW58266   6.597   2.246   0.981  0.3130 -0.5402 -0.2052
18942SOL    HW158267   6.591   2.315   0.916  0.5412  0.5860  0.9279
18942SOL    HW258268   6.541   2.275   1.053  0.8433 -1.2592  0.5255
18943SOL     OW58269   3.608   6.089   6.882 -0.2935  0.2722  0.3912
18943SOL    HW158270   3.640   6.036   6.810 -0.1341  2.4415 -1.2374
18943SOL    HW258271   3.682   6.097   6.942 -0.3408 -1.3140  0.6893
18944SOL     OW58272   2.492   7.898   6.307  0.4719  0.3256 -0.0281
18944SOL    HW158273   2.483   7.868   6.398  0.3266 -1.8279 -0.6806
18944SOL    HW258274   2.427   7.967   6.298  0.6310  0.7246  1.5526
18945SOL     OW58275   0.104   2.796   6.153 -0.0915  0.7480  0.2926
18945SOL    HW158276   0.106   2.886   6.185  1.6281  0.6856  0.4650
18945SOL    HW258277   0.065   2.746   6.225 -3.0911  1.5768 -0.6132
18946SOL     OW58278   6.977   6.712  10.108 -0.3189  0.1467  0.7403
18946SOL    HW158279   7.046   6.698  10.173  1.3416 -0.6544 -1.0967
18946SOL    HW258280   6.927   6.630  10.109 -0.4726  0.2435  1.1853
18947SOL     OW58281   6.555   4.320   7.863  0.2993  0.1399  0.6073
18947SOL    HW158282   6.611   4.243   7.875  0.5333  0.3852  1.1468
18947SOL    HW258283   6.510   4.304   7.780 -0.3866 -1.0312  1.1747
18948SOL     OW58284   0.058   7.118   6.548 -0.2341  0.0256 -0.0715
18948SOL    HW158285   0.141   7.156   6.576 -0.0238  2.0568 -2.9514
18948SOL    HW258286   0.082   7.031   6.515  0.9831  0.9011 -1.6399
18949SOL     OW58287   4.341   5.470  11.784  0.1514 -0.3246 -0.1201
18949SOL    HW158288   4.426   5.511  11.772  0.8724 -0.8748  2.5417
18949SOL    HW258289   4.282   5.542  11.808 -0.3401  0.1309 -2.4148
18950SOL     OW58290   0.539   7.403   5.364  0.2799  0.6194  0.4431
18950SOL    HW158291   0.532   7.456   5.443  0.5598 -0.2999  1.1062
18950SOL    HW258292   0.629   7.370   5.365  0.6128  1.4021 -0.8002
18951SOL     OW58293   7.629   3.093   1.654 -0.0384  0.2843  0.0596
18951SOL    HW158294   7.631   3.020   1.716  0.3668 -0.4532 -0.7945
18951SOL    HW258295   7.612   3.052   1.569 -0.8812  1.3065 -0.2787
18952SOL     OW58296   0.417   5.146   2.345  0.2662 -0.2690 -0.4269
18952SOL    HW158297   0.386   5.059   2.370  0.4414 -0.5672 -1.2457
18952SOL    HW258298   0.512   5.143   2.361  0.4922 -0.6913 -1.7496
18953SOL     OW58299   1.302   3.301   1.370 -0.3878  0.6354  0.3716
18953SOL    HW158300   1.224   3.322   1.422 -1.0176  0.3337 -0.4168
18953SOL    HW258301   1.279   3.218   1.326  0.4364  0.4718  0.2366
18954SOL     OW58302   2.358   1.038   8.389 -0.2359 -0.4099 -0.4102
18954SOL    HW158303   2.418   0.966   8.407 -0.4067 -0.4286  0.1310
18954SOL    HW258304   2.372   1.100   8.461 -1.9592 -1.1461  0.6373
18955SOL     OW58305   3.667   1.086   6.764 -0.0437 -0.1921 -0.3198
18955SOL    HW158306   3.629   1.118   6.846 -0.7212  1.4719 -1.2349
18955SOL    HW258307   3.610   1.012   6.740  0.0198 -0.5474  0.5698
18956SOL     OW58308   5.366   0.340  10.602  0.0595  0.0917  0.1294
18956SOL    HW158309   5.427   0.358  10.530  1.9720  0.7554  1.8396
18956SOL    HW258310   5.367   0.419  10.655 -1.7022 -0.1988  0.6485
18957SOL     OW58311   7.541   0.277   6.200 -0.1895  0.0618  0.2778
18957SOL    HW158312   7.577   0.357   6.237  0.8441 -0.5582  0.6640
18957SOL    HW258313   7.586   0.206   6.247 -0.4332 -0.7443 -0.6612
18958SOL     OW58314   6.550   4.810   2.557 -0.4517  0.6221 -0.2817
18958SOL    HW158315   6.456   4.798   2.550 -0.3096 -0.0778 -1.2249
18958SOL    HW258316   6.585   4.771   2.477  0.7754 -0.8667  0.9033
18959SOL     OW58317   4.387   2.775   4.400 -0.0544  0.8310  0.0321
18959SOL    HW158318   4.335   2.853   4.383 -2.0020 -0.4703 -0.3983
18959SOL    HW258319   4.450   2.802   4.467 -1.8311  2.3359  1.2140
18960SOL     OW58320   3.430   0.952   5.575 -0.0453  0.4591  0.0529
18960SOL    HW158321   3.506   0.965   5.518 -1.0574  0.7884 -1.2917
18960SOL    HW258322   3.466   0.917   5.656  1.5531  0.8211 -0.4654
18961SOL     OW58323   6.636   6.970   5.695  0.3797 -0.6340  1.2107
18961SOL    HW158324   6.636   6.878   5.721  2.4496 -0.8267  0.7368
18961SOL    HW258325   6.697   7.012   5.756  1.8595 -0.2203 -0.4807
18962SOL     OW58326   7.618   5.601   1.769  0.7586  0.2104 -0.2707
18962SOL    HW158327   7.688   5.560   1.820 -0.3513  0.3155  1.4069
18962SOL    HW258328   7.585   5.531   1.712  0.9451 -0.3689  0.3244
18963SOL     OW58329   3.925   4.211   2.189  0.3352  0.5853  0.1845
18963SOL    HW158330   3.839   4.226   2.151  0.4251  1.2764  0.2399
18963SOL    HW258331   3.910   4.208   2.283  0.1834 -0.6436  0.1371
18964SOL     OW58332   0.202   2.121   0.858  0.1932 -0.3456 -0.2029
18964SOL    HW158333   0.218   2.182   0.931 -0.9444 -0.2809  0.0076
18964SOL    HW258334   0.261   2.152   0.789  3.2259 -1.9053  1.4513
18965SOL     OW58335   6.235   0.778   2.723 -0.1937 -0.3289 -0.7166
18965SOL    HW158336   6.139   0.774   2.717 -0.4054  0.7428  1.1991
18965SOL    HW258337   6.264   0.788   2.633 -1.8506 -1.0779 -1.3876
18966SOL     OW58338   5.407   3.495   4.335 -1.0390 -0.5697  0.4557
18966SOL    HW158339   5.372   3.583   4.332  0.2709 -0.0583 -1.2752
18966SOL    HW258340   5.339   3.440   4.297 -1.0946 -0.0131 -0.2571
18967SOL     OW58341   7.594   3.762   9.079  0.2622 -0.3262  0.2815
18967SOL    HW158342   7.573   3.853   9.101 -1.5577 -1.1570  2.3487
18967SOL    HW258343   7.512   3.726   9.045  1.1195 -1.0860 -1.0721
18968SOL     OW58344   1.666   5.723   2.654  0.0376  0.3974 -0.1427
18968SOL    HW158345   1.642   5.785   2.585 -0.5759  0.3122 -0.0114
18968SOL    HW258346   1.622   5.642   2.630 -0.6350  0.5160  0.6341
18969SOL     OW58347   2.866   5.142   6.047  0.1699 -0.4921 -0.5658
18969SOL    HW158348   2.866   5.097   5.962 -2.8136 -1.1199 -0.3421
18969SOL    HW258349   2.879   5.234   6.025  0.6149 -0.7830 -1.5896
18970SOL     OW58350   5.008   2.014   4.405 -0.0796  0.2266 -0.0738
18970SOL    HW158351   4.924   2.057   4.387 -0.3456 -0.2409  0.0219
18970SOL    HW258352   5.005   1.994   4.498  0.5695  1.1045  0.1435
18971SOL     OW58353   4.674   6.146   9.875  0.2493  0.1555 -0.3141
18971SOL    HW158354   4.766   6.123   9.888  0.3393 -0.0276 -1.2184
18971SOL    HW258355   4.644   6.174   9.961 -0.0636 -3.9574  1.1035
18972SOL     OW58356   4.795   2.838   1.492 -0.3443  0.4426 -0.4732
18972SOL    HW158357   4.725   2.871   1.549 -2.3681  0.6930 -2.9559
18972SOL    HW258358   4.787   2.743   1.497  0.0223  0.4401  0.2341
18973SOL     OW58359   6.438   7.585   1.220 -0.1726 -0.3533  0.1380
18973SOL    HW158360   6.352   7.608   1.187 -1.2873  1.3548  3.7092
18973SOL    HW258361   6.422   7.515   1.284  1.1688 -0.4280  0.4304
18974SOL     OW58362   7.817   3.757   9.698  0.1495 -0.5811 -0.4499
18974SOL    HW158363   7.859   3.774   9.782  0.2973 -0.8777 -0.4589
18974SOL    HW258364   7.795   3.843   9.663  0.6272 -0.4263 -0.3785
18975SOL     OW58365   2.868   7.498   7.508  0.2090  0.2770 -0.0885
18975SOL    HW158366   2.777   7.528   7.513 -0.5108 -1.6710 -0.6959
18975SOL    HW258367   2.881   7.449   7.589  0.5467  0.0914 -0.2548
18976SOL     OW58368   0.041   4.890   4.784  0.2044 -0.2841  0.2815
18976SOL    HW158369   0.044   4.959   4.718 -0.2176 -0.1304  0.4222
18976SOL    HW258370   0.028   4.810   4.733  2.5176 -0.5164 -0.0442
18977SOL     OW58371   2.906   4.813   5.672 -0.4829 -0.1406 -0.7974
18977SOL    HW158372   2.894   4.887   5.731 -1.9633 -0.5102 -0.5879
18977SOL    HW258373   2.844   4.747   5.704  1.1003 -1.6464 -0.7061
18978SOL     OW58374   7.156   4.024   4.879 -0.1203  0.0327  0.6657
18978SOL    HW158375   7.071   4.067   4.887 -0.6314 -0.9010  0.3535
18978SOL    HW258376   7.136   3.938   4.842  1.1646  0.5902 -1.4983
18979SOL     OW58377   2.287   2.301  11.176  0.3368 -0.2712  0.0535
18979SOL    HW158378   2.240   2.335  11.252  0.3831  0.9958 -0.4602
18979SOL    HW258379   2.226   2.238  11.137 -0.3507  0.2744  0.2204
18980SOL     OW58380   5.388   5.095   8.013 -0.3178  0.1791 -0.7342
18980SOL    HW158381   5.457   5.064   7.955 -0.8893 -1.5605 -0.5540
18980SOL    HW258382   5.354   5.015   8.054  0.0682  1.3276  2.0242
18981SOL     OW58383   1.687   0.510   3.366  0.1218  0.0410  0.5845
18981SOL    HW158384   1.604   0.479   3.404 -0.7480  1.7521  0.1687
18981SOL    HW258385   1.728   0.430   3.332 -0.9272 -0.9707  1.5858
18982SOL     OW58386   6.382   3.293   6.636  0.0339 -0.0666 -0.3748
18982SOL    HW158387   6.311   3.301   6.700  0.7647 -0.3034  0.4699
18982SOL    HW258388   6.340   3.254   6.559 -0.6088 -0.8913  0.3734
18983SOL     OW58389   4.464   7.857  12.245  0.0058 -0.3170 -0.1310
18983SOL    HW158390   4.404   7.784  12.230 -0.6750  0.5293 -1.6642
18983SOL    HW258391   4.408   7.928  12.275  0.5009 -0.0523  0.1833
18984SOL     OW58392   3.012   2.825   5.586  0.4192  0.7251  0.5063
18984SOL    HW158393   2.970   2.838   5.671  1.7922  0.9332  1.1971
18984SOL    HW258394   2.940   2.811   5.525 -0.5546 -1.0432  1.9619
18985SOL     OW58395   5.956   7.582  11.321  0.2456 -0.8303  0.3396
18985SOL    HW158396   5.914   7.653  11.370  3.3768  0.5069  1.3494
18985SOL    HW258397   5.962   7.615  11.232  0.4292 -0.4109  0.5022
18986SOL     OW58398   0.088   7.538  12.081  0.0981 -0.2838 -0.5980
18986SOL    HW158399   0.117   7.561  11.992  0.3660 -0.4541 -0.5542
18986SOL    HW258400  -0.007   7.551  12.079  0.1348 -0.0357 -0.8341
18987SOL     OW58401   2.176   6.944   1.735 -0.0385  0.0443  0.0611
18987SOL    HW158402   2.239   6.896   1.788 -0.6218 -0.9657 -0.1286
18987SOL    HW258403   2.164   7.028   1.779 -0.3534 -0.6901  1.4104
18988SOL     OW58404   0.435   6.995   0.111 -0.2448 -0.4918  0.1125
18988SOL    HW158405   0.376   7.026   0.180 -1.6884 -0.9510 -0.8730
18988SOL    HW258406   0.377   6.959   0.044  1.1881 -1.3044 -0.7373
18989SOL     OW58407   0.180   7.387   2.258  0.6340 -0.2323 -0.0295
18989SOL    HW158408   0.241   7.420   2.192  2.3590 -0.9650  1.1147
18989SOL    HW258409   0.224   7.311   2.296 -1.2035 -1.0661  0.5691
18990SOL     OW58410   7.045   1.873   2.868 -0.0551 -0.1083 -0.2277
18990SOL    HW158411   7.042   1.815   2.944  2.4539 -0.9728 -0.6827
18990SOL    HW258412   7.070   1.958   2.905  1.8989 -0.6950 -0.0897
18991SOL     OW58413   1.740   6.702   1.040 -0.2400  0.3595 -0.3216
18991SOL    HW158414   1.723   6.736   0.952 -1.0933  1.3757  0.2198
18991SOL    HW258415   1.830   6.728   1.059 -0.2255  0.5886 -0.6925
18992SOL     OW58416   3.889   3.424   4.596  0.7741  0.2240 -0.4178
18992SOL    HW158417   3.951   3.411   4.668  2.1311  0.5278 -1.4957
18992SOL    HW258418   3.913   3.509   4.559 -0.8199  0.7196 -0.3735
18993SOL     OW58419   1.117   4.538   2.781 -0.1835  0.3071  0.3711
18993SOL    HW158420   1.201   4.508   2.815 -0.7485 -1.1755  0.5477
18993SOL    HW258421   1.109   4.628   2.812  1.1693  0.3456  0.6521
18994SOL     OW58422   6.066   4.498   2.064 -0.9719 -0.1984  0.2082
18994SOL    HW158423   6.027   4.585   2.056  1.0099  0.7905  0.6102
18994SOL    HW258424   6.030   4.449   1.989 -1.8420  1.0654 -0.2426
18995SOL     OW58425   7.864   0.855   0.299 -0.2738  0.3108 -0.2245
18995SOL    HW158426   7.951   0.877   0.266 -0.2287  0.4815  0.0091
18995SOL    HW258427   7.866   0.759   0.309  0.4511  0.4459  1.3297
18996SOL     OW58428   3.261   6.077  12.009 -0.1634  0.1210  0.0559
18996SOL    HW158429   3.337   6.094  11.953  0.2228 -0.6819  0.3252
18996SOL    HW258430   3.187   6.076  11.948  0.0616  0.6888 -0.2379
18997SOL     OW58431   1.333   0.431  11.885 -0.3443 -0.4397  0.5612
18997SOL    HW158432   1.390   0.355  11.873 -0.3777 -0.6848  1.8647
18997SOL    HW258433   1.329   0.443  11.980 -1.2379  0.5107  0.4116
18998SOL     OW58434   0.407   1.677   5.170  0.4105  0.1183 -0.0602
18998SOL    HW158435   0.337   1.614   5.186 -0.1971  0.5098 -1.1083
18998SOL    HW258436   0.368   1.743   5.114  1.0726  1.3843  0.9286
18999SOL     OW58437   7.309   1.193   3.619 -0.5747  0.5388  0.5795
18999SOL    HW158438   7.224   1.190   3.663  1.0512  2.3129  4.3634
18999SOL    HW258439   7.330   1.287   3.614  1.3717  0.1458  0.2833
19000SOL     OW58440   4.424   5.292   6.151  0.1360  0.5873 -0.5736
19000SOL    HW158441   4.485   5.365   6.135 -1.0905  1.7241 -0.2708
19000SOL    HW258442   4.349   5.334   6.193  0.2519 -1.1774  1.5569
19001SOL     OW58443   3.514   1.644   2.778 -1.4550  0.1333  0.0091
19001SOL    HW158444   3.418   1.646   2.785 -1.6127 -0.3404 -1.4440
19001SOL    HW258445   3.532   1.689   2.695 -0.6280 -1.6910 -0.8740
19002SOL     OW58446   3.540   6.693   9.869  0.2885 -0.6155  0.0502
19002SOL    HW158447   3.604   6.627   9.896  0.7719  0.2652  1.1326
19002SOL    HW258448   3.542   6.759   9.939 -1.8421 -0.5818  0.1446
19003SOL     OW58449   0.424   4.134   9.865  0.6372 -0.3424  0.4471
19003SOL    HW158450   0.505   4.104   9.825 -0.6503 -2.8568 -0.5359
19003SOL    HW258451   0.408   4.070   9.936  0.5219  1.3158  1.9815
19004SOL     OW58452   5.367   3.920  10.656 -0.1918  0.8655 -0.2321
19004SOL    HW158453   5.395   3.966  10.735 -1.7585 -0.5423  1.2485
19004SOL    HW258454   5.302   3.978  10.616 -0.8756  0.7487  0.6617
19005SOL     OW58455   0.004   5.186   1.296 -0.1967  0.2354 -0.2299
19005SOL    HW158456  -0.020   5.202   1.205  0.8419  2.4956 -0.1701
19005SOL    HW258457   0.042   5.098   1.296 -0.9463 -0.1140 -1.7945
19006SOL     OW58458   2.670   1.881   7.190 -0.3639 -0.2239 -0.1014
19006SOL    HW158459   2.724   1.920   7.122 -0.5280  0.5928  0.2295
19006SOL    HW258460   2.652   1.952   7.251  1.0856 -1.2685  1.6660
19007SOL     OW58461   2.827   7.932   3.516  0.5434  0.3599 -0.5007
19007SOL    HW158462   2.867   8.016   3.539 -1.9411  2.4644 -3.2427
19007SOL    HW258463   2.833   7.927   3.421 -0.9946 -1.7269 -0.5609
19008SOL     OW58464   2.119   1.197  11.084 -0.7397 -0.0507 -0.2403
19008SOL    HW158465   2.034   1.231  11.112  0.1743  1.1910  1.1976
19008SOL    HW258466   2.144   1.255  11.011 -1.4306 -0.8992 -1.1814
19009SOL     OW58467   5.569   6.105   2.323  0.1289 -0.5189 -0.1201
19009SOL    HW158468   5.608   6.100   2.411  0.7683 -0.3943 -0.3909
19009SOL    HW258469   5.599   6.189   2.289 -0.9279 -0.1167 -0.0874
19010SOL     OW58470   4.598   1.313   2.531  0.4047 -0.2698  0.2312
19010SOL    HW158471   4.616   1.368   2.607 -0.5051  0.2131  0.1012
19010SOL    HW258472   4.611   1.223   2.563 -1.9348 -0.2106  1.5479
19011SOL     OW58473   4.613   1.117  10.527  0.0475 -0.5764  0.0591
19011SOL    HW158474   4.669   1.054  10.482 -0.2763 -1.7758  1.2752
19011SOL    HW258475   4.591   1.182  10.460  0.5878 -1.6184 -1.1657
19012SOL     OW58476   0.394   1.571   0.230  0.0644 -0.0104  0.1924
19012SOL    HW158477   0.405   1.661   0.261  0.2418  1.1182 -2.8415
19012SOL    HW258478   0.471   1.524   0.263 -0.7600  0.4498  3.0879
19013SOL     OW58479   3.806   3.432   8.776 -0.2804  0.7094 -0.0272
19013SOL    HW158480   3.735   3.475   8.728  0.2096 -0.6052 -2.0526
19013SOL    HW258481   3.886   3.468   8.737  0.1405  0.0682  0.2402
19014SOL     OW58482   4.739   1.979   6.439 -0.2823 -0.1265 -0.0720
19014SOL    HW158483   4.783   1.923   6.376 -1.2344 -1.4173  0.3529
19014SOL    HW258484   4.799   1.983   6.514 -1.0375 -2.3623  0.7479
19015SOL     OW58485   0.347   0.424   6.490  0.2856  0.2649 -0.3433
19015SOL    HW158486   0.420   0.430   6.428  0.1288  0.7503 -0.4867
19015SOL    HW258487   0.313   0.513   6.496  0.5467  0.3012  0.7550
19016SOL     OW58488   2.766   3.339   7.671 -0.3068 -0.2872 -0.0340
19016SOL    HW158489   2.800   3.317   7.585  1.1226  0.3063  0.3376
19016SOL    HW258490   2.803   3.273   7.730  2.5059  1.8034  0.7885
19017SOL     OW58491   7.588   4.587   5.608  0.9479  0.0733 -0.9178
19017SOL    HW158492   7.522   4.622   5.668  0.1487 -0.2039 -1.6146
19017SOL    HW258493   7.667   4.581   5.661  0.0316 -1.0917  0.4059
19018SOL     OW58494   6.583   5.083   6.072  0.1658  0.3253 -0.4217
19018SOL    HW158495   6.623   5.012   6.121  0.4515  0.6624 -0.1588
19018SOL    HW258496   6.591   5.159   6.130  1.2393  0.9188 -1.3100
19019SOL     OW58497   3.450   5.207   5.719  0.1436 -0.6580 -0.3924
19019SOL    HW158498   3.381   5.141   5.718 -0.3281 -0.1825  0.1839
19019SOL    HW258499   3.512   5.178   5.652 -0.4708 -1.2358 -0.7185
19020SOL     OW58500   6.655   0.147   3.260 -0.5943 -0.6166  0.0034
19020SOL    HW158501   6.606   0.196   3.327  0.3954 -0.5367  0.6850
19020SOL    HW258502   6.636   0.055   3.280 -0.8424 -0.5736 -0.0292
19021SOL     OW58503   7.179   7.341   1.280 -0.5207  0.1273  0.0406
19021SOL    HW158504   7.129   7.307   1.355 -0.6594 -1.5900 -0.7702
19021SOL    HW258505   7.120   7.330   1.205  0.5533 -0.7146 -0.7241
19022SOL     OW58506   7.407   7.046   7.916 -0.1904  0.7685  0.3062
19022SOL    HW158507   7.389   7.137   7.894  0.6243  0.2835 -2.8483
19022SOL    HW258508   7.489   7.050   7.967 -0.3932  1.7985  0.5777
19023SOL     OW58509   0.170   6.844   6.580  0.0302 -0.3424  0.2689
19023SOL    HW158510   0.219   6.823   6.500 -0.3812  0.5531 -0.2365
19023SOL    HW258511   0.078   6.836   6.554 -0.1344  1.3837  0.2297
19024SOL     OW58512   1.254   3.532   7.269  0.1040 -0.5700 -0.0980
19024SOL    HW158513   1.181   3.589   7.246 -0.3206 -1.4174 -0.9070
19024SOL    HW258514   1.216   3.444   7.273  1.0041 -0.9784 -0.2088
19025SOL     OW58515   0.068   2.312   4.762 -0.5564 -0.6001 -0.1735
19025SOL    HW158516   0.065   2.242   4.697 -2.5571 -0.6196 -0.1253
19025SOL    HW258517   0.001   2.288   4.826  1.2761 -0.5325  1.8762
19026SOL     OW58518   4.455   2.586   3.438  0.6157  0.2021  0.2748
19026SOL    HW158519   4.424   2.654   3.498  1.5105  3.3185 -2.4906
19026SOL    HW258520   4.521   2.630   3.385  1.4100 -2.9595 -1.5967
19027SOL     OW58521   1.387   2.725  12.103 -0.7853  0.3477 -0.4156
19027SOL    HW158522   1.363   2.654  12.162  1.6840 -0.4356 -0.2551
19027SOL    HW258523   1.355   2.697  12.017  2.2380 -2.3050 -0.8776
19028SOL     OW58524   6.494   2.349   2.967  0.2760  0.6246 -0.5339
19028SOL    HW158525   6.433   2.295   3.017 -0.3198 -0.0771 -1.9407
19028SOL    HW258526   6.510   2.426   3.022  1.3129 -1.0465  1.6282
19029SOL     OW58527   3.453   6.797   2.709  0.1289 -0.0210 -0.3253
19029SOL    HW158528   3.370   6.749   2.705  0.3358 -0.4109  0.0188
19029SOL    HW258529   3.430   6.879   2.753  0.3929 -1.1854  2.1778
19030SOL     OW58530   7.689   4.038   6.419  0.4900 -0.0335 -0.5150
19030SOL    HW158531   7.761   3.975   6.421 -0.1269 -0.7740 -1.1616
19030SOL    HW258532   7.724   4.116   6.463  1.5247 -0.5425 -0.4146
19031SOL     OW58533   5.099   3.976   4.580 -0.1259  0.0414 -0.0160
19031SOL    HW158534   5.180   3.989   4.530 -0.9424  0.3413 -1.3311
19031SOL    HW258535   5.127   3.973   4.671  1.5370 -1.3534 -0.5207
19032SOL     OW58536   0.397   4.144   6.247  0.3041  0.9559  0.6500
19032SOL    HW158537   0.347   4.064   6.230 -0.8190  2.0976 -1.9467
19032SOL    HW258538   0.356   4.182   6.325 -0.3158 -0.0660  0.8407
19033SOL     OW58539   5.893   1.047  12.120  0.2892  0.5106  0.0173
19033SOL    HW158540   5.961   1.065  12.054  1.3503 -1.2248  0.5972
19033SOL    HW258541   5.932   0.983  12.179 -1.2627  0.7453  1.3739
19034SOL     OW58542   3.740   5.486   6.323  0.3583 -0.3931  0.5275
19034SOL    HW158543   3.683   5.563   6.327  0.8580  0.0192 -0.1240
19034SOL    HW258544   3.767   5.471   6.414 -0.5225 -0.3987  0.7950
19035SOL     OW58545   3.568   3.111   3.027 -0.6225  0.8109 -0.4338
19035SOL    HW158546   3.499   3.074   3.083  2.0453 -1.2549  1.7418
19035SOL    HW258547   3.631   3.149   3.088  1.2350  0.7115 -2.1936
19036SOL     OW58548   4.221   6.243  11.204  0.0938 -0.0395 -0.8755
19036SOL    HW158549   4.210   6.197  11.121 -1.7994  0.2990 -0.8653
19036SOL    HW258550   4.298   6.299  11.190  1.1716 -1.6130 -1.5867
19037SOL     OW58551   5.981   7.835   1.826 -0.2401 -0.6338  0.0830
19037SOL    HW158552   5.983   7.860   1.918 -2.1304 -0.0387  0.0019
19037SOL    HW258553   6.073   7.824   1.802  0.5124  2.3298  1.1928
19038SOL     OW58554   2.819   6.070   3.680 -0.0086  0.4150  0.2796
19038SOL    HW158555   2.861   5.989   3.709 -0.5959 -0.0193 -0.0268
19038SOL    HW258556   2.817   6.062   3.584 -0.8525  0.3790  0.2938
19039SOL     OW58557   1.751   7.200   9.004  0.0853 -0.1175 -0.0129
19039SOL    HW158558   1.825   7.256   8.978  0.4706 -0.8085 -0.4290
19039SOL    HW258559   1.792   7.122   9.041 -0.4503 -0.2141  0.3833
19040SOL     OW58560   4.746   0.878   6.639  0.3142  0.0508  0.0340
19040SOL    HW158561   4.777   0.967   6.622  1.5505 -0.2325  0.6974
19040SOL    HW258562   4.821   0.822   6.622 -0.5684 -0.9366 -0.8044
19041SOL     OW58563   6.652   2.535   1.383  0.1802  0.1434  0.1239
19041SOL    HW158564   6.639   2.564   1.293  1.0548 -2.2385 -0.8702
19041SOL    HW258565   6.741   2.563   1.404 -0.5392  2.0221  0.8614
19042SOL     OW58566   3.731   3.820  10.633  0.3100  0.5587  0.1199
19042SOL    HW158567   3.701   3.747  10.687 -1.4974 -1.5523 -3.3574
19042SOL    HW258568   3.703   3.899  10.681 -1.3618 -1.1290  2.1021
19043SOL     OW58569   3.447   4.265  11.467 -0.8075  0.1120 -0.3497
19043SOL    HW158570   3.496   4.268  11.384  2.8091 -1.6427  1.5166
19043SOL    HW258571   3.388   4.190  11.457 -0.1526 -0.3034 -1.2099
19044SOL     OW58572   2.470   5.885  11.381  0.0416  0.3044 -0.0943
19044SOL    HW158573   2.546   5.845  11.422  1.0094  1.2225 -0.9490
19044SOL    HW258574   2.441   5.821  11.316 -0.8316 -0.6727  1.2093
19045SOL     OW58575   3.403   7.623   4.927 -0.3442 -0.3243  0.1568
19045SOL    HW158576   3.368   7.707   4.896  3.5821  0.9835 -1.3967
19045SOL    HW258577   3.333   7.560   4.909 -3.5682  2.5377  1.6186
19046SOL     OW58578   2.271   3.983   2.377  0.3181  0.1073 -0.0221
19046SOL    HW158579   2.257   3.982   2.283  0.7310  0.6692 -0.0969
19046SOL    HW258580   2.248   3.895   2.406 -0.4244  0.1179 -0.5540
19047SOL     OW58581   6.547   0.602   2.101  0.0770 -0.3104 -0.3545
19047SOL    HW158582   6.611   0.667   2.130 -1.1413  1.2477 -0.9737
19047SOL    HW258583   6.575   0.578   2.012  0.1522 -0.0920 -0.3894
19048SOL     OW58584   1.533   0.306   1.400 -0.0100 -0.4397 -0.1560
19048SOL    HW158585   1.599   0.342   1.459 -0.1849 -0.8379  0.2910
19048SOL    HW258586   1.465   0.373   1.397 -0.7169 -1.0429  1.3229
19049SOL     OW58587   4.035   7.251  10.975 -0.4498 -0.0249  0.3432
19049SOL    HW158588   4.018   7.340  11.006 -1.5239 -0.1336  0.1296
19049SOL    HW258589   4.032   7.197  11.054  0.4341  0.1519  0.5032
19050SOL     OW58590   6.851   6.820   4.541  0.1072 -0.1234 -0.0417
19050SOL    HW158591   6.894   6.896   4.580  0.0853 -0.8009  1.3892
19050SOL    HW258592   6.758   6.831   4.561  0.2197 -0.9987  1.1041
19051SOL     OW58593   2.094   0.197  10.800 -0.2233 -0.2697 -0.4969
19051SOL    HW158594   2.095   0.260  10.728 -0.7555 -0.0213 -0.2971
19051SOL    HW258595   2.139   0.120  10.765 -0.6583 -0.2293 -1.1708
19052SOL     OW58596   6.948   1.999   5.466 -0.7611  0.4165 -0.1147
19052SOL    HW158597   6.895   1.923   5.442 -0.6632  0.4910 -0.5784
19052SOL    HW258598   6.935   2.061   5.394 -0.1851  0.5083 -0.1448
19053SOL     OW58599   4.015   1.934   9.594  0.3049  0.5649  0.4655
19053SOL    HW158600   4.083   1.979   9.644  1.1260  0.1651 -0.2418
19053SOL    HW258601   3.980   2.000   9.535  0.9966  0.4705 -0.0633
19054SOL     OW58602   0.576   5.018   0.851 -0.1045  0.0877  0.1215
19054SOL    HW158603   0.664   4.983   0.834  1.3276  2.9149  1.1798
19054SOL    HW258604   0.545   5.047   0.765 -0.0388 -0.9026 -0.2538
19055SOL     OW58605   7.004   2.344   6.594 -0.2359  0.1739  0.2089
19055SOL    HW158606   7.052   2.356   6.676 -1.1540 -0.3100  0.8303
19055SOL    HW258607   6.915   2.322   6.621 -0.7350  0.7373 -0.9289
19056SOL     OW58608   5.643   3.116  11.061  0.1812  0.0946 -0.4394
19056SOL    HW158609   5.730   3.103  11.025  0.5220  0.5410  0.1954
19056SOL    HW258610   5.601   3.030  11.054  0.6880 -0.1362 -0.7097
19057SOL     OW58611   6.499   2.132   9.516  0.5009  0.1440  0.0536
19057SOL    HW158612   6.580   2.099   9.478  1.5231  1.1524  1.2618
19057SOL    HW258613   6.433   2.066   9.493  1.8131 -1.0915 -0.3176
19058SOL     OW58614   7.687   1.065  11.922 -0.1557  0.3810  0.6132
19058SOL    HW158615   7.734   1.125  11.980 -0.3858  0.7927  0.3784
19058SOL    HW258616   7.595   1.090  11.931 -0.5261 -1.2601  2.0729
19059SOL     OW58617   0.783   3.637   5.215 -0.0571 -0.0052 -0.2574
19059SOL    HW158618   0.821   3.588   5.288  0.4779 -1.0235 -1.1897
19059SOL    HW258619   0.711   3.582   5.185  0.4253 -0.1412 -1.1957
19060SOL     OW58620   1.161   0.241   2.320  0.0616  0.1259 -0.4613
19060SOL    HW158621   1.234   0.280   2.367 -0.1033 -0.4321  0.2777
19060SOL    HW258622   1.190   0.239   2.229  1.6639 -1.5272  0.0098
19061SOL     OW58623   0.143   6.131  11.330  0.1115 -0.1190 -0.4834
19061SOL    HW158624   0.196   6.117  11.252 -0.8983  0.0940 -1.2297
19061SOL    HW258625   0.119   6.223  11.326 -0.9649 -0.3949 -0.5888
19062SOL     OW58626   6.370   2.873   0.942  0.1541 -0.0174  0.1326
19062SOL    HW158627   6.364   2.944   0.878  2.0749 -0.8114 -1.0007
19062SOL    HW258628   6.279   2.851   0.961 -0.5071  2.5538  0.3490
19063SOL     OW58629   3.105   6.899   2.417 -0.5051  0.8044  0.5094
19063SOL    HW158630   3.027   6.946   2.388 -0.4137  0.3163 -0.5787
19063SOL    HW258631   3.115   6.923   2.509 -0.8602  2.3564  0.1734
19064SOL     OW58632   0.503   7.927   3.189 -0.2725  0.9249  0.4096
19064SOL    HW158633   0.489   7.904   3.097 -0.1633  1.0638  0.3570
19064SOL    HW258634   0.446   8.002   3.204 -0.8352  0.4484  0.6567
19065SOL     OW58635   1.206   5.552   3.924  0.4935 -0.3670 -0.3820
19065SOL    HW158636   1.268   5.507   3.982  0.9586  0.6738 -0.0466
19065SOL    HW258637   1.248   5.551   3.838  0.5971 -0.3853 -0.3315
19066SOL     OW58638   0.171   2.425   0.330 -0.2508 -0.4447 -0.4119
19066SOL    HW158639   0.196   2.481   0.257 -1.3414  1.2570  0.4697
19066SOL    HW258640   0.091   2.464   0.365 -0.2127 -1.6876  1.1961
19067SOL     OW58641   5.920   3.626   5.321 -0.5313 -0.0928  0.0201
19067SOL    HW158642   5.866   3.668   5.254 -0.7329  1.6867  1.2248
19067SOL    HW258643   5.958   3.550   5.277 -0.0703  1.3986 -2.3379
19068SOL     OW58644   6.874   4.636   1.581 -0.3083 -0.2993  0.1978
19068SOL    HW158645   6.864   4.728   1.603 -0.9590 -0.1070 -0.8638
19068SOL    HW258646   6.856   4.590   1.663  2.4738  0.5657  1.4108
19069SOL     OW58647   3.236   5.226   8.369 -0.3870 -0.5998 -0.5273
19069SOL    HW158648   3.153   5.227   8.321 -0.4303  0.1329 -0.4511
19069SOL    HW258649   3.230   5.151   8.427 -1.3239 -0.0917  0.0463
19070SOL     OW58650   0.954   7.523   0.729  0.3956  0.3344  0.0047
19070SOL    HW158651   0.940   7.442   0.681  2.2876 -0.0642  0.0785
19070SOL    HW258652   1.048   7.540   0.722 -0.0933  3.1640 -1.0273
19071SOL     OW58653   7.426   6.236   0.797  0.0752 -0.4346  0.3365
19071SOL    HW158654   7.471   6.205   0.719  1.1094  1.6164  0.0575
19071SOL    HW258655   7.334   6.239   0.772  0.3213 -0.3888 -0.5961
19072SOL     OW58656   4.266   0.769   5.235  0.6584  0.3873  0.2422
19072SOL    HW158657   4.204   0.697   5.242  0.2140  0.6195 -0.9688
19072SOL    HW258658   4.297   0.784   5.324  0.5665 -1.1208  0.5449
19073SOL     OW58659   2.656   7.017   4.700 -0.1513 -0.5245  0.2296
19073SOL    HW158660   2.616   7.092   4.744  0.7733  1.9394 -2.7594
19073SOL    HW258661   2.736   7.001   4.749 -0.2364  0.6385  0.7995
19074SOL     OW58662   6.195   5.516  10.838 -0.6816 -0.0013 -0.6023
19074SOL    HW158663   6.189   5.512  10.742 -2.1619  2.6004 -0.7480
19074SOL    HW258664   6.118   5.568  10.863  0.6045  0.8597  1.8342
19075SOL     OW58665   0.905   6.382   3.934 -0.0169  0.4636  0.2444
19075SOL    HW158666   0.908   6.359   4.026  0.1350  1.0522  0.3908
19075SOL    HW258667   0.962   6.318   3.891 -0.2766  0.0388  0.5214
19076SOL     OW58668   4.841   1.967   7.469  0.7053  0.6640 -0.2385
19076SOL    HW158669   4.753   1.979   7.434  0.1848 -1.0693  0.3950
19076SOL    HW258670   4.829   1.968   7.564  1.4443  0.8307 -0.1428
19077SOL     OW58671   6.370   5.151  11.195  0.2937 -0.4587 -0.1365
19077SOL    HW158672   6.297   5.159  11.134  0.2057  0.4939  0.0835
19077SOL    HW258673   6.330   5.154  11.282  0.3754 -2.2196 -0.0132
19078SOL     OW58674   0.806   2.151  10.039  0.1569  0.0025  0.0724
19078SOL    HW158675   0.891   2.187  10.013 -0.3044  0.9482 -0.1694
19078SOL    HW258676   0.776   2.209  10.109  0.0567 -0.7991  0.7092
19079SOL     OW58677   5.210   5.046  11.907 -0.0633 -0.4774 -0.7401
19079SOL    HW158678   5.257   5.095  11.974 -0.4907 -0.1698 -0.6575
19079SOL    HW258679   5.121   5.039  11.940 -0.9673  1.8820 -2.3668
19080SOL     OW58680   2.779   2.007   7.982  0.0921 -0.1392  0.1194
19080SOL    HW158681   2.694   2.033   7.947  0.4033 -1.1635 -1.4795
19080SOL    HW258682   2.758   1.952   8.058 -0.6699 -0.3334 -0.2245
19081SOL     OW58683   2.398   2.616   5.098 -0.0733 -0.2577 -0.2876
19081SOL    HW158684   2.488   2.647   5.095 -0.5719  1.5044  1.3000
19081SOL    HW258685   2.369   2.621   5.007  0.9422  0.7401 -0.5873
19082SOL     OW58686   7.287   6.313  11.159  0.6713  0.0664  0.1054
19082SOL    HW158687   7.208   6.314  11.104  0.3093  2.1721  0.5693
19082SOL    HW258688   7.358   6.291  11.098  0.0379  0.5325 -0.8274
19083SOL     OW58689   1.383   0.585   7.142  0.0704  0.1268  0.4086
19083SOL    HW158690   1.418   0.505   7.181  0.4521 -0.8350 -1.7570
19083SOL    HW258691   1.298   0.598   7.186  0.9314 -0.2306  2.2796
19084SOL     OW58692   7.979   5.715  11.486  0.7953  0.6776 -0.3599
19084SOL    HW158693   8.039   5.724  11.412  2.8665  0.5056  1.2118
19084SOL    HW258694   7.970   5.804  11.521  2.9096  0.2876  1.4022
19085SOL     OW58695   3.382   1.259   1.756  0.1946  0.5037 -0.4882
19085SOL    HW158696   3.325   1.190   1.723 -1.4317  0.9756  1.1927
19085SOL    HW258697   3.410   1.228   1.842 -2.5817  2.8644  1.4536
19086SOL     OW58698   4.924   0.115   0.839 -0.6506 -0.3711 -0.0060
19086SOL    HW158699   5.019   0.115   0.850 -0.6040 -0.2173 -0.4030
19086SOL    HW258700   4.910   0.150   0.751 -1.1180  0.6830  0.4642
19087SOL     OW58701   1.953   3.964  11.558 -0.0299 -0.0528 -0.7782
19087SOL    HW158702   1.910   4.000  11.481  0.7410 -0.2314 -1.2967
19087SOL    HW258703   2.043   3.947  11.530  0.7173  1.3734  0.5917
19088SOL     OW58704   5.662   5.829   2.252  0.1621  0.0593  0.0108
19088SOL    HW158705   5.663   5.925   2.262  2.1512  0.1544 -0.7010
19088SOL    HW258706   5.657   5.815   2.158  0.9978 -0.5100  0.0455
19089SOL     OW58707   1.566   2.001   5.449 -0.3299 -0.2999  0.4313
19089SOL    HW158708   1.548   1.918   5.405  0.1833  0.1204 -0.6003
19089SOL    HW258709   1.525   1.992   5.536 -0.0087 -1.7376  0.4484
19090SOL     OW58710   7.082   1.051  10.439  0.5358  0.0149 -0.6277
19090SOL    HW158711   7.124   1.039  10.354  0.2359 -2.4514 -0.4979
19090SOL    HW258712   7.034   0.969  10.454 -1.5883  1.4067  0.7423
19091SOL     OW58713   0.254   1.352   0.068 -0.8206  0.0084  0.3981
19091SOL    HW158714   0.305   1.428   0.096 -0.1198  0.1074 -1.0510
19091SOL    HW258715   0.165   1.387   0.057 -0.6762  0.4309  0.5443
19092SOL     OW58716   4.276   3.828  10.577 -0.0673 -0.4318  0.1540
19092SOL    HW158717   4.217   3.830  10.653  0.6015 -1.0984  0.7071
19092SOL    HW258718   4.308   3.738  10.574  0.2063 -0.3136 -0.6993
19093SOL     OW58719   1.168   5.573  10.334 -0.3887  0.0788 -0.2559
19093SOL    HW158720   1.192   5.616  10.252  2.0384 -0.2725  0.1927
19093SOL    HW258721   1.203   5.629  10.402 -2.1936  0.2543  0.5942
19094SOL     OW58722   3.896   6.090   8.794 -1.1263 -0.1660 -0.2215
19094SOL    HW158723   3.953   6.163   8.821  1.1314 -1.8505 -0.1150
19094SOL    HW258724   3.848   6.066   8.873 -1.2816  0.6958 -0.0468
19095SOL     OW58725   4.487   1.837   0.126 -0.0462  0.1982 -0.5105
19095SOL    HW158726   4.520   1.800   0.208 -0.4661  1.8251  0.4201
19095SOL    HW258727   4.396   1.809   0.121 -0.0668  0.2346 -0.3365
19096SOL     OW58728   3.046   0.406   5.874 -0.5513 -0.4027  0.2250
19096SOL    HW158729   2.975   0.383   5.935 -1.2344  1.0356 -0.0030
19096SOL    HW258730   3.023   0.492   5.841  0.5250 -0.5709 -1.0482
19097SOL     OW58731   5.735   3.272   4.952 -0.0532  0.1562 -0.1381
19097SOL    HW158732   5.762   3.194   4.902 -0.7485 -0.1797 -0.0067
19097SOL    HW258733   5.640   3.264   4.958 -0.0433  0.5517  0.6533
19098SOL     OW58734   4.068   0.802   9.462 -0.0921  0.0262 -0.0025
19098SOL    HW158735   4.152   0.762   9.487 -0.1029  0.2212  0.3484
19098SOL    HW258736   4.078   0.821   9.368 -0.7182 -2.3752 -0.6148
19099SOL     OW58737   4.651   4.294   7.914 -0.1176 -0.4843  0.2902
19099SOL    HW158738   4.706   4.246   7.977  0.2048  0.5397  0.8269
19099SOL    HW258739   4.713   4.348   7.865 -0.4174 -0.9754 -0.6376
19100SOL     OW58740   1.460   7.464   7.000  0.4183 -0.1075  0.5661
19100SOL    HW158741   1.487   7.376   7.026 -0.4877 -0.1357  1.5078
19100SOL    HW258742   1.484   7.519   7.075 -0.3592  0.1844  0.6064
19101SOL     OW58743   0.743   6.372   0.541 -0.3146 -0.3021  0.2301
19101SOL    HW158744   0.758   6.389   0.448  0.5163  1.2873  0.6153
19101SOL    HW258745   0.716   6.456   0.576  0.4848 -0.6031  1.6298
19102SOL     OW58746   2.032   0.553   0.031  0.1777 -0.6235  0.6910
19102SOL    HW158747   1.984   0.471   0.017  1.8544 -1.5229 -0.1937
19102SOL    HW258748   2.040   0.591  -0.056 -0.1917  0.2505  1.0363
19103SOL     OW58749   1.968   1.919  11.810  0.1525  0.0544  0.0422
19103SOL    HW158750   1.992   1.826  11.807  0.6148 -0.0551  3.4061
19103SOL    HW258751   2.051   1.965  11.799 -0.1854  0.2134 -2.5524
19104SOL     OW58752   1.096   2.695   7.556  0.3961  0.1128 -0.3139
19104SOL    HW158753   1.136   2.693   7.643 -0.1026 -0.0073 -0.0890
19104SOL    HW258754   1.029   2.627   7.559 -2.1445  2.4849  0.4172
19105SOL     OW58755   0.910   6.997   8.506  0.9358  0.1174 -0.6391
19105SOL    HW158756   0.857   7.029   8.433  2.5996  1.2213 -1.4127
19105SOL    HW258757   0.978   6.944   8.465  0.1905 -1.7790  0.3882
19106SOL     OW58758   1.926   1.348  11.192 -0.4416  0.3281 -0.4204
19106SOL    HW158759   1.935   1.441  11.172  0.3070  0.8056  1.8477
19106SOL    HW258760   1.842   1.341  11.237 -0.7993 -0.2302 -1.1476
19107SOL     OW58761   0.801   5.178   0.163 -0.2008 -0.2885 -0.0358
19107SOL    HW158762   0.829   5.087   0.173  0.1009 -0.0545  1.5492
19107SOL    HW258763   0.811   5.216   0.251 -1.1140  1.0509 -0.4757
19108SOL     OW58764   7.308   1.655   2.514 -0.6412 -0.2220  0.1643
19108SOL    HW158765   7.220   1.685   2.538 -2.0210  0.1008 -4.3316
19108SOL    HW258766   7.298   1.561   2.499  0.4734 -0.6613  1.9288
19109SOL     OW58767   7.386   4.538   3.775  0.0468  0.2330 -0.2801
19109SOL    HW158768   7.335   4.615   3.749  0.6557  0.4047 -1.0090
19109SOL    HW258769   7.426   4.562   3.858 -1.0752  0.0826  0.3262
19110SOL     OW58770   2.359   3.943   6.189  0.0204 -0.3679 -0.1142
19110SOL    HW158771   2.353   3.937   6.094 -0.4254 -3.3259  0.0058
19110SOL    HW258772   2.452   3.952   6.208  0.0376  1.3182 -0.7908
19111SOL     OW58773   1.543   5.292   5.250 -0.5535  0.0258  0.0899
19111SOL    HW158774   1.536   5.220   5.187  0.8056  0.0351 -0.1154
19111SOL    HW258775   1.627   5.333   5.229  0.2643 -0.3712  2.3165
19112SOL     OW58776   5.419   7.189   0.725  0.6628 -0.0438 -0.0977
19112SOL    HW158777   5.443   7.102   0.691  0.2479  0.1270 -0.8430
19112SOL    HW258778   5.336   7.175   0.771  0.1884  0.0925 -0.8899
19113SOL     OW58779   4.065   2.903   5.721 -0.0600 -0.3032 -0.7187
19113SOL    HW158780   4.036   2.840   5.787 -0.5295 -1.3684 -1.8930
19113SOL    HW258781   4.161   2.905   5.729 -0.1134 -0.4497 -0.0463
19114SOL     OW58782   7.950   5.730   2.002  0.5049 -0.0436  0.2517
19114SOL    HW158783   7.983   5.663   2.062 -0.7148 -1.7758 -0.9147
19114SOL    HW258784   7.976   5.813   2.042  1.3865 -1.1778  2.1671
19115SOL     OW58785   6.565   7.331   0.031  0.2572  0.7022 -0.0388
19115SOL    HW158786   6.634   7.332   0.096 -1.2556  1.1673  1.6350
19115SOL    HW258787   6.535   7.240   0.029 -0.1113  0.8067  0.4130
19116SOL     OW58788   5.870   6.479   4.892  0.4002 -0.2023 -0.0129
19116SOL    HW158789   5.803   6.454   4.827  0.5433  2.3411 -1.2354
19116SOL    HW258790   5.952   6.448   4.854  0.4448  0.9820 -0.9226
19117SOL     OW58791   0.550   5.000  11.570  0.3265  0.4135  0.2467
19117SOL    HW158792   0.612   4.948  11.518  1.1325  0.9572  0.6366
19117SOL    HW258793   0.542   4.953  11.652  1.7607  1.3168  0.9572
19118SOL     OW58794   6.664   3.889   3.031 -0.4115  0.4404 -0.1760
19118SOL    HW158795   6.694   3.807   3.070  2.3687  0.8772 -1.1778
19118SOL    HW258796   6.613   3.863   2.955  1.4439 -0.4413 -1.1847
19119SOL     OW58797   6.807   0.181   6.079 -0.0052 -0.7273  0.1902
19119SOL    HW158798   6.843   0.117   6.018  0.2681  0.0068 -0.4416
19119SOL    HW258799   6.717   0.195   6.050 -0.1621 -1.0329  0.5124
19120SOL     OW58800   5.354   0.141   3.008  0.0305 -0.2833  0.1940
19120SOL    HW158801   5.326   0.121   2.918 -0.4797  1.0845  0.0198
19120SOL    HW258802   5.414   0.215   2.998 -0.9314  0.6411  1.0572
19121SOL     OW58803   5.192   2.680   1.071 -0.2424 -0.1605 -0.2796
19121SOL    HW158804   5.231   2.633   1.144 -2.5504  1.3252  2.1079
19121SOL    HW258805   5.170   2.612   1.007  0.4456 -1.7328  1.0822
19122SOL     OW58806   4.513   5.714   7.486  0.0409 -0.5627  0.5286
19122SOL    HW158807   4.474   5.626   7.481 -0.5836 -0.2199 -2.1484
19122SOL    HW258808   4.516   5.744   7.395  4.2660  0.4833  0.8207
19123SOL     OW58809   2.518   0.603   3.568  0.2336 -0.7540 -0.4860
19123SOL    HW158810   2.583   0.547   3.526  0.2487 -0.2816 -1.1153
19123SOL    HW258811   2.437   0.551   3.565  0.5598 -1.3169  0.2457
19124SOL     OW58812   3.212   1.085   1.628  0.1915 -0.8043 -0.1135
19124SOL    HW158813   3.126   1.061   1.662 -0.5032  1.5521 -0.0432
19124SOL    HW258814   3.212   1.056   1.537 -0.3297 -1.5857  0.1319
19125SOL     OW58815   1.063   6.559   8.404 -0.0460  0.5561 -0.3808
19125SOL    HW158816   1.055   6.546   8.499 -0.1844 -0.7751 -0.5651
19125SOL    HW258817   1.113   6.484   8.373 -0.8260  0.4777 -1.4981
19126SOL     OW58818   7.887   3.185   2.431 -0.0178  0.0340 -0.1904
19126SOL    HW158819   7.928   3.229   2.356  0.6548 -0.2593 -0.0021
19126SOL    HW258820   7.800   3.225   2.437  0.7681  1.8041  0.3402
19127SOL     OW58821   2.340   7.606  10.345 -0.5147 -0.4201 -0.6348
19127SOL    HW158822   2.300   7.672  10.402 -1.9195 -0.4602 -1.5410
19127SOL    HW258823   2.293   7.613  10.262 -0.5052 -2.3596 -0.8489
19128SOL     OW58824   6.387   7.002   7.239 -0.2164  0.0411 -0.0267
19128SOL    HW158825   6.436   7.010   7.157 -0.5220  1.2807 -0.1070
19128SOL    HW258826   6.295   6.999   7.213 -0.2689 -0.9961  0.2068
19129SOL     OW58827   4.612   5.328   7.217  0.6028 -0.1179  0.1148
19129SOL    HW158828   4.568   5.250   7.250  0.2914  0.2032  0.4663
19129SOL    HW258829   4.665   5.296   7.144 -0.6572 -0.4308 -0.7135
19130SOL     OW58830   1.756   7.935  12.287  0.3681 -0.3337 -0.1455
19130SOL    HW158831   1.778   7.969  12.374 -2.0918  1.4583 -0.0949
19130SOL    HW258832   1.840   7.929  12.242  1.4505  1.5419  1.4169
19131SOL     OW58833   5.957   4.627   2.584 -0.0695  0.2087  0.2869
19131SOL    HW158834   6.044   4.665   2.574 -0.3907  1.5349  2.0417
19131SOL    HW258835   5.925   4.615   2.494  2.2758 -1.2960 -0.4414
19132SOL     OW58836   3.590   3.311   9.368  0.3311  0.0499 -0.4820
19132SOL    HW158837   3.665   3.367   9.388 -1.3019  1.9204  0.6585
19132SOL    HW258838   3.541   3.305   9.450 -2.0881  0.9559 -1.7639
19133SOL     OW58839   4.771   1.720   8.013 -0.3187  0.3214  0.3301
19133SOL    HW158840   4.857   1.757   7.996  0.8040 -1.8710  0.8825
19133SOL    HW258841   4.711   1.775   7.962  1.8549 -0.5752 -3.6211
19134SOL     OW58842   4.210   0.529  10.233 -0.0077 -0.0706 -0.3984
19134SOL    HW158843   4.286   0.580  10.263 -0.4715 -0.0054  0.7438
19134SOL    HW258844   4.147   0.536  10.305 -0.7561 -0.8459 -0.9552
19135SOL     OW58845   1.241   4.414   9.456  0.2823 -0.2326 -0.5411
19135SOL    HW158846   1.297   4.361   9.511  0.7485  0.5064 -0.2867
19135SOL    HW258847   1.196   4.473   9.517 -2.1057 -1.9216 -0.5191
19136SOL     OW58848   4.653   7.674  10.706  0.3387 -0.3392  0.1295
19136SOL    HW158849   4.736   7.720  10.695 -0.1101  0.3789 -0.3364
19136SOL    HW258850   4.605   7.726  10.771  0.6866 -1.3746  1.2520
19137SOL     OW58851   4.486   2.982  12.249  0.1804  0.1865  0.7386
19137SOL    HW158852   4.530   3.032  12.317  0.0333  0.5687  0.5539
19137SOL    HW258853   4.547   2.983  12.175 -0.7634  2.0442 -0.0708
19138SOL     OW58854   1.082   0.926   5.494  0.0613 -0.0915  0.0455
19138SOL    HW158855   1.102   0.930   5.400 -1.0043  0.0066 -0.1870
19138SOL    HW258856   1.039   1.009   5.513  1.5950  0.5328  0.9666
19139SOL     OW58857   2.521   1.648  12.378 -0.2074 -0.5668  0.1577
19139SOL    HW158858   2.506   1.696  12.296  2.0882  0.7367  0.4181
19139SOL    HW258859   2.445   1.670  12.433 -0.7871  0.1607 -0.8989
19140SOL     OW58860   1.227   3.986  10.252 -0.0041 -0.1051 -0.1088
19140SOL    HW158861   1.276   3.998  10.171  1.1480  0.4542  0.6335
19140SOL    HW258862   1.269   3.912  10.296 -0.2974 -0.0865  0.2138
19141SOL     OW58863   5.876   3.108  10.042  0.0941  0.1105  0.2982
19141SOL    HW158864   5.921   3.041   9.991 -0.3712  1.0894 -1.4998
19141SOL    HW258865   5.888   3.082  10.133  0.4180 -2.0776 -0.3154
19142SOL     OW58866   7.694   0.473   8.460 -0.2656 -0.1245  0.2273
19142SOL    HW158867   7.753   0.547   8.471 -2.3352  1.8709 -1.1780
19142SOL    HW258868   7.643   0.470   8.541  0.0219 -0.2114  0.4063
19143SOL     OW58869   1.451   0.966   4.726  0.1029  0.3757  0.2383
19143SOL    HW158870   1.435   1.047   4.678  0.1166  0.3069  0.1170
19143SOL    HW258871   1.439   0.897   4.661 -0.9901  0.2167  0.5974
19144SOL     OW58872   0.400   6.121   6.767  0.2762 -0.3003  0.3764
19144SOL    HW158873   0.346   6.197   6.748  0.6878  0.3683  1.7286
19144SOL    HW258874   0.398   6.069   6.687 -0.0340  1.1118 -0.5642
19145SOL     OW58875   2.147   5.419  10.672 -0.8512  0.3397 -0.3464
19145SOL    HW158876   2.130   5.325  10.679 -1.6536  0.4615 -0.4846
19145SOL    HW258877   2.239   5.426  10.646  0.2347 -0.3285  2.8922
19146SOL     OW58878   0.225   2.297   7.713  0.5197  0.1291  0.5129
19146SOL    HW158879   0.186   2.369   7.762  0.6454 -0.8922  2.2057
19146SOL    HW258880   0.264   2.240   7.780  1.6952 -0.7712 -0.8673
19147SOL     OW58881   4.992   2.326   5.396 -0.1127  0.1423 -0.5866
19147SOL    HW158882   4.960   2.370   5.475  0.0881  0.0435 -0.4496
19147SOL    HW258883   5.087   2.341   5.397  0.0287 -0.7404 -0.2573
19148SOL     OW58884   2.570   3.628   6.387  0.1805  0.0347 -0.2314
19148SOL    HW158885   2.482   3.617   6.351  0.0556 -0.8089  0.2897
19148SOL    HW258886   2.626   3.580   6.325  0.2092  0.1685 -0.3085
19149SOL     OW58887   3.830   6.024   2.207 -0.4657  0.1090  0.0556
19149SOL    HW158888   3.753   6.079   2.196 -1.8344 -1.8768 -0.7817
19149SOL    HW258889   3.824   5.992   2.298  0.7547  1.8694  0.8047
19150SOL     OW58890   0.997   5.851   6.689 -0.2171 -0.3370 -0.3120
19150SOL    HW158891   1.079   5.900   6.696  1.1484 -2.1560 -2.2015
19150SOL    HW258892   0.946   5.879   6.765  1.2167  2.4986 -0.2348
19151SOL     OW58893   2.843   2.551   8.243  0.3199 -0.5972 -0.2251
19151SOL    HW158894   2.836   2.589   8.155  0.9458 -3.1121 -1.4541
19151SOL    HW258895   2.881   2.621   8.296 -0.6452  1.2043 -1.7678
19152SOL     OW58896   2.341   4.714  10.480  0.1625 -0.3936  0.1235
19152SOL    HW158897   2.433   4.696  10.461  0.6811  2.1006 -0.0468
19152SOL    HW258898   2.343   4.778  10.552 -1.5126 -1.7106  1.4173
19153SOL     OW58899   5.790   7.872   8.342  0.6538 -0.7309  0.2451
19153SOL    HW158900   5.802   7.806   8.410  0.5236 -0.4688  0.5243
19153SOL    HW258901   5.878   7.900   8.318  0.6802 -0.4405  0.6822
19154SOL     OW58902   5.334   2.191   7.038 -0.1455  0.3247 -0.5695
19154SOL    HW158903   5.339   2.147   7.124 -0.3913  0.6558 -0.3831
19154SOL    HW258904   5.354   2.283   7.057  0.9517  0.1965 -1.0496
19155SOL     OW58905   2.802   1.531  12.086 -0.3468 -0.5768 -0.2419
19155SOL    HW158906   2.836   1.618  12.106 -0.3541 -0.4176 -0.8930
19155SOL    HW258907   2.880   1.475  12.086 -0.3853 -0.6384  0.5163
19156SOL     OW58908   0.772   1.618   8.005  0.0282 -0.2779 -0.2191
19156SOL    HW158909   0.679   1.639   8.012  0.3270  1.3069 -0.5952
19156SOL    HW258910   0.781   1.577   7.918 -0.4140 -1.1625  0.1330
19157SOL     OW58911   6.287   6.905   4.344  0.3500  0.3675  0.0885
19157SOL    HW158912   6.193   6.922   4.341  0.3854  1.0332  1.7749
19157SOL    HW258913   6.328   6.987   4.318  0.4668  0.4608  0.5579
19158SOL     OW58914   0.212   7.297   0.049  0.2712  0.0633  0.5525
19158SOL    HW158915   0.233   7.234   0.117  4.6902  0.0833 -0.5052
19158SOL    HW258916   0.284   7.360   0.051 -1.5622  2.4537 -1.4649
19159SOL     OW58917   0.460   7.648   8.268 -0.0463  0.4898  0.0839
19159SOL    HW158918   0.443   7.587   8.340  0.4946  0.0167 -0.1700
19159SOL    HW258919   0.554   7.668   8.276 -0.1008  0.8565 -0.1688
19160SOL     OW58920   2.953   2.954   8.935  0.4634 -0.2308  0.2303
19160SOL    HW158921   2.878   2.898   8.915  0.7470 -0.5295  0.0010
19160SOL    HW258922   2.917   3.022   8.993  0.4150 -1.4956  1.7505
19161SOL     OW58923   5.057   6.768   5.565  0.2558 -0.0636 -0.5221
19161SOL    HW158924   4.977   6.739   5.523  0.6332 -0.0145 -1.2876
19161SOL    HW258925   5.102   6.820   5.499  0.0302  1.5212  0.5177
19162SOL     OW58926   6.033   6.632  11.710 -0.0521  0.2899 -0.0323
19162SOL    HW158927   5.981   6.711  11.699  1.8868  1.4734 -1.3265
19162SOL    HW258928   6.069   6.637  11.798  1.2695  1.7094 -0.5973
19163SOL     OW58929   4.357   5.500   9.791  0.2270 -0.2562  0.5825
19163SOL    HW158930   4.352   5.593   9.809  1.2591  0.1378 -0.9819
19163SOL    HW258931   4.366   5.494   9.696  0.7184 -1.9166  0.6956
19164SOL     OW58932   3.012   5.243   8.221 -0.0812  0.1146 -0.0269
19164SOL    HW158933   2.940   5.303   8.202  0.3782  0.7117  0.0845
19164SOL    HW258934   2.970   5.158   8.231 -0.8912  0.6017  0.9194
19165SOL     OW58935   2.957   1.138   0.905 -0.3502 -0.8407  0.6883
19165SOL    HW158936   3.048   1.128   0.932 -0.2584 -0.5526  0.4908
19165SOL    HW258937   2.930   1.051   0.877 -0.1447 -0.9335  0.7787
19166SOL     OW58938   0.966   0.934   9.142 -0.8886 -0.0560  0.3562
19166SOL    HW158939   1.001   0.933   9.053 -0.5097  1.7467  0.4539
19166SOL    HW258940   1.041   0.955   9.197 -1.1297 -1.1378  1.1192
19167SOL     OW58941   6.041   2.675   5.254  0.2179 -0.0539 -0.0719
19167SOL    HW158942   5.981   2.733   5.301  0.1974 -0.4911  0.4598
19167SOL    HW258943   6.023   2.588   5.290 -0.2136 -0.5085 -1.3222
19168SOL     OW58944   0.199   0.773   2.914 -0.4720 -0.0726  0.1188
19168SOL    HW158945   0.240   0.719   2.845 -1.7553 -1.9413  0.7492
19168SOL    HW258946   0.266   0.838   2.936  0.8385 -0.8795 -1.2714
19169SOL     OW58947   4.893   5.044   1.515 -0.1427 -0.0261  0.2326
19169SOL    HW158948   4.954   4.993   1.568  2.5682  0.0965 -2.4620
19169SOL    HW258949   4.845   4.979   1.464  0.4835 -0.0255 -0.3668
19170SOL     OW58950   6.037   4.859  10.729  0.0508 -0.2996  0.2406
19170SOL    HW158951   5.955   4.907  10.716  0.4828  0.4723  0.2917
19170SOL    HW258952   6.104   4.915  10.688  0.4335 -1.3746 -0.6632
19171SOL     OW58953   0.952   5.255   7.814 -0.3308  0.2584 -0.1998
19171SOL    HW158954   1.013   5.206   7.869 -0.4015 -0.5118 -0.7888
19171SOL    HW258955   0.919   5.325   7.870  0.1987 -0.0320  0.4839
19172SOL     OW58956   6.268   1.874  12.160 -0.6019 -0.3048 -0.4374
19172SOL    HW158957   6.255   1.809  12.090 -0.4092  0.2887 -1.0312
19172SOL    HW258958   6.183   1.876  12.206 -1.9229  1.7270 -2.7386
19173SOL     OW58959   2.020   6.686   4.123  0.0869 -0.5104 -0.3140
19173SOL    HW158960   2.071   6.608   4.105  0.0202 -0.2736 -1.6403
19173SOL    HW258961   2.055   6.752   4.064 -1.9749 -0.4561 -1.5594
19174SOL     OW58962   3.784   2.948   7.993 -0.4244 -0.1753 -0.2498
19174SOL    HW158963   3.863   2.986   8.032 -0.5011  0.5573 -0.7870
19174SOL    HW258964   3.747   2.893   8.062  0.4852 -0.4306  0.0506
19175SOL     OW58965   0.300   2.520   7.381  0.4188  0.1661  0.1439
19175SOL    HW158966   0.220   2.505   7.331  1.8138  0.7485 -2.4978
19175SOL    HW258967   0.278   2.589   7.443 -0.7002  1.7552 -1.8811
19176SOL     OW58968   6.731   0.817   4.537 -0.7244  0.5553  0.0552
19176SOL    HW158969   6.815   0.796   4.495 -0.9484  0.5595 -0.3987
19176SOL    HW258970   6.735   0.773   4.622  1.0291  3.0336  1.3976
19177SOL     OW58971   4.927   7.246   1.829 -0.5446 -0.3362 -0.1763
19177SOL    HW158972   4.862   7.177   1.835 -1.8021  0.7536 -0.7001
19177SOL    HW258973   4.996   7.209   1.773 -1.1176 -1.2156 -0.3194
19178SOL     OW58974   6.165   6.010   9.363  0.3785  0.6655  0.4350
19178SOL    HW158975   6.258   6.020   9.341  0.2174  0.5655 -0.3289
19178SOL    HW258976   6.121   6.078   9.311 -0.1670 -0.5045 -0.6887
19179SOL     OW58977   5.070   4.963   7.931  0.6384 -0.4780 -0.2382
19179SOL    HW158978   5.012   5.012   7.872  0.4971  0.3605  0.5708
19179SOL    HW258979   5.118   4.904   7.874  0.1465 -0.0303 -1.1337
19180SOL     OW58980   2.184   4.468   3.620 -0.2269 -0.1606 -0.1300
19180SOL    HW158981   2.264   4.477   3.568  1.5258 -0.1304  2.3805
19180SOL    HW258982   2.146   4.557   3.621  0.3150  0.0769 -0.4398
19181SOL     OW58983   7.549   6.874   6.069  0.4572 -0.0935 -0.7230
19181SOL    HW158984   7.559   6.887   5.974  0.4639  0.7947 -0.6053
19181SOL    HW258985   7.533   6.780   6.078 -0.4189 -0.0523 -1.6743
19182SOL     OW58986   2.595   5.590   1.007  0.7480 -0.0974  0.3198
19182SOL    HW158987   2.595   5.677   1.047 -0.0241  0.5982 -1.1459
19182SOL    HW258988   2.663   5.595   0.939 -0.3910 -0.0999 -0.8498
19183SOL     OW58989   6.217   2.957   4.459 -0.2797 -0.5237  0.2138
19183SOL    HW158990   6.130   2.940   4.422 -0.0017 -0.0132 -0.7154
19183SOL    HW258991   6.274   2.964   4.382  0.4122  0.0793  0.7725
19184SOL     OW58992   2.842   0.116   1.741  0.7453  0.1104 -0.0048
19184SOL    HW158993   2.843   0.054   1.814  4.2611  1.7867  1.6028
19184SOL    HW258994   2.917   0.092   1.687 -0.2077  0.5718 -1.6192
19185SOL     OW58995   5.007   6.808   7.726 -0.7364 -0.2585  0.0721
19185SOL    HW158996   5.032   6.818   7.634 -0.2515 -2.0385 -0.0265
19185SOL    HW258997   5.087   6.827   7.775 -0.9727  0.6046  0.1359
19186SOL     OW58998   5.737   7.443   2.817 -0.0539  0.1160 -0.7122
19186SOL    HW158999   5.785   7.488   2.887 -0.3503 -1.0930  0.3094
19186SOL    HW259000   5.645   7.465   2.833 -0.1721 -0.5663 -0.3875
19187SOL     OW59001   0.929   4.525   8.989 -0.0250 -0.3420  0.0468
19187SOL    HW159002   0.952   4.438   8.956 -0.2575 -0.4636  0.1946
19187SOL    HW259003   0.891   4.508   9.075 -0.1783 -0.1046  0.0264
19188SOL     OW59004   3.421   5.758   2.716  0.3783 -0.2745  0.1551
19188SOL    HW159005   3.479   5.833   2.701  0.9794 -0.5627  0.9429
19188SOL    HW259006   3.479   5.682   2.715 -0.0567 -0.6189  0.4746
19189SOL     OW59007   4.874   4.584  10.454  0.1519 -0.6026 -0.5001
19189SOL    HW159008   4.912   4.669  10.434  0.8394 -0.6123  0.6352
19189SOL    HW259009   4.890   4.531  10.376  2.2216 -0.4989 -0.1934
19190SOL     OW59010   3.429   4.116   8.283 -0.2155 -0.4072  0.0171
19190SOL    HW159011   3.497   4.071   8.233 -0.4050 -0.3794 -0.2702
19190SOL    HW259012   3.347   4.089   8.242 -0.3619 -0.2048  0.1711
19191SOL     OW59013   5.259   6.893   2.724  0.1899  0.4774 -0.7517
19191SOL    HW159014   5.254   6.927   2.813 -0.1240  0.4989 -0.7762
19191SOL    HW259015   5.254   6.798   2.734 -0.8742  0.5189 -0.8118
19192SOL     OW59016   7.738   1.548   2.832  1.0072 -0.2236 -0.6928
19192SOL    HW159017   7.823   1.544   2.789 -0.2179 -0.4749 -3.2539
19192SOL    HW259018   7.677   1.575   2.764 -0.7450  1.7894  1.4905
19193SOL     OW59019   4.086   1.089   4.984 -0.0940 -0.0582 -0.6732
19193SOL    HW159020   4.101   1.171   4.938  0.2403 -0.5036 -1.3833
19193SOL    HW259021   4.021   1.043   4.930  0.4060 -0.6461 -0.7939
19194SOL     OW59022   1.370   0.496   4.465 -0.3202  0.1872  0.0633
19194SOL    HW159023   1.351   0.405   4.441 -1.8874  0.1401  1.2746
19194SOL    HW259024   1.378   0.495   4.560  0.8406  1.1401 -0.0039
19195SOL     OW59025   2.613   6.020   2.604  0.0279 -0.1241  0.2935
19195SOL    HW159026   2.624   6.089   2.539 -2.0159 -0.5365 -0.5566
19195SOL    HW259027   2.692   5.966   2.596 -0.6670 -0.8476 -2.7207
19196SOL     OW59028   3.266   2.141  10.236 -0.9380 -0.4065  0.3008
19196SOL    HW159029   3.266   2.050  10.264  0.3978 -1.3343 -2.3199
19196SOL    HW259030   3.355   2.157  10.206 -1.4549  1.3503 -0.4283
19197SOL     OW59031   0.079   2.813  10.845 -0.0154  0.0466 -0.2897
19197SOL    HW159032   0.090   2.757  10.768 -0.3483 -0.5879  0.1180
19197SOL    HW259033  -0.011   2.847  10.837 -0.5212 -1.0489  0.4745
19198SOL     OW59034   4.979   3.980   3.681 -0.1678  0.2270  0.1304
19198SOL    HW159035   5.015   3.996   3.769 -1.2004  0.6253  0.4937
19198SOL    HW259036   5.047   3.929   3.637 -0.2141 -1.2551  1.6498
19199SOL     OW59037   4.404   0.718  11.128  0.3314 -0.2747  0.0593
19199SOL    HW159038   4.325   0.727  11.074  0.0723  0.2073  0.5024
19199SOL    HW259039   4.449   0.802  11.118 -0.3741  0.3296  1.5842
19200SOL     OW59040   1.446   4.346   1.802 -0.2876 -0.1065  0.3526
19200SOL    HW159041   1.401   4.403   1.740  0.7345 -0.2100 -0.5058
19200SOL    HW259042   1.425   4.257   1.773  1.4804 -0.1755 -0.8714
19201SOL     OW59043   4.779   3.192   0.456 -0.0685  0.4962 -0.1821
19201SOL    HW159044   4.766   3.144   0.537  2.3634  2.1951  1.3197
19201SOL    HW259045   4.866   3.230   0.463  0.0151  1.2093 -3.3587
19202SOL     OW59046   2.728   5.929   4.407 -0.2329 -0.1863  0.0194
19202SOL    HW159047   2.665   5.988   4.365 -0.9439 -0.2753  0.9107
19202SOL    HW259048   2.799   5.987   4.436  0.5772 -0.2043 -1.7941
19203SOL     OW59049   1.086   2.104  12.015  0.1507 -0.1194 -0.1183
19203SOL    HW159050   1.072   2.010  12.028 -0.7087 -0.0158 -0.2044
19203SOL    HW259051   1.091   2.140  12.103  1.2117 -0.3416 -0.0821
19204SOL     OW59052   5.634   5.593   4.357  0.0967  0.2196 -0.7176
19204SOL    HW159053   5.672   5.505   4.349 -1.7066 -0.5631 -1.1809
19204SOL    HW259054   5.688   5.648   4.300  0.9479 -0.6989 -0.8207
19205SOL     OW59055   2.843   1.441   8.767  0.4316 -0.1863 -0.8083
19205SOL    HW159056   2.777   1.459   8.834  0.5777 -3.1040  0.2439
19205SOL    HW259057   2.926   1.468   8.807  0.6169 -2.6017  0.6300
19206SOL     OW59058   4.578   6.692  10.580  0.3569 -0.1351 -0.3066
19206SOL    HW159059   4.671   6.690  10.557  0.9516 -2.9107  1.7351
19206SOL    HW259060   4.569   6.765  10.641  0.7946  1.1311 -1.6951
19207SOL     OW59061   6.203   4.570   3.715 -0.5347  0.2662  0.1983
19207SOL    HW159062   6.175   4.495   3.662  0.2947 -0.4018  0.6905
19207SOL    HW259063   6.186   4.544   3.805  1.1600  0.0365  0.4839
19208SOL     OW59064   3.638   2.441   9.005  0.0570 -0.2614  0.6604
19208SOL    HW159065   3.727   2.410   8.993  0.3125  0.3831  0.8342
19208SOL    HW259066   3.644   2.505   9.076 -0.6834 -0.8026  1.2374
19209SOL     OW59067   3.796   1.510  10.434 -0.5012  0.5154 -0.6758
19209SOL    HW159068   3.723   1.529  10.376 -0.9684  2.6145  0.5203
19209SOL    HW259069   3.862   1.575  10.411  0.7590 -0.8765 -1.2175
19210SOL     OW59070   3.168   3.208   0.196  0.4374  0.4210  0.6145
19210SOL    HW159071   3.173   3.261   0.117  0.9104  0.6655  0.8050
19210SOL    HW259072   3.076   3.212   0.222  0.4060  0.8797  0.4432
19211SOL     OW59073   5.546   7.823   7.362 -0.0743  0.2104  0.6023
19211SOL    HW159074   5.454   7.848   7.368  0.1195  0.8123  1.2291
19211SOL    HW259075   5.583   7.848   7.447  0.9262  1.0574 -0.0557
19212SOL     OW59076   2.990   1.275   9.103  0.3248 -0.5060  0.2933
19212SOL    HW159077   2.979   1.302   9.012  1.5119 -1.3145 -0.1173
19212SOL    HW259078   3.055   1.335   9.139  2.7176 -2.4367 -0.5270
19213SOL     OW59079   7.332   7.336   5.995  0.4923 -0.6125  0.4766
19213SOL    HW159080   7.257   7.299   6.043 -1.4533  0.9444 -1.1857
19213SOL    HW259081   7.338   7.283   5.916 -0.0648  0.3918 -0.2575
19214SOL     OW59082   0.014   2.471   1.979  0.4270 -0.7181 -0.2726
19214SOL    HW159083   0.083   2.469   1.913  1.6978  0.0978  0.9582
19214SOL    HW259084  -0.053   2.529   1.944  0.3526 -1.5116 -1.4856
19215SOL     OW59085   7.452   3.231   4.478 -0.5576 -0.0265 -0.1154
19215SOL    HW159086   7.501   3.213   4.558 -2.3029 -2.6297  0.4878
19215SOL    HW259087   7.519   3.252   4.413  0.9357  1.6292  1.8251
19216SOL     OW59088   2.669   3.650   4.701  0.0266 -0.6793  0.2802
19216SOL    HW159089   2.620   3.729   4.680  0.4908 -0.9661 -2.1699
19216SOL    HW259090   2.607   3.578   4.688  0.8437 -1.0069 -2.3606
19217SOL     OW59091   5.791   6.252  11.826  0.0739 -0.2661 -0.0156
19217SOL    HW159092   5.786   6.346  11.809 -2.0931 -0.4090 -0.4540
19217SOL    HW259093   5.756   6.211  11.746 -0.5157 -1.3628  0.7689
19218SOL     OW59094   0.365   6.288   0.054 -0.3733  0.2910 -0.1243
19218SOL    HW159095   0.448   6.240   0.048 -0.1723  0.0125  3.0502
19218SOL    HW259096   0.298   6.221   0.051 -0.2568  0.1071  0.9246
19219SOL     OW59097   2.384   7.353   2.751 -0.2761  0.1825  0.2817
19219SOL    HW159098   2.382   7.427   2.812 -1.4977 -0.3825  0.9721
19219SOL    HW259099   2.352   7.390   2.668 -1.3186  0.3431  0.7399
19220SOL     OW59100   3.202   5.034  11.564  0.0141 -0.1465 -0.0001
19220SOL    HW159101   3.113   5.002  11.579  0.2196 -0.5818  0.3486
19220SOL    HW259102   3.256   4.982  11.624  0.5446 -0.1337 -0.4556
19221SOL     OW59103   0.250   3.772   6.704 -0.4624  0.3643  0.1943
19221SOL    HW159104   0.159   3.773   6.676 -0.1600  1.2293 -0.8405
19221SOL    HW259105   0.280   3.862   6.691  0.5362  0.0900  0.5235
19222SOL     OW59106   7.962   7.114   4.327 -0.1738 -0.2831 -0.4936
19222SOL    HW159107   7.965   7.110   4.231 -0.7616 -0.1234 -0.5254
19222SOL    HW259108   7.872   7.089   4.349 -0.7504  1.8584 -0.1312
19223SOL     OW59109   6.858   4.616   1.970 -0.2464  0.3598  0.1315
19223SOL    HW159110   6.892   4.703   1.947  1.3275 -0.0729  0.6645
19223SOL    HW259111   6.778   4.633   2.019 -0.0501  1.4995  0.0780
19224SOL     OW59112   4.760   7.712   8.300  0.5620 -0.1822 -0.4586
19224SOL    HW159113   4.773   7.731   8.207  0.4799 -0.9208 -0.6265
19224SOL    HW259114   4.839   7.745   8.343 -0.3110  2.1324 -0.4879
19225SOL     OW59115   0.259   4.498   6.700  0.1014 -0.5259 -0.5495
19225SOL    HW159116   0.188   4.555   6.672  0.5353  0.3065  0.0285
19225SOL    HW259117   0.260   4.428   6.635 -1.1827 -0.5036 -0.6180
19226SOL     OW59118   3.077   0.038   8.635  0.2051 -0.0999 -0.1442
19226SOL    HW159119   2.994   0.025   8.589  0.0164 -0.2672  0.2385
19226SOL    HW259120   3.075   0.130   8.661  0.6084  0.1680 -1.0407
19227SOL     OW59121   1.287   5.010  11.671  0.2962 -0.3820 -0.4419
19227SOL    HW159122   1.326   5.014  11.759  1.9690  0.9914 -1.1822
19227SOL    HW259123   1.321   5.088  11.626  0.4371 -1.6365 -2.6735
19228SOL     OW59124   1.671   6.291   7.937 -0.1930  0.0245 -0.5248
19228SOL    HW159125   1.729   6.316   7.865 -0.9494 -0.0762 -1.1882
19228SOL    HW259126   1.590   6.263   7.894 -0.5324 -0.3905  0.3554
19229SOL     OW59127   4.946   4.098   4.391 -0.0843  0.1231 -0.1745
19229SOL    HW159128   4.964   4.008   4.416  1.1706  0.3113 -0.3751
19229SOL    HW259129   4.932   4.144   4.475  0.5132  0.0058 -0.0118
19230SOL     OW59130   3.606   6.384  11.455  0.0769 -0.3439 -0.0871
19230SOL    HW159131   3.648   6.298  11.452  0.5802 -0.0682 -1.7894
19230SOL    HW259132   3.675   6.446  11.431 -0.9986  0.2165 -1.9525
19231SOL     OW59133   5.110   0.044  12.082  0.3583 -0.5999 -0.2589
19231SOL    HW159134   5.084  -0.028  12.025 -0.8567 -0.3437 -0.0595
19231SOL    HW259135   5.191   0.015  12.123  0.5992 -1.2866 -1.1958
19232SOL     OW59136   5.289   1.319   3.647 -0.6468  0.3042 -0.1131
19232SOL    HW159137   5.298   1.312   3.552 -0.0229  1.1767 -0.1332
19232SOL    HW259138   5.351   1.256   3.682 -0.7905  0.0673 -0.2830
19233SOL     OW59139   6.067   2.608   0.119  0.0788  0.3944 -0.7047
19233SOL    HW159140   6.059   2.655   0.203  0.5170  0.7610 -0.8640
19233SOL    HW259141   6.019   2.526   0.133 -0.8046  0.9339 -0.4591
19234SOL     OW59142   0.270   1.942   8.699 -0.5135  0.3067  0.7328
19234SOL    HW159143   0.282   1.853   8.731 -3.3633 -0.4311  0.0018
19234SOL    HW259144   0.199   1.977   8.753  0.7029  2.2710  1.1644
19235SOL     OW59145   3.729   5.041   3.449  0.2201 -0.1918  0.6654
19235SOL    HW159146   3.669   4.970   3.430  2.4683 -1.7506 -1.1510
19235SOL    HW259147   3.810   5.017   3.405  1.6965  2.5958  1.5835
19236SOL     OW59148   1.525   0.292   7.769  0.3119  0.1626 -0.2017
19236SOL    HW159149   1.512   0.223   7.704 -1.0909  0.0746  0.1351
19236SOL    HW259150   1.617   0.317   7.759  0.3428 -0.4025 -1.6547
19237SOL     OW59151   6.171   6.051   7.130  0.0880 -0.0528 -0.6435
19237SOL    HW159152   6.083   6.032   7.160  0.6433  0.4177  1.4199
19237SOL    HW259153   6.213   5.966   7.122 -0.6617 -0.3157 -2.1291
19238SOL     OW59154   1.797   3.911  10.512 -0.3306  0.0711  0.0821
19238SOL    HW159155   1.893   3.916  10.504 -0.5499  2.5473 -2.6170
19238SOL    HW259156   1.774   3.984  10.569 -0.6889  1.6756 -1.9577
19239SOL     OW59157   3.398   6.622   2.437  0.1133 -0.2925 -0.5089
19239SOL    HW159158   3.317   6.669   2.419  1.1696  1.7761 -0.1798
19239SOL    HW259159   3.384   6.578   2.521 -1.1846 -1.3226 -1.2247
19240SOL     OW59160   0.085   4.833   9.656  0.1988 -0.8338  0.1796
19240SOL    HW159161   0.069   4.818   9.563 -1.3922  0.8119  0.1264
19240SOL    HW259162   0.034   4.765   9.700 -0.3581 -0.6316 -0.1391
19241SOL     OW59163   7.552   6.029  11.623 -1.0883 -0.0726  0.3250
19241SOL    HW159164   7.548   5.998  11.714  0.2122  0.8613  0.7320
19241SOL    HW259165   7.611   6.104  11.626 -2.3832  1.0492 -1.0222
19242SOL     OW59166   4.454   5.350  10.483  0.1099 -0.1803 -0.3523
19242SOL    HW159167   4.507   5.323  10.408 -1.2414 -2.6126 -0.5138
19242SOL    HW259168   4.370   5.377  10.446 -0.2782 -0.5754  0.2189
19243SOL     OW59169   7.196   1.832   4.861  0.0099 -0.0684 -0.6145
19243SOL    HW159170   7.245   1.768   4.809  1.7170 -1.0031  1.9455
19243SOL    HW259171   7.109   1.793   4.873 -0.3176  0.0323 -2.3986
19244SOL     OW59172   0.140   6.031   0.308 -0.2533 -0.0406  0.8047
19244SOL    HW159173   0.138   5.944   0.267 -0.7743  1.0021 -1.5591
19244SOL    HW259174   0.218   6.072   0.272 -1.3944  1.3612 -0.1923
19245SOL     OW59175   6.057   1.511   3.028  0.0094  0.5768 -0.9314
19245SOL    HW159176   6.077   1.521   3.122 -0.3928  1.4766 -0.9345
19245SOL    HW259177   6.120   1.445   2.998  0.2727  0.4138 -0.0696
19246SOL     OW59178   4.880   7.057   6.077 -0.1332 -0.0412  0.2902
19246SOL    HW159179   4.872   6.967   6.110  0.5450  0.3722  1.6257
19246SOL    HW259180   4.973   7.066   6.056 -0.5834 -0.4096 -2.1865
19247SOL     OW59181   2.552   7.123   3.133  0.2224  0.4406 -0.6194
19247SOL    HW159182   2.564   7.040   3.086  0.2952  0.9221 -1.4636
19247SOL    HW259183   2.483   7.105   3.196  1.7289 -0.9022  0.7322
19248SOL     OW59184   5.743   4.718   6.039  0.0145  0.1525  0.0710
19248SOL    HW159185   5.719   4.771   5.963 -0.0932  0.0839  0.0563
19248SOL    HW259186   5.793   4.777   6.095 -0.1260  0.2772  0.0650
19249SOL     OW59187   3.476   7.777   0.680  0.4427 -0.4588 -0.4473
19249SOL    HW159188   3.413   7.803   0.747 -0.7936 -0.7063 -1.4736
19249SOL    HW259189   3.440   7.812   0.598  1.0402 -1.5785 -1.2198
19250SOL     OW59190   0.853   4.537   0.072 -0.6122 -0.2240  0.0676
19250SOL    HW159191   0.794   4.607   0.100 -1.4645 -1.0797  0.4844
19250SOL    HW259192   0.884   4.499   0.154  0.2845  0.0175 -0.1553
19251SOL     OW59193   7.257   0.610  12.012 -0.0701 -0.4202  0.2611
19251SOL    HW159194   7.248   0.607  11.917  0.4490 -0.3685  0.2106
19251SOL    HW259195   7.324   0.675  12.028 -0.0186 -0.5681  0.6573
19252SOL     OW59196   1.821   0.007   7.154 -0.1062  0.1144  0.1114
19252SOL    HW159197   1.895  -0.048   7.179  1.1993  1.1932 -1.1985
19252SOL    HW259198   1.830   0.018   7.059 -0.9601  1.6756  0.1831
19253SOL     OW59199   0.435   0.484   4.443  0.3865 -0.3263  0.0088
19253SOL    HW159200   0.400   0.544   4.509 -0.1455 -0.8019  0.1657
19253SOL    HW259201   0.522   0.519   4.423 -0.5458  1.4724 -1.1508
19254SOL     OW59202   3.870   5.228   5.106  0.7025 -0.6951 -0.5593
19254SOL    HW159203   3.955   5.214   5.064 -0.4786 -0.9287 -3.0585
19254SOL    HW259204   3.848   5.144   5.145  1.2591 -0.8825 -0.6461
19255SOL     OW59205   1.613   6.556   8.992  0.3821  0.3619  0.0585
19255SOL    HW159206   1.608   6.636   9.044 -1.4024  0.0943  0.3508
19255SOL    HW259207   1.524   6.543   8.960  0.5518 -1.6938  0.3088
19256SOL     OW59208   0.017   1.038   8.236 -0.4919 -0.0990  0.7004
19256SOL    HW159209  -0.001   1.130   8.251 -1.0486  0.2043 -1.4388
19256SOL    HW259210   0.067   1.036   8.154 -0.5056 -1.7036  0.6822
19257SOL     OW59211   0.738   5.531   5.397 -0.4278  0.0095  0.3615
19257SOL    HW159212   0.701   5.619   5.392  1.8446  0.9775 -2.2783
19257SOL    HW259213   0.781   5.527   5.482 -1.8845  0.8188  1.1723
19258SOL     OW59214   7.869   7.791  11.370 -0.0864 -0.6999 -0.4297
19258SOL    HW159215   7.801   7.730  11.398 -1.1280  0.9798  0.9079
19258SOL    HW259216   7.821   7.868  11.339  1.1278  0.9279  1.4413
19259SOL     OW59217   6.262   2.990   6.061  0.0026 -0.8962 -0.1870
19259SOL    HW159218   6.291   2.946   6.141  0.7896 -2.6705 -1.3920
19259SOL    HW259219   6.340   3.037   6.031 -0.0158 -0.9990 -0.3956
19260SOL     OW59220   0.260   7.708  10.620 -0.1452  0.0094  0.0477
19260SOL    HW159221   0.336   7.747  10.578 -0.2837  1.3862  0.9855
19260SOL    HW259222   0.269   7.614  10.605  0.0060  0.3798 -2.6756
19261SOL     OW59223   2.690   3.397  11.269 -0.4657  0.0068  1.0996
19261SOL    HW159224   2.750   3.433  11.204 -0.3041 -1.6349  0.2883
19261SOL    HW259225   2.727   3.424  11.354  1.4830 -0.9986  0.6326
19262SOL     OW59226   3.121   5.222   9.860  0.4451  0.0430  0.0981
19262SOL    HW159227   3.176   5.147   9.883 -1.9056 -1.7179  0.3829
19262SOL    HW259228   3.055   5.186   9.801  0.1450  2.2780 -1.0434
19263SOL     OW59229   0.185   1.038   5.627  0.6876 -0.1661 -0.0958
19263SOL    HW159230   0.202   1.061   5.536 -0.4360 -0.1308 -0.3045
19263SOL    HW259231   0.229   1.106   5.678  1.0064  0.0182 -0.6123
19264SOL     OW59232   2.537   4.981   4.278  0.0835 -0.0678  0.1675
19264SOL    HW159233   2.547   5.055   4.338 -0.2121  0.1071  0.0027
19264SOL    HW259234   2.454   4.998   4.233 -0.0682 -0.5864  0.2524
19265SOL     OW59235   6.554   4.885   9.385 -0.5431  0.6752  0.3249
19265SOL    HW159236   6.644   4.859   9.408 -0.4958  1.2039  0.7577
19265SOL    HW259237   6.503   4.863   9.463 -0.8443  0.1339 -0.0195
19266SOL     OW59238   4.656   0.763   4.706  0.0163  0.6747 -0.0519
19266SOL    HW159239   4.618   0.687   4.663 -2.0065  0.5128  1.8378
19266SOL    HW259240   4.715   0.727   4.773 -1.1013  0.7028  0.9846
19267SOL     OW59241   2.199   5.141   1.646 -0.3234 -0.2404 -0.0243
19267SOL    HW159242   2.185   5.152   1.552 -1.7527  0.5738  0.2406
19267SOL    HW259243   2.186   5.229   1.682  1.4963 -0.2843  0.8132
19268SOL     OW59244   5.895   7.774  10.763 -0.1426  0.4064 -0.3738
19268SOL    HW159245   5.971   7.716  10.759 -1.9305 -2.1183 -0.2827
19268SOL    HW259246   5.857   7.771  10.675  0.0460  2.0076 -0.5526
19269SOL     OW59247   7.764   1.195   7.780 -0.6086 -0.2151  0.3595
19269SOL    HW159248   7.856   1.208   7.759 -1.2183 -0.5573 -3.0166
19269SOL    HW259249   7.761   1.110   7.825  0.7942  0.2970  1.4748
19270SOL     OW59250   7.130   5.085  11.281 -0.3268 -0.3291 -0.1894
19270SOL    HW159251   7.103   5.177  11.270  2.8421  0.7481  0.1700
19270SOL    HW259252   7.174   5.083  11.366  0.5814 -1.9464 -0.6694
19271SOL     OW59253   0.347   5.007   6.330  0.1886  0.7477 -0.1215
19271SOL    HW159254   0.255   4.987   6.314 -0.4002  2.7462  0.4568
19271SOL    HW259255   0.346   5.087   6.382  2.2258 -0.3331  1.7863
19272SOL     OW59256   5.516   7.448  11.695 -0.6447  0.2759 -0.2375
19272SOL    HW159257   5.424   7.455  11.723 -0.1720  2.0825  0.9995
19272SOL    HW259258   5.531   7.353  11.688 -2.0317 -0.1397  1.5860
19273SOL     OW59259   7.861   4.133   8.036  0.3703  0.4015  0.3340
19273SOL    HW159260   7.938   4.077   8.041  0.1606  0.1293  0.5501
19273SOL    HW259261   7.787   4.072   8.030  0.0275  0.6096  1.9809
19274SOL     OW59262   7.461   4.463   1.799 -0.4695  0.2845  0.2657
19274SOL    HW159263   7.511   4.531   1.753 -2.3446  0.7890 -1.1429
19274SOL    HW259264   7.528   4.411   1.844  1.2758  1.2328 -1.0900
19275SOL     OW59265   3.509   5.110   6.482 -0.7311  0.2866 -0.0766
19275SOL    HW159266   3.439   5.084   6.421 -0.7249 -0.9704  0.4187
19275SOL    HW259267   3.567   5.034   6.484 -0.4785  0.5030  1.1275
19276SOL     OW59268   0.065   5.625  11.765  0.0721  0.1866 -0.2203
19276SOL    HW159269  -0.000   5.606  11.697 -0.6663  1.0636  0.2206
19276SOL    HW259270   0.075   5.720  11.762  1.8370  0.0204 -0.7153
19277SOL     OW59271   2.295   0.319   7.458 -0.4099  0.2639  0.2765
19277SOL    HW159272   2.346   0.365   7.391 -1.5858  1.5432  0.2195
19277SOL    HW259273   2.335   0.232   7.463  0.7966  0.7210 -0.8377
19278SOL     OW59274   1.901   5.937   8.374 -0.0150 -0.4583 -0.1822
19278SOL    HW159275   1.846   5.860   8.384 -1.8305  0.8357  0.4506
19278SOL    HW259276   1.870   5.978   8.293 -1.1931  1.1319  0.9929
19279SOL     OW59277   3.848   4.660   8.263  0.0042 -0.1116 -0.0155
19279SOL    HW159278   3.914   4.707   8.314  0.6633 -1.0727  0.0618
19279SOL    HW259279   3.786   4.727   8.235  0.8875  0.7861  0.1164
19280SOL     OW59280   2.214   2.638   0.812 -0.0756  0.1649 -0.1029
19280SOL    HW159281   2.145   2.690   0.853  1.1985  1.0879  0.9174
19280SOL    HW259282   2.295   2.683   0.833  1.0444 -1.9032  0.3148
19281SOL     OW59283   5.875   5.705   6.234 -0.4304  0.6618 -0.3628
19281SOL    HW159284   5.824   5.742   6.161 -0.0195 -1.4313 -1.7837
19281SOL    HW259285   5.862   5.610   6.226 -1.4747  0.3844  3.1459
19282SOL     OW59286   4.236   3.594   1.118  0.2227 -0.7257 -0.0798
19282SOL    HW159287   4.212   3.649   1.193  1.2062 -1.6062  0.9244
19282SOL    HW259288   4.154   3.553   1.092 -0.3360  0.4163 -0.1955
19283SOL     OW59289   2.838   4.047   2.164  0.2297  0.6318 -0.5733
19283SOL    HW159290   2.907   4.109   2.143  0.9719  0.4749  1.2284
19283SOL    HW259291   2.883   3.976   2.209 -0.9825  0.1041 -0.1613
19284SOL     OW59292   5.741   7.783  12.409  0.1329 -0.2053  1.1288
19284SOL    HW159293   5.700   7.707  12.450  1.2006 -1.6093 -0.2867
19284SOL    HW259294   5.667   7.837  12.382 -0.6535 -0.6631  2.2337
19285SOL     OW59295   3.628   2.524   3.339 -0.2272 -0.2357  0.2475
19285SOL    HW159296   3.617   2.433   3.310 -0.6751  0.2334 -1.1574
19285SOL    HW259297   3.542   2.563   3.327  0.1157  0.5320  0.2522
19286SOL     OW59298   5.645   4.177   1.137 -0.5003  0.1290  0.4022
19286SOL    HW159299   5.632   4.271   1.149 -0.0026  0.0266  2.0159
19286SOL    HW259300   5.584   4.136   1.198  0.9562 -0.5143  1.5064
19287SOL     OW59301   1.780   6.482   2.009 -0.7111  0.6178 -0.3545
19287SOL    HW159302   1.772   6.502   2.102 -1.9359  1.2327 -0.5715
19287SOL    HW259303   1.766   6.388   2.003  1.0701  0.2910  0.2520
19288SOL     OW59304   3.020   3.288   7.029 -0.2436 -0.4570  0.2918
19288SOL    HW159305   3.010   3.291   6.934 -0.3820  2.5408  0.3173
19288SOL    HW259306   2.946   3.235   7.059 -0.1733 -1.4924 -1.2247
19289SOL     OW59307   3.279   5.780   6.359  0.2986  0.3351 -0.0779
19289SOL    HW159308   3.238   5.759   6.443 -0.4371 -0.3313 -0.5847
19289SOL    HW259309   3.316   5.867   6.371  3.0364 -0.9515  1.9702
19290SOL     OW59310   0.899   3.123   5.629 -0.0754  0.1954  0.1602
19290SOL    HW159311   0.976   3.098   5.578  0.3640 -2.6121  1.9485
19290SOL    HW259312   0.836   3.052   5.614 -2.5845  2.5570 -1.5023
19291SOL     OW59313   7.656   1.050   8.743 -0.6198  0.5789 -0.6233
19291SOL    HW159314   7.647   0.955   8.738  2.3153  0.1964  0.0849
19291SOL    HW259315   7.614   1.074   8.826  1.0653 -0.5023  0.5867
19292SOL     OW59316   2.943   7.277   7.319  0.5291  0.1407 -0.3099
19292SOL    HW159317   2.864   7.222   7.323  0.0940  0.7178 -0.7837
19292SOL    HW259318   2.910   7.366   7.334  1.3118  0.2107  1.1721
19293SOL     OW59319   2.804   0.950  11.169 -0.0634 -0.0841 -0.1476
19293SOL    HW159320   2.822   0.919  11.081 -1.3122  1.1029 -0.8713
19293SOL    HW259321   2.783   1.043  11.158  0.9672  0.4103  1.5657
19294SOL     OW59322   5.885   2.242   2.537  0.0643 -0.0844  0.6220
19294SOL    HW159323   5.864   2.170   2.598 -0.1406 -1.0664 -0.5696
19294SOL    HW259324   5.963   2.211   2.491 -2.6920 -1.9200 -3.4235
19295SOL     OW59325   2.002   5.860  10.119 -0.5569 -0.2446 -0.6361
19295SOL    HW159326   2.009   5.808  10.039  1.5709 -0.3736 -0.4319
19295SOL    HW259327   2.067   5.822  10.178 -0.2358  1.4669  0.1848
19296SOL     OW59328   6.122   4.388   2.321 -0.4905 -0.2535  0.3867
19296SOL    HW159329   6.038   4.423   2.351 -0.9940 -1.6853  0.7169
19296SOL    HW259330   6.121   4.399   2.226 -0.3669  1.1404  0.5208
19297SOL     OW59331   5.674   4.920   2.171  0.2839 -0.2538 -0.6609
19297SOL    HW159332   5.615   4.995   2.178  0.3170 -0.2123 -0.8248
19297SOL    HW259333   5.617   4.844   2.180  0.5341 -0.2228  1.9281
19298SOL     OW59334   6.272   1.233   8.182 -0.3138 -0.0597  0.0038
19298SOL    HW159335   6.224   1.316   8.182  0.1454  0.2131 -0.1838
19298SOL    HW259336   6.363   1.259   8.164 -0.2367 -0.6412 -0.4467
19299SOL     OW59337   0.750   5.923  11.506  0.2413 -0.4411  0.3023
19299SOL    HW159338   0.668   5.876  11.521  0.2233 -0.4476  0.1877
19299SOL    HW259339   0.734   6.011  11.540 -0.4061  0.0827 -1.2555
19300SOL     OW59340   3.474   5.272   6.684 -0.3541  0.1192 -0.1190
19300SOL    HW159341   3.509   5.207   6.744 -1.8626 -0.3258  0.2949
19300SOL    HW259342   3.471   5.228   6.599 -0.7340 -0.1303  0.0238
19301SOL     OW59343   3.399   6.235   4.555 -0.5120  0.5770 -0.2845
19301SOL    HW159344   3.433   6.313   4.511  0.2329  1.0383  1.0376
19301SOL    HW259345   3.434   6.241   4.644 -1.0260 -0.9130  0.0451
19302SOL     OW59346   7.559   6.603   2.029  0.2367  0.5229  0.2672
19302SOL    HW159347   7.597   6.690   2.039 -0.5768  0.6583  2.9699
19302SOL    HW259348   7.488   6.600   2.093 -1.1225 -1.4323 -1.1972
19303SOL     OW59349   0.879   0.235   0.658  0.1733 -0.0169 -0.1430
19303SOL    HW159350   0.917   0.186   0.731  1.1623  1.5283  0.4297
19303SOL    HW259351   0.806   0.283   0.697  1.7991  2.2254  0.3170
19304SOL     OW59352   3.933   5.832  10.934 -0.3974  0.0782  0.3598
19304SOL    HW159353   3.884   5.763  10.889  0.6707 -0.6687  0.3038
19304SOL    HW259354   3.918   5.815  11.027 -0.9100  0.3556  0.3310
19305SOL     OW59355   1.853   2.350   1.992 -0.4701  0.0302 -0.7838
19305SOL    HW159356   1.878   2.365   2.084  0.8362  0.5441 -1.1955
19305SOL    HW259357   1.901   2.270   1.967 -0.9506 -0.2013 -0.9813
19306SOL     OW59358   6.920   4.769  10.160  0.2342 -0.5039  0.2178
19306SOL    HW159359   6.887   4.841  10.215  2.0839  0.8608 -0.3480
19306SOL    HW259360   6.870   4.777  10.079  0.9486  0.6675 -0.1302
19307SOL     OW59361   3.974   2.395  11.111  0.3625 -0.0451 -0.0404
19307SOL    HW159362   3.906   2.415  11.176 -0.6898  0.5562 -1.2851
19307SOL    HW259363   3.935   2.328  11.055  0.6955  0.4686 -0.9040
19308SOL     OW59364   1.267   1.234   9.508  0.1052  0.5572  0.1058
19308SOL    HW159365   1.295   1.320   9.540  1.9023 -0.3384  1.0655
19308SOL    HW259366   1.172   1.232   9.525  0.0765  2.2079  0.3203
19309SOL     OW59367   7.361   0.856  12.045 -0.5340 -0.3751 -0.3223
19309SOL    HW159368   7.299   0.875  12.115 -2.0924 -1.3606 -1.3819
19309SOL    HW259369   7.383   0.942  12.009 -0.3263  0.0755  0.8191
19310SOL     OW59370   7.583   7.438  11.731 -0.1528 -0.0147  0.5364
19310SOL    HW159371   7.651   7.492  11.690  1.1693 -2.1138 -0.1764
19310SOL    HW259372   7.525   7.413  11.658  1.5895 -2.8556 -0.0122
19311SOL     OW59373   0.901   7.258  10.156  0.2974  0.6343  0.5328
19311SOL    HW159374   0.935   7.201  10.087 -0.3641  1.2966 -0.3723
19311SOL    HW259375   0.962   7.331  10.159 -0.2089  1.0945 -0.0615
19312SOL     OW59376   5.056   6.038   2.070  0.1489  0.0656  0.0497
19312SOL    HW159377   5.125   6.100   2.044  0.2148 -0.6823 -1.7035
19312SOL    HW259378   4.991   6.044   2.000 -1.1808  0.1233  1.2446
19313SOL     OW59379   3.248   4.159   0.234 -0.1848  0.7983  0.2713
19313SOL    HW159380   3.264   4.252   0.251  0.1925  0.9425 -0.8317
19313SOL    HW259381   3.323   4.130   0.183 -0.3914 -0.0765  0.4461
19314SOL     OW59382   7.661   3.998   0.911  0.2135  0.3694  0.0350
19314SOL    HW159383   7.746   3.960   0.936 -0.6250 -0.6743  1.4868
19314SOL    HW259384   7.637   3.951   0.831  1.6438  1.7136 -1.2332
19315SOL     OW59385   2.354   4.117   9.017 -0.0233  0.7761 -0.2345
19315SOL    HW159386   2.413   4.185   9.049 -0.7823  2.0502 -1.4072
19315SOL    HW259387   2.410   4.059   8.966  0.4164  1.2685 -0.3211
19316SOL     OW59388   4.444   7.480   0.443 -0.0879  0.1389  0.4813
19316SOL    HW159389   4.497   7.540   0.391 -0.0277  1.5352  2.0597
19316SOL    HW259390   4.366   7.530   0.466 -0.4601 -0.6880  1.1022
19317SOL     OW59391   1.754   2.979   0.145 -0.6620 -0.2280 -0.0112
19317SOL    HW159392   1.789   3.068   0.143  0.5341 -0.6872 -0.0958
19317SOL    HW259393   1.681   2.984   0.208 -0.7478  0.8460 -0.1727
19318SOL     OW59394   1.752   6.950   9.142 -0.1923  0.2867  0.0454
19318SOL    HW159395   1.758   6.863   9.182 -0.2206  0.3520  0.1936
19318SOL    HW259396   1.699   7.001   9.204  0.3038  0.5702  0.2418
19319SOL     OW59397   3.749   6.217   2.825  0.4133 -0.0737 -0.4557
19319SOL    HW159398   3.809   6.234   2.898  2.7386 -2.4864 -1.6255
19319SOL    HW259399   3.786   6.266   2.751  0.2424 -0.5640 -0.8763
19320SOL     OW59400   2.218   0.745   3.371 -0.2465 -0.2233  0.4276
19320SOL    HW159401   2.300   0.783   3.403 -0.2522 -0.6657  0.9950
19320SOL    HW259402   2.164   0.821   3.348  1.7460  0.1533 -3.9405
19321SOL     OW59403   6.244   3.554   1.299 -0.5933 -0.2929 -0.2627
19321SOL    HW159404   6.241   3.571   1.205 -0.7799  1.5714  0.0461
19321SOL    HW259405   6.230   3.640   1.339 -1.2997 -1.1870  1.4757
19322SOL     OW59406   0.607   0.613  11.840  0.0951 -0.3758  0.4320
19322SOL    HW159407   0.575   0.680  11.901  0.5378  1.3108 -1.1006
19322SOL    HW259408   0.700   0.603  11.861 -0.0865 -0.9296  1.0090
19323SOL     OW59409   5.517   7.516  11.435  0.0269 -0.6947 -0.6074
19323SOL    HW159410   5.535   7.524  11.529  0.2138 -1.1125 -0.6043
19323SOL    HW259411   5.524   7.605  11.401 -1.9849 -0.2180  0.1011
19324SOL     OW59412   3.775   7.876   8.042  0.1519  0.0291 -0.1411
19324SOL    HW159413   3.832   7.912   7.974 -0.5531  1.8078  0.1315
19324SOL    HW259414   3.701   7.839   7.994  0.3546 -0.0472 -0.3973
19325SOL     OW59415   3.798   1.038   9.500 -0.2041  0.2604  0.0990
19325SOL    HW159416   3.716   1.046   9.549 -0.5684  1.4746 -0.6526
19325SOL    HW259417   3.775   0.984   9.424  0.3993 -1.7615  1.2690
19326SOL     OW59418   6.739   5.909  10.263  0.1549  0.2187  0.1013
19326SOL    HW159419   6.706   5.839  10.206  2.2338 -0.3597 -0.4735
19326SOL    HW259420   6.759   5.981  10.202 -0.0422  0.5498  0.4280
19327SOL     OW59421   1.598   5.643   4.222 -0.3715 -0.1600 -0.1860
19327SOL    HW159422   1.585   5.582   4.294  2.3673  0.0057  0.5592
19327SOL    HW259423   1.567   5.596   4.144 -1.5849 -1.0747  0.7987
19328SOL     OW59424   2.682   5.378   3.662 -0.1093  0.4277 -0.4140
19328SOL    HW159425   2.673   5.381   3.567  1.2856 -0.0598 -0.5857
19328SOL    HW259426   2.744   5.306   3.678  1.1747  1.7389  0.7274
19329SOL     OW59427   4.999   4.437  11.501  0.2280 -0.3003 -0.3576
19329SOL    HW159428   4.921   4.479  11.537  0.6281  1.3243 -1.2604
19329SOL    HW259429   5.026   4.374  11.568 -0.7601  0.4690  0.8082
19330SOL     OW59430   2.214   7.746   3.274 -0.4615  0.4069  0.5715
19330SOL    HW159431   2.214   7.729   3.180 -1.7131  1.6231  0.3144
19330SOL    HW259432   2.264   7.827   3.284  0.9833 -0.5319  1.1504
19331SOL     OW59433   2.486   5.118   2.915  0.3968 -0.0581  0.1921
19331SOL    HW159434   2.477   5.026   2.890  1.8073 -0.0240 -0.5349
19331SOL    HW259435   2.551   5.117   2.985 -0.5461  0.2838  1.1099
19332SOL     OW59436   6.495   5.079   0.158  0.2970  0.1370 -0.0927
19332SOL    HW159437   6.556   5.034   0.217  0.6669 -1.2114 -1.4174
19332SOL    HW259438   6.545   5.089   0.076 -1.1696 -0.8481 -1.1524
19333SOL     OW59439   2.124   4.378   2.654  0.4842  0.2383  0.0011
19333SOL    HW159440   2.081   4.362   2.739 -0.8262  1.0092 -0.4767
19333SOL    HW259441   2.188   4.308   2.646 -0.5215 -0.8365  0.8799
19334SOL     OW59442   0.917   7.410   1.366 -0.4347 -0.2447  0.0920
19334SOL    HW159443   0.906   7.355   1.288  2.0606 -2.2447  1.0126
19334SOL    HW259444   0.974   7.482   1.336 -0.6876 -0.1829 -0.2525
19335SOL     OW59445   1.193   6.158   8.079 -0.3177  0.5053 -0.3162
19335SOL    HW159446   1.277   6.196   8.102  0.0076  1.4400 -2.7706
19335SOL    HW259447   1.130   6.229   8.092 -0.2887  0.7005 -1.2262
19336SOL     OW59448   7.416   1.135  11.953  0.4150  0.0485 -0.0827
19336SOL    HW159449   7.386   1.189  11.881 -1.0944 -1.8239 -0.9360
19336SOL    HW259450   7.360   1.159  12.027 -0.5890 -0.6653 -0.5948
19337SOL     OW59451   2.431   0.962   4.782  0.2771 -0.4693  0.5682
19337SOL    HW159452   2.478   0.888   4.742 -0.9310 -0.9416 -0.0293
19337SOL    HW259453   2.363   0.922   4.835 -0.3444  0.2072  0.3025
19338SOL     OW59454   0.877   0.072   8.445 -0.3006 -0.7404  0.3685
19338SOL    HW159455   0.916   0.145   8.397 -4.2304  1.5589  0.2627
19338SOL    HW259456   0.905   0.085   8.536 -0.2638  0.3640  0.2024
19339SOL     OW59457   6.936   5.613   8.021  0.3379 -0.5720  0.1211
19339SOL    HW159458   6.895   5.551   8.081  1.1264 -1.2031  0.0240
19339SOL    HW259459   6.964   5.560   7.946 -0.9985  0.2679 -1.0251
19340SOL     OW59460   2.786   6.916  10.257  0.6392 -0.0799 -0.1609
19340SOL    HW159461   2.811   6.910  10.349  0.3914  0.1889 -0.0737
19340SOL    HW259462   2.731   6.994  10.252  1.0886  0.2164 -0.6359
19341SOL     OW59463   5.787   1.426   8.702 -0.1719  0.3978  0.0969
19341SOL    HW159464   5.750   1.445   8.616  1.0820  1.0121 -0.3266
19341SOL    HW259465   5.784   1.330   8.709  0.1238  0.3159 -0.8277
19342SOL     OW59466   7.434   6.377   5.597 -0.0545 -0.6477  0.4150
19342SOL    HW159467   7.376   6.304   5.618 -0.1298 -0.6416  0.2280
19342SOL    HW259468   7.490   6.386   5.674 -0.6498 -0.3142  0.8198
19343SOL     OW59469   1.443   7.829   3.082  0.3575 -0.2668  0.1034
19343SOL    HW159470   1.487   7.892   3.024 -0.8185  1.1035  0.6303
19343SOL    HW259471   1.510   7.804   3.145  0.5609  1.4956  0.6623
19344SOL     OW59472   2.353   2.790   7.336  0.3503  0.2546 -0.1182
19344SOL    HW159473   2.326   2.848   7.407 -2.1609 -3.1424  2.0565
19344SOL    HW259474   2.421   2.734   7.375  0.0754 -0.6515 -0.8962
19345SOL     OW59475   2.138   4.886   1.790 -0.3177 -0.1609 -0.0170
19345SOL    HW159476   2.078   4.914   1.721  2.2646  0.4988 -2.1499
19345SOL    HW259477   2.181   4.809   1.755  1.2721  0.3642  0.7021
19346SOL     OW59478   0.134   1.728   2.173  0.0198  0.0231 -0.3629
19346SOL    HW159479   0.119   1.672   2.249  0.0100  1.1125  0.4669
19346SOL    HW259480   0.213   1.778   2.195  0.9258 -0.7422 -1.7413
19347SOL     OW59481   7.937   4.371  11.498 -0.7251  0.0700 -0.0940
19347SOL    HW159482   7.873   4.320  11.547  0.0619 -0.4988  0.3638
19347SOL    HW259483   7.934   4.458  11.538  0.5613 -0.6190  1.6397
19348SOL     OW59484   4.811   1.851   0.751  0.1658  0.3141  0.0635
19348SOL    HW159485   4.771   1.886   0.831 -0.0759 -0.8092  0.4604
19348SOL    HW259486   4.904   1.872   0.760 -0.0898  1.6030 -0.1380
19349SOL     OW59487   4.812   6.831   3.083  0.0207  0.0869 -0.2781
19349SOL    HW159488   4.901   6.864   3.067  0.6281 -1.4936 -0.3237
19349SOL    HW259489   4.824   6.761   3.147 -1.2164 -0.1339 -0.2720
19350SOL     OW59490   4.002   7.841   5.505  0.4279 -0.4672 -0.2042
19350SOL    HW159491   3.997   7.870   5.415 -0.1660  1.6877  0.4707
19350SOL    HW259492   3.940   7.768   5.511 -0.6687  0.3709 -1.1810
19351SOL     OW59493   5.621   7.254   3.950 -0.4024 -0.2403  0.2787
19351SOL    HW159494   5.682   7.180   3.950 -1.0352 -0.7979 -1.0956
19351SOL    HW259495   5.674   7.328   3.980  1.3366 -0.4435 -2.0060
19352SOL     OW59496   5.135   2.580   2.616  0.8857  0.1977  0.2833
19352SOL    HW159497   5.092   2.501   2.581  1.9024  0.4274 -1.6446
19352SOL    HW259498   5.109   2.650   2.556  2.4032  0.7041  0.1704
19353SOL     OW59499   2.542   5.772   0.305 -0.2052 -0.1302 -0.6087
19353SOL    HW159500   2.464   5.750   0.357  0.9564 -0.9100  0.8553
19353SOL    HW259501   2.587   5.838   0.357 -0.3116  0.9825 -1.8804
19354SOL     OW59502   4.855   0.339   8.309  0.4157  0.0749  0.0596
19354SOL    HW159503   4.852   0.429   8.341 -1.7260 -0.4629  1.5689
19354SOL    HW259504   4.846   0.347   8.214  0.5419  1.4497  0.1449
19355SOL     OW59505   2.517   0.730   0.775 -0.9189 -0.2693  0.1148
19355SOL    HW159506   2.503   0.636   0.786  1.4535 -0.7121 -0.2546
19355SOL    HW259507   2.524   0.764   0.865  1.9541 -1.1330  0.3089
19356SOL     OW59508   6.155   0.859   4.751  0.1516  0.2994 -0.3179
19356SOL    HW159509   6.094   0.786   4.747  1.2873 -0.7002  0.0608
19356SOL    HW259510   6.242   0.819   4.739  0.8181  1.5424  0.1467
19357SOL     OW59511   4.753   6.487   4.609 -0.2356  0.3861  0.2326
19357SOL    HW159512   4.717   6.399   4.614 -0.0596  0.3474  0.9420
19357SOL    HW259513   4.677   6.544   4.604 -0.4541  0.3603  2.5750
19358SOL     OW59514   6.464   2.444   8.986 -0.0648  0.6165 -0.3863
19358SOL    HW159515   6.504   2.527   9.011 -2.0892  1.7761 -0.7515
19358SOL    HW259516   6.439   2.456   8.894 -0.1228 -0.5103 -0.5308
19359SOL     OW59517   1.143   4.318   6.642  0.3296 -0.6783  0.1052
19359SOL    HW159518   1.053   4.320   6.675  0.8223 -0.2908  1.4550
19359SOL    HW259519   1.185   4.245   6.689  0.9194 -0.4006  0.0172
19360SOL     OW59520   4.921   2.650  12.088 -0.1637  0.0441 -0.3825
19360SOL    HW159521   4.907   2.660  12.182  1.0867  2.0700 -0.3288
19360SOL    HW259522   5.007   2.610  12.081  0.7733  1.9612 -0.5882
19361SOL     OW59523   2.110   6.242   9.117 -0.4167 -0.2158  0.0508
19361SOL    HW159524   2.089   6.298   9.192 -0.9169 -1.9358  1.2324
19361SOL    HW259525   2.126   6.156   9.155 -1.2697 -1.2696 -1.8908
19362SOL     OW59526   1.223   0.163   3.696  0.3889  0.0403 -0.2263
19362SOL    HW159527   1.301   0.194   3.740 -0.4021  1.9355 -0.0647
19362SOL    HW259528   1.180   0.106   3.759  0.4062  0.9439  0.6155
19363SOL     OW59529   2.069   3.882   3.432 -0.4964  0.7585  0.4493
19363SOL    HW159530   2.099   3.966   3.467  0.2042  0.9748 -0.5957
19363SOL    HW259531   1.977   3.898   3.409 -0.0535  1.6518 -0.8577
19364SOL     OW59532   4.028   4.406   0.640  0.7672 -0.3021 -0.4319
19364SOL    HW159533   4.009   4.438   0.552 -1.1470  1.5327  0.5437
19364SOL    HW259534   4.116   4.439   0.659  0.9995 -0.2952 -1.4531
19365SOL     OW59535   4.861   7.611   8.598 -0.0699  0.0797  0.1214
19365SOL    HW159536   4.922   7.680   8.622 -0.4780  0.1307  1.0542
19365SOL    HW259537   4.889   7.535   8.650 -0.1136 -0.2230 -0.2917
19366SOL     OW59538   2.062   6.513   0.869 -0.1303  0.2368  0.3145
19366SOL    HW159539   2.056   6.596   0.915 -1.1928 -0.6092  1.7679
19366SOL    HW259540   2.004   6.454   0.917  0.4565 -1.3044 -0.7811
19367SOL     OW59541   2.704   4.585   1.063  0.3977 -0.0283  0.1498
19367SOL    HW159542   2.764   4.654   1.092 -0.2617  0.8020 -0.3961
19367SOL    HW259543   2.617   4.622   1.078  0.0371 -0.6746 -0.3205
19368SOL     OW59544   4.909   3.992   3.225 -0.4689 -0.2353  0.5761
19368SOL    HW159545   4.940   3.902   3.211  0.5801  0.4540 -2.2792
19368SOL    HW259546   4.898   3.999   3.320 -2.5302 -3.9413  0.7919
19369SOL     OW59547   1.370   1.433   2.638 -0.1256  0.3093 -0.1352
19369SOL    HW159548   1.453   1.450   2.592  0.5130  0.1085  0.9116
19369SOL    HW259549   1.308   1.416   2.567  0.5699  1.0943 -0.9698
19370SOL     OW59550   2.471   6.028   3.271 -0.0775  0.0906  0.1763
19370SOL    HW159551   2.424   6.103   3.310 -0.2858 -0.2749  0.6448
19370SOL    HW259552   2.444   6.028   3.179  0.2737  0.8597  0.0625
19371SOL     OW59553   4.504   7.118  12.070  0.4118  0.3098 -0.3168
19371SOL    HW159554   4.499   7.047  12.134 -1.7876  0.1461 -0.6030
19371SOL    HW259555   4.486   7.197  12.120  0.4910  0.3966 -0.4247
19372SOL     OW59556   5.526   0.810   1.576  0.3397 -0.1215 -0.2165
19372SOL    HW159557   5.513   0.718   1.554  1.5559 -0.3916  0.0937
19372SOL    HW259558   5.590   0.841   1.511 -2.6713  1.5351 -2.6728
19373SOL     OW59559   0.467   7.407  12.409  0.2836 -0.0590 -0.0819
19373SOL    HW159560   0.509   7.467  12.470 -0.0960 -1.3895  1.5811
19373SOL    HW259561   0.404   7.461  12.361  1.8533  1.3794 -0.6047
19374SOL     OW59562   1.153   2.768   6.378  0.1957  0.5080 -0.2722
19374SOL    HW159563   1.232   2.772   6.323 -0.4575  0.5751 -1.2297
19374SOL    HW259564   1.143   2.675   6.398 -0.5173  0.2349 -1.7372
19375SOL     OW59565   1.844   7.889   4.486 -0.0664 -0.2958  0.3226
19375SOL    HW159566   1.880   7.960   4.540  1.3920 -2.2696  2.1097
19375SOL    HW259567   1.837   7.927   4.398  1.3033  1.8503  1.0606
19376SOL     OW59568   4.412   4.881   6.084  0.2549 -0.0160  0.2189
19376SOL    HW159569   4.402   4.906   6.176  1.2158  1.2867 -0.0065
19376SOL    HW259570   4.473   4.808   6.085  0.4573  0.1559  0.5952
19377SOL     OW59571   5.798   1.962  12.062 -0.0873  0.1892  0.0768
19377SOL    HW159572   5.863   1.902  12.025 -2.4783 -1.9168 -1.0075
19377SOL    HW259573   5.841   2.000  12.139  2.5205 -0.7744 -0.8110
19378SOL     OW59574   0.917   2.292  11.866  0.5319 -0.2764  0.1086
19378SOL    HW159575   0.826   2.272  11.844  0.1765  0.8384  0.4789
19378SOL    HW259576   0.951   2.211  11.904 -1.0728  0.0026  2.3258
19379SOL     OW59577   3.049   0.563  11.168 -0.5163 -0.4990 -0.2201
19379SOL    HW159578   3.096   0.536  11.089  0.0831  1.7517 -0.6915
19379SOL    HW259579   2.964   0.595  11.135 -0.3597  0.2141  0.0576
19380SOL     OW59580   3.847   2.405   0.441  0.5214 -0.1166  0.0067
19380SOL    HW159581   3.868   2.312   0.428  0.2062 -0.1265 -0.4650
19380SOL    HW259582   3.756   2.413   0.411  0.5871  0.3687 -0.0682
19381SOL     OW59583   4.345   2.426   9.406 -0.5736 -0.4539  0.6278
19381SOL    HW159584   4.285   2.386   9.469 -2.4812  0.7480 -0.3540
19381SOL    HW259585   4.368   2.510   9.445 -3.0234  1.0220 -0.8550
19382SOL     OW59586   6.381   7.038   0.204  0.0778  0.2511  0.5501
19382SOL    HW159587   6.378   7.134   0.202  0.9104  0.2940  0.6941
19382SOL    HW259588   6.431   7.014   0.126  1.3192  0.0399  1.3790
19383SOL     OW59589   2.842   1.163   5.830  0.1464 -0.4117  0.0355
19383SOL    HW159590   2.756   1.172   5.871  0.8743 -1.6072  1.9556
19383SOL    HW259591   2.844   1.231   5.763 -1.9469  0.2219  0.5447
19384SOL     OW59592   1.887   5.548  11.958 -0.3441  0.1599 -0.2564
19384SOL    HW159593   1.919   5.567  12.046  0.3418  0.3173 -0.5359
19384SOL    HW259594   1.792   5.550  11.966 -0.2868 -0.2055  0.5615
19385SOL     OW59595   7.564   2.678  12.326 -0.1854  0.2007 -0.5977
19385SOL    HW159596   7.522   2.696  12.243  0.6438 -0.0995 -1.0964
19385SOL    HW259597   7.615   2.599  12.311 -0.3886 -0.1176  0.3300
19386SOL     OW59598   6.255   3.312   4.424 -0.1108 -0.0419 -0.0896
19386SOL    HW159599   6.329   3.296   4.482  0.2383 -1.9788 -0.9589
19386SOL    HW259600   6.285   3.281   4.338 -0.8326  2.1404 -1.1988
19387SOL     OW59601   0.215   1.977   2.329 -0.1079 -0.2652 -0.1039
19387SOL    HW159602   0.310   1.970   2.339 -0.1553 -2.9465 -0.8263
19387SOL    HW259603   0.203   2.051   2.269  1.6039 -0.6209 -0.9467
19388SOL     OW59604   1.888   5.208  10.032 -0.8634  0.0208  0.3599
19388SOL    HW159605   1.830   5.132  10.024  0.3530 -0.8414 -0.6930
19388SOL    HW259606   1.918   5.225   9.943 -0.2640  1.0686  0.7409
19389SOL     OW59607   1.773   1.570  11.491 -0.2309  0.0288  0.3428
19389SOL    HW159608   1.693   1.518  11.484 -0.9544  1.0153  1.0122
19389SOL    HW259609   1.743   1.658  11.512  0.9289  0.8476 -1.2007
19390SOL     OW59610   0.340   5.708   5.531 -0.0967 -0.4537 -0.4689
19390SOL    HW159611   0.381   5.643   5.475  0.9055  0.0646 -0.3770
19390SOL    HW259612   0.344   5.789   5.480  0.2327 -0.1183  0.0720
19391SOL     OW59613   5.416   1.253  11.450  0.5145  0.8931  0.1528
19391SOL    HW159614   5.463   1.276  11.370  2.6025 -0.6799  0.8404
19391SOL    HW259615   5.373   1.170  11.431 -0.4784  1.3923  0.1345
19392SOL     OW59616   2.030   6.099  11.214 -0.1713 -0.3906  0.5488
19392SOL    HW159617   2.115   6.058  11.198 -0.1174 -0.0469 -0.0737
19392SOL    HW259618   1.997   6.122  11.127 -0.5654  0.1474  0.8315
19393SOL     OW59619   0.464   5.345   2.803 -0.0223 -0.1098  0.1700
19393SOL    HW159620   0.551   5.373   2.830 -1.0974  0.9002  3.0278
19393SOL    HW259621   0.430   5.299   2.880 -1.7322 -1.1778 -1.1598
19394SOL     OW59622   0.272   3.316  10.339 -0.3103 -0.2971  0.2944
19394SOL    HW159623   0.276   3.232  10.293 -1.0823 -1.0588  1.5572
19394SOL    HW259624   0.188   3.354  10.313  0.6638  0.8156 -1.4224
19395SOL     OW59625   5.853   4.675  10.364  0.5601  0.5148 -0.4986
19395SOL    HW159626   5.915   4.664  10.436 -0.7830  0.7318  0.7558
19395SOL    HW259627   5.876   4.607  10.301  0.1227 -1.5092  1.3986
19396SOL     OW59628   2.383   1.292   4.279 -0.3538  0.3998 -0.3556
19396SOL    HW159629   2.438   1.299   4.201  0.6338 -0.9421  0.1769
19396SOL    HW259630   2.345   1.379   4.289  0.7123  1.0274 -1.4417
19397SOL     OW59631   2.931   7.162   9.762  0.0051  0.7818 -0.2773
19397SOL    HW159632   2.927   7.165   9.667 -1.3068  1.8311 -0.2140
19397SOL    HW259633   3.023   7.178   9.782  0.7525 -1.6455 -1.3804
19398SOL     OW59634   3.732   2.328   0.796 -0.2372  0.4821 -0.3086
19398SOL    HW159635   3.803   2.374   0.841 -0.0001  0.6980 -0.8816
19398SOL    HW259636   3.666   2.396   0.779 -0.2640  0.4315 -0.4074
19399SOL     OW59637   6.269   7.933   8.052  0.6859  0.2468  0.1006
19399SOL    HW159638   6.265   8.022   8.088 -0.6344  0.1131  0.3259
19399SOL    HW259639   6.356   7.901   8.076  2.2294  2.3586 -2.1271
19400SOL     OW59640   5.414   3.622   0.891 -0.0745  0.4319 -0.1634
19400SOL    HW159641   5.429   3.698   0.834  0.6761 -0.7626 -1.6181
19400SOL    HW259642   5.500   3.604   0.930  0.3293 -1.0340 -1.6249
19401SOL     OW59643   2.153   7.313   4.522 -0.4438  0.2847  0.9789
19401SOL    HW159644   2.113   7.293   4.437 -1.4669  2.8899  0.7252
19401SOL    HW259645   2.165   7.228   4.564 -0.3412 -1.0632 -1.5591
19402SOL     OW59646   7.883   3.931   2.715 -0.2417  0.2473  0.2476
19402SOL    HW159647   7.886   3.970   2.802  0.1309  2.5876 -0.7316
19402SOL    HW259648   7.925   3.846   2.724 -1.5577 -0.2322  2.6321
19403SOL     OW59649   3.749   7.875   0.686  0.2313  0.3983  0.1862
19403SOL    HW159650   3.666   7.859   0.730  0.0357 -0.8438 -0.6087
19403SOL    HW259651   3.773   7.964   0.713 -0.9464  0.4731  1.0611
19404SOL     OW59652   2.145   0.192   8.365  0.2702 -0.6113  0.0744
19404SOL    HW159653   2.209   0.127   8.336 -0.0163 -0.3972 -1.1073
19404SOL    HW259654   2.063   0.144   8.373  0.2050 -0.5358 -0.1309
19405SOL     OW59655   6.152   2.046   5.958 -0.3327  0.3020 -0.1364
19405SOL    HW159656   6.169   2.060   5.865  0.2510 -1.6909 -0.3832
19405SOL    HW259657   6.210   1.974   5.983 -0.6143  0.6577  1.7349
19406SOL     OW59658   3.121   7.798   4.373  0.1195  0.0568 -0.1984
19406SOL    HW159659   3.084   7.770   4.456  2.0002  0.6677  0.8974
19406SOL    HW259660   3.207   7.757   4.370  0.6982  1.2740 -1.1164
19407SOL     OW59661   6.594   6.528  10.439 -0.5742 -0.0016  0.1072
19407SOL    HW159662   6.621   6.606  10.488  0.0110  1.4479 -2.3416
19407SOL    HW259663   6.594   6.556  10.348  0.1480 -3.0217 -0.9438
19408SOL     OW59664   5.609   6.086   9.764 -0.6431 -0.4920  0.4408
19408SOL    HW159665   5.526   6.047   9.735 -0.5076 -0.8000  0.4652
19408SOL    HW259666   5.584   6.171   9.801 -0.8017  0.0226 -0.7833
19409SOL     OW59667   5.567   6.775   6.374  0.7697 -0.0589  0.4986
19409SOL    HW159668   5.599   6.792   6.285  0.6927 -1.0294  0.2767
19409SOL    HW259669   5.628   6.822   6.431  0.1677  1.5022 -0.1007
19410SOL     OW59670   3.016   1.062  12.243 -0.0252  0.0031 -0.7009
19410SOL    HW159671   2.933   1.090  12.204 -1.2481  0.4182  1.9817
19410SOL    HW259672   2.991   1.019  12.324  2.3955 -0.1269  0.0603
19411SOL     OW59673   3.054   3.749   5.004  0.3837  0.4134 -0.2538
19411SOL    HW159674   3.110   3.675   4.982  1.0952  0.1524  2.1856
19411SOL    HW259675   3.090   3.783   5.086 -2.5958  0.6708  1.0561
19412SOL     OW59676   7.784   3.334   9.777  0.0044 -0.2067 -1.3493
19412SOL    HW159677   7.740   3.419   9.785  0.5242 -0.0328  0.1494
19412SOL    HW259678   7.713   3.272   9.759 -0.8064  0.1667  0.3009
19413SOL     OW59679   2.065   7.392   5.741  0.4138 -0.1411  0.0383
19413SOL    HW159680   2.157   7.387   5.718  0.2314  1.4562 -1.2286
19413SOL    HW259681   2.020   7.342   5.673  0.3686 -1.5336  1.0596
19414SOL     OW59682   7.637   2.410  12.296 -0.6417 -0.3665 -0.5453
19414SOL    HW159683   7.684   2.406  12.380 -1.8657 -1.2183  0.1267
19414SOL    HW259684   7.653   2.325  12.256 -0.0864  0.0297 -1.1782
19415SOL     OW59685   6.782   4.344  12.182  0.0986  0.5003  0.0250
19415SOL    HW159686   6.786   4.384  12.096  0.9151  1.6523  0.5752
19415SOL    HW259687   6.698   4.299  12.184 -0.1530  0.8902 -1.1706
19416SOL     OW59688   3.046   6.953   7.145  0.6701 -0.1087  0.3987
19416SOL    HW159689   2.971   6.921   7.195  0.7376 -0.8002  0.0731
19416SOL    HW259690   3.030   6.923   7.056  1.3474 -0.2793  0.3274
19417SOL     OW59691   0.187   2.487   6.442  0.2422 -0.0104 -0.4747
19417SOL    HW159692   0.236   2.461   6.364  0.7435  0.1141 -0.2090
19417SOL    HW259693   0.206   2.418   6.506 -0.1788 -0.1193 -0.4673
19418SOL     OW59694   5.820   0.519   0.648  0.2596 -0.4656 -0.1887
19418SOL    HW159695   5.828   0.577   0.573  1.1055 -0.2631  0.0472
19418SOL    HW259696   5.776   0.572   0.715 -1.6214 -1.0323 -0.9229
19419SOL     OW59697   0.409   6.416   8.140 -0.4149 -0.2003 -0.1232
19419SOL    HW159698   0.474   6.412   8.070 -0.5204  2.4089 -0.4594
19419SOL    HW259699   0.455   6.455   8.214 -1.1771  0.1244  0.1834
19420SOL     OW59700   0.768   2.091   1.264 -0.1058 -0.0886 -0.1381
19420SOL    HW159701   0.860   2.065   1.268 -0.1266 -0.0992  2.8685
19420SOL    HW259702   0.723   2.030   1.323 -1.9739  0.1940 -1.1878
19421SOL     OW59703   2.151   3.647   2.857  0.3812  0.3747  0.1311
19421SOL    HW159704   2.123   3.572   2.805  2.2066 -0.0047 -0.3717
19421SOL    HW259705   2.219   3.689   2.804  0.8964  1.1199  1.3412
19422SOL     OW59706   1.118   0.039   2.829  0.3952  0.1365  0.3221
19422SOL    HW159707   1.046   0.098   2.852 -0.5385 -1.2354  1.0960
19422SOL    HW259708   1.178   0.043   2.903 -0.7053 -1.3848  1.3673
19423SOL     OW59709   5.234   3.999  11.290  0.4955  0.2563 -0.3520
19423SOL    HW159710   5.294   3.936  11.251 -0.2203 -1.0320  0.5409
19423SOL    HW259711   5.251   3.992  11.384  0.8627  1.9054 -0.2678
19424SOL     OW59712   3.650   2.416   7.639  0.2460  0.2528 -0.0511
19424SOL    HW159713   3.704   2.371   7.703  0.7430  0.0239 -0.6170
19424SOL    HW259714   3.626   2.499   7.681 -0.3386 -0.3493  0.8396
19425SOL     OW59715   7.827   3.383   5.371  0.2100 -0.1790 -0.0762
19425SOL    HW159716   7.737   3.349   5.373 -0.7133  1.9204  3.5445
19425SOL    HW259717   7.877   3.320   5.423  0.1684  0.0447  0.2431
19426SOL     OW59718   0.538   5.555   3.720 -0.2945 -0.0203  0.4450
19426SOL    HW159719   0.538   5.604   3.637 -0.1940  0.7952  0.9220
19426SOL    HW259720   0.577   5.470   3.697 -0.3534  0.1625 -0.3633
19427SOL     OW59721   2.807   2.695  10.404 -0.0383 -0.3742  0.1299
19427SOL    HW159722   2.767   2.703  10.317 -0.4019  1.6765  0.4285
19427SOL    HW259723   2.803   2.784  10.440  2.8791 -0.5369  1.0483
19428SOL     OW59724   6.564   6.943   4.005 -0.0857  0.0652 -0.1693
19428SOL    HW159725   6.475   6.918   4.029  0.0653 -0.2203  0.1094
19428SOL    HW259726   6.619   6.875   4.044  0.1585 -0.5376 -1.4989
19429SOL     OW59727   1.514   7.147  10.214 -0.3651 -0.4996 -0.1673
19429SOL    HW159728   1.432   7.195  10.199  1.1792  1.5065 -3.2791
19429SOL    HW259729   1.524   7.091  10.137  1.1243 -0.7869  0.1921
19430SOL     OW59730   7.354   4.235   8.442 -0.5561  0.0109 -0.3211
19430SOL    HW159731   7.265   4.254   8.411 -0.7488  0.2755  0.3822
19430SOL    HW259732   7.397   4.320   8.443 -1.0168  0.2604  1.5692
19431SOL     OW59733   3.147   1.166  11.850 -0.1623  0.0871  0.5897
19431SOL    HW159734   3.150   1.087  11.903  1.0031 -0.6466 -0.5118
19431SOL    HW259735   3.152   1.135  11.759  0.6293  1.4292  0.1437
19432SOL     OW59736   2.192   2.157   0.649 -0.5398 -0.1429  0.0533
19432SOL    HW159737   2.184   2.220   0.720 -0.9892  0.0704 -0.1808
19432SOL    HW259738   2.227   2.079   0.690  0.9424  0.5528  0.1794
19433SOL     OW59739   3.548   2.025   8.017  0.1874 -0.5471  0.0236
19433SOL    HW159740   3.480   1.976   7.971 -1.1183 -0.2862  1.6187
19433SOL    HW259741   3.524   2.117   8.006  1.6337 -0.2976 -1.4147
19434SOL     OW59742   5.972   2.316   5.602  0.2699  0.4221 -0.0603
19434SOL    HW159743   5.978   2.401   5.646 -1.6426  1.1018 -0.9925
19434SOL    HW259744   5.910   2.266   5.655 -0.6059  0.5774 -0.9050
19435SOL     OW59745   2.466   7.184   4.796  0.6311 -0.6282 -0.9726
19435SOL    HW159746   2.435   7.263   4.751  2.4779 -0.3183 -1.8166
19435SOL    HW259747   2.407   7.174   4.871  2.1259  3.3578  0.9990
19436SOL     OW59748   7.339   6.998   8.824  0.0984  0.5064 -0.1414
19436SOL    HW159749   7.308   6.937   8.891 -1.0398 -0.1137 -1.1801
19436SOL    HW259750   7.388   6.943   8.763 -0.5532  0.6956 -0.8460
19437SOL     OW59751   1.295   6.627   9.588 -0.4285  0.4268  0.1740
19437SOL    HW159752   1.275   6.534   9.582 -0.5221  0.4198  0.5944
19437SOL    HW259753   1.213   6.671   9.566  0.1590  0.4472 -2.2503
19438SOL     OW59754   3.672   4.241   4.114 -0.4563 -0.4070 -0.0005
19438SOL    HW159755   3.707   4.152   4.116  1.0098  0.1471  0.3753
19438SOL    HW259756   3.743   4.293   4.076  0.0001  1.1287  2.7423
19439SOL     OW59757   2.177   2.049   2.887  0.4354 -0.2358 -0.3059
19439SOL    HW159758   2.178   2.009   2.974  0.1706  1.1405  0.3497
19439SOL    HW259759   2.204   1.978   2.828  2.6759 -0.6640  1.1043
19440SOL     OW59760   1.291   6.345  10.854 -0.2530  0.5536 -0.4900
19440SOL    HW159761   1.360   6.290  10.891 -0.0106  1.4208  0.3835
19440SOL    HW259762   1.265   6.402  10.926 -0.9109  1.1828 -1.2125
19441SOL     OW59763   0.522   7.906   0.395 -0.0832 -0.5025 -0.1237
19441SOL    HW159764   0.555   7.830   0.444 -1.9862 -0.8856  0.6433
19441SOL    HW259765   0.490   7.966   0.462  0.3476  0.4766 -0.7810
19442SOL     OW59766   1.404   7.613   6.365 -0.0540  0.1364  0.1934
19442SOL    HW159767   1.361   7.698   6.377  0.0765  0.1603  0.4965
19442SOL    HW259768   1.486   7.620   6.413  0.4471  0.2004 -0.6481
19443SOL     OW59769   1.869   2.768   4.757 -0.2266  0.4046  0.1273
19443SOL    HW159770   1.934   2.836   4.739 -0.3575  0.5324  0.1288
19443SOL    HW259771   1.801   2.782   4.691  0.4525 -0.6772 -0.8421
19444SOL     OW59772   5.729   5.995   3.076  0.4676  0.4466  0.1925
19444SOL    HW159773   5.791   6.023   3.143  0.9871 -1.0116  0.3753
19444SOL    HW259774   5.783   5.975   2.999  0.0946  0.2457 -0.0246
19445SOL     OW59775   0.632   3.034  10.985  0.2513  0.4976  0.5640
19445SOL    HW159776   0.568   2.998  10.923 -0.2760  1.0421  0.7918
19445SOL    HW259777   0.717   3.009  10.948 -0.0654  0.5297 -0.2077
19446SOL     OW59778   0.785   7.630   4.513 -0.8405 -0.0749 -0.1925
19446SOL    HW159779   0.835   7.705   4.482  0.8555 -1.6499 -1.5571
19446SOL    HW259780   0.812   7.558   4.455 -2.5275 -1.6956  0.9064
19447SOL     OW59781   1.736   6.638   0.769  0.1422 -0.7960  0.0892
19447SOL    HW159782   1.792   6.582   0.714 -0.5395  0.2630 -1.7941
19447SOL    HW259783   1.669   6.578   0.802  0.2757 -1.3911 -0.6710
19448SOL     OW59784   3.599   5.978   7.501 -0.3161  0.3203 -0.1249
19448SOL    HW159785   3.599   5.886   7.526 -0.9826  0.5744  0.8795
19448SOL    HW259786   3.585   5.978   7.407 -0.3531 -0.6071 -0.1218
19449SOL     OW59787   6.639   2.811   5.936  0.4880  0.2457  0.4937
19449SOL    HW159788   6.652   2.878   5.869  1.4279  1.5962  1.9484
19449SOL    HW259789   6.726   2.775   5.951  0.2849 -0.0579  0.9594
19450SOL     OW59790   7.022   0.996   8.171 -0.0256 -0.0684 -0.0438
19450SOL    HW159791   7.020   1.032   8.082 -1.4482 -0.0001  0.0034
19450SOL    HW259792   7.035   1.072   8.227 -3.1373  0.5225  0.0647
19451SOL     OW59793   6.046   1.606   0.150  0.1721 -0.4719  0.2405
19451SOL    HW159794   6.041   1.585   0.057  1.2321 -1.0798  0.2979
19451SOL    HW259795   5.980   1.673   0.163 -1.7538 -2.1227 -0.4404
19452SOL     OW59796   4.880   0.370   3.186  0.1741 -0.1792 -0.0708
19452SOL    HW159797   4.859   0.462   3.200 -0.2912  0.0429 -1.9559
19452SOL    HW259798   4.952   0.352   3.246  1.6461  1.9802 -1.0695
19453SOL     OW59799   7.237   5.195   9.909 -0.4889  0.2212  0.2261
19453SOL    HW159800   7.308   5.257   9.893 -1.3650  1.0820 -0.4846
19453SOL    HW259801   7.280   5.116   9.941  0.6585  1.2531  1.3634
19454SOL     OW59802   2.270   1.620   3.799 -0.1587 -0.2383  0.4451
19454SOL    HW159803   2.324   1.630   3.877  0.0953  0.3500  0.1962
19454SOL    HW259804   2.182   1.648   3.828 -0.4023 -1.4111  0.9101
19455SOL     OW59805   7.707   5.708   0.760  0.7303 -0.2613  0.1636
19455SOL    HW159806   7.711   5.801   0.783  0.3814 -0.2539  0.1985
19455SOL    HW259807   7.735   5.705   0.668  0.7167 -0.1215  0.1545
19456SOL     OW59808   0.431   7.584   3.472 -0.6543 -0.4516  0.0593
19456SOL    HW159809   0.413   7.634   3.551  0.0895  1.8060 -1.1130
19456SOL    HW259810   0.345   7.563   3.436 -0.9862  0.2827  0.4075
19457SOL     OW59811   6.072   3.887   8.863 -0.3305  0.0024 -0.1705
19457SOL    HW159812   6.027   3.805   8.841 -0.8785  0.0482  0.7345
19457SOL    HW259813   6.033   3.951   8.803 -0.7117 -0.1799 -0.1256
19458SOL     OW59814   1.964   0.067   0.481 -0.5928 -0.5416 -0.3409
19458SOL    HW159815   1.975   0.070   0.386 -0.0397 -1.4307 -0.3214
19458SOL    HW259816   2.027   0.131   0.514  0.6725 -1.6452 -0.5044
19459SOL     OW59817   4.397   0.904   3.340  0.3413 -0.1152  0.1989
19459SOL    HW159818   4.312   0.903   3.384  1.0721 -0.2972  1.6509
19459SOL    HW259819   4.383   0.961   3.264 -0.9951  0.1000  0.5706
19460SOL     OW59820   2.224   1.419   1.972  0.0717  0.2614 -0.2404
19460SOL    HW159821   2.203   1.508   1.942 -1.0413  0.5751  1.3499
19460SOL    HW259822   2.281   1.432   2.048 -2.3687 -0.2093  1.7865
19461SOL     OW59823   6.678   3.997   2.682  0.5945 -0.3406 -0.0020
19461SOL    HW159824   6.723   4.031   2.760  0.6811  1.1717 -0.6836
19461SOL    HW259825   6.704   4.055   2.611  1.0669 -2.0922 -1.3482
19462SOL     OW59826   5.341   2.526   0.338 -0.2640 -0.3871 -0.5223
19462SOL    HW159827   5.410   2.481   0.288  1.9195  0.6634  1.3652
19462SOL    HW259828   5.362   2.619   0.330 -1.0113 -0.0881  0.7414
19463SOL     OW59829   4.642   2.849   1.211  0.2574 -0.6594  0.3420
19463SOL    HW159830   4.695   2.832   1.289 -0.6069 -1.8303  0.7136
19463SOL    HW259831   4.552   2.834   1.240 -0.4857  2.5987  0.1086
19464SOL     OW59832   4.409   3.967  10.374  0.1669 -0.3002  0.3110
19464SOL    HW159833   4.345   4.039  10.368 -0.5521 -0.9467  0.0959
19464SOL    HW259834   4.378   3.913  10.447 -1.5784 -2.5433 -1.9147
19465SOL     OW59835   2.876   0.058   6.686  0.2232 -0.1584  0.2135
19465SOL    HW159836   2.934   0.073   6.761 -0.1389  3.0522  0.0139
19465SOL    HW259837   2.816  -0.010   6.714  0.7847  0.1992  2.4409
19466SOL     OW59838   2.041   7.479  10.240  0.5815 -0.9641 -0.6211
19466SOL    HW159839   2.116   7.419  10.244  0.4035 -1.1325  2.6275
19466SOL    HW259840   2.079   7.565  10.257  0.2564 -0.7626 -0.9074
19467SOL     OW59841   2.578   4.252   4.432 -0.5957  0.0350  0.2260
19467SOL    HW159842   2.507   4.316   4.428 -0.6087  0.0472  0.6917
19467SOL    HW259843   2.536   4.169   4.453 -0.4668  0.0488  0.5371
19468SOL     OW59844   1.252   2.093   4.143  0.2389 -0.3611 -0.7398
19468SOL    HW159845   1.191   2.167   4.143 -0.0858 -0.6298 -0.7303
19468SOL    HW259846   1.197   2.016   4.137  0.6537 -0.5532 -2.5637
19469SOL     OW59847   3.173   2.029   1.130  0.3872 -0.5443 -0.5629
19469SOL    HW159848   3.198   2.098   1.191 -2.4179  0.9406 -0.9084
19469SOL    HW259849   3.249   1.971   1.127  2.5851  2.0417  0.3940
19470SOL     OW59850   4.990   7.658   0.528 -0.0582  0.6558 -0.0582
19470SOL    HW159851   4.928   7.671   0.456 -0.6796  0.2284  0.3872
19470SOL    HW259852   5.008   7.746   0.560  0.4279  0.8698 -0.8995
19471SOL     OW59853   0.275   6.842  10.127 -0.2581  0.3953  0.0838
19471SOL    HW159854   0.326   6.808  10.053 -0.5052 -0.1632  0.1609
19471SOL    HW259855   0.287   6.937  10.123 -2.1317  0.6533 -2.1153
19472SOL     OW59856   4.725   5.545  10.227 -0.0261 -0.0241 -0.1897
19472SOL    HW159857   4.681   5.535  10.143  1.8285 -1.2058 -1.0717
19472SOL    HW259858   4.765   5.632  10.224  0.6331 -0.3401 -0.8563
19473SOL     OW59859   5.678   5.673  10.050 -0.2632  0.0668 -0.2259
19473SOL    HW159860   5.676   5.642  10.141  1.4532 -0.8003 -0.4394
19473SOL    HW259861   5.629   5.755  10.051 -0.5180 -0.0787  1.4281
19474SOL     OW59862   6.573   7.866   9.078 -0.1440  0.1796 -0.2790
19474SOL    HW159863   6.478   7.869   9.080 -0.2168 -0.4862 -1.5194
19474SOL    HW259864   6.594   7.775   9.055  0.8439 -0.0826  1.5063
19475SOL     OW59865   7.823   6.123   2.597  0.7004 -0.5103 -0.2508
19475SOL    HW159866   7.885   6.185   2.636 -1.6369  2.7479 -1.1987
19475SOL    HW259867   7.781   6.081   2.671  0.9617  0.5655  0.5359
19476SOL     OW59868   2.169   5.395   7.918  0.1755  0.2931 -0.0570
19476SOL    HW159869   2.178   5.301   7.902 -1.0753  0.3045 -0.9975
19476SOL    HW259870   2.258   5.430   7.907  0.6163 -0.7400  0.1050
19477SOL     OW59871   2.625   3.036  10.035 -0.4899  0.1393  0.3675
19477SOL    HW159872   2.599   3.102  10.100 -1.1036 -0.3471  0.6291
19477SOL    HW259873   2.581   2.956  10.064 -1.0518 -0.0098 -0.8363
19478SOL     OW59874   1.557   2.005  11.414  0.0028 -0.0831  0.6565
19478SOL    HW159875   1.578   1.956  11.335 -0.4067 -0.9736  1.0889
19478SOL    HW259876   1.630   1.986  11.474 -0.7238 -1.1289  1.2413
19479SOL     OW59877   2.447   0.069   5.532 -0.6172  0.2876 -0.2223
19479SOL    HW159878   2.492   0.057   5.449  0.1232  2.3328 -0.1591
19479SOL    HW259879   2.509   0.039   5.598 -0.6113  0.1138 -0.3051
19480SOL     OW59880   0.708   5.568   0.898 -0.5933 -0.6771 -0.0827
19480SOL    HW159881   0.633   5.508   0.899 -0.4233 -0.9504 -1.5296
19480SOL    HW259882   0.746   5.560   0.986 -1.4205 -1.6016  0.2101
19481SOL     OW59883   2.782   3.117   0.130  0.1943 -0.3255  0.6431
19481SOL    HW159884   2.808   3.195   0.179  0.4168 -0.8599  1.3961
19481SOL    HW259885   2.687   3.119   0.130  0.1841  0.6017 -0.4326
19482SOL     OW59886   1.983   3.977   9.188  0.1866  0.3961 -0.0150
19482SOL    HW159887   1.957   3.975   9.096  1.3139  0.0906 -0.3383
19482SOL    HW259888   1.967   4.067   9.215  0.0373  0.5390 -0.5663
19483SOL     OW59889   6.404   1.909  12.416 -0.2959 -0.4805 -0.6327
19483SOL    HW159890   6.421   1.866  12.332  0.2480 -0.0179 -0.7632
19483SOL    HW259891   6.314   1.940  12.409 -0.2689 -0.4848 -1.0292
19484SOL     OW59892   6.036   3.526   7.554 -0.2218 -0.6410 -0.4098
19484SOL    HW159893   5.973   3.547   7.623  1.1310 -0.6733  0.8747
19484SOL    HW259894   6.119   3.559   7.586  0.3232  0.0649 -2.3992
19485SOL     OW59895   2.156   4.456   5.783  0.1402 -0.1212 -0.0375
19485SOL    HW159896   2.089   4.449   5.715 -0.1053  0.2835  0.1517
19485SOL    HW259897   2.231   4.410   5.748 -0.7852 -2.0974  0.4629
19486SOL     OW59898   6.352   1.731  10.912  0.2666  0.2656  0.3410
19486SOL    HW159899   6.412   1.805  10.924  3.2038 -1.4029 -2.3146
19486SOL    HW259900   6.400   1.655  10.948 -1.9128 -0.6683  1.4520
19487SOL     OW59901   2.390   6.589   7.706  0.5759  0.4724  0.3571
19487SOL    HW159902   2.352   6.661   7.756  0.6091  0.5501  0.2709
19487SOL    HW259903   2.376   6.613   7.615  0.5260  0.3360  0.3293
19488SOL     OW59904   6.422   4.426   3.149 -0.0117  0.3567  0.2833
19488SOL    HW159905   6.452   4.336   3.152  0.3230  0.4957  1.6731
19488SOL    HW259906   6.329   4.421   3.171  0.0295  0.3669  0.4570
19489SOL     OW59907   1.101   3.167  11.867 -0.5766 -0.2245 -0.1542
19489SOL    HW159908   1.112   3.151  11.961 -1.4212  0.2602  0.0329
19489SOL    HW259909   1.163   3.238  11.848 -0.8456  0.1027  0.1698
19490SOL     OW59910   7.761   4.089   8.521 -0.0769  0.3697 -0.5818
19490SOL    HW159911   7.724   4.110   8.435 -0.4236  0.5274 -0.3967
19490SOL    HW259912   7.747   4.168   8.573 -1.2673 -0.2410  0.0782
19491SOL     OW59913   2.549   4.210   1.631 -0.4797  0.0662  0.1496
19491SOL    HW159914   2.592   4.235   1.550  1.0895  0.4051  1.0352
19491SOL    HW259915   2.509   4.291   1.664 -0.1348  0.1891  0.2719
19492SOL     OW59916   3.276   3.830   9.836 -0.4556  0.0062 -0.2844
19492SOL    HW159917   3.200   3.844   9.893  1.1549 -0.3622  2.1196
19492SOL    HW259918   3.301   3.739   9.851  0.0019 -0.1211 -1.6627
19493SOL     OW59919   6.650   2.218   1.327 -0.0253 -0.3171  0.7661
19493SOL    HW159920   6.586   2.257   1.268 -1.2992 -0.9452  1.6806
19493SOL    HW259921   6.735   2.241   1.289 -0.7767 -0.6798 -1.2952
19494SOL     OW59922   2.052   2.138   3.483  0.3272 -0.0893 -0.0410
19494SOL    HW159923   2.101   2.217   3.459  0.3460  0.1051  0.6204
19494SOL    HW259924   2.107   2.095   3.548  0.0650 -0.3683 -0.0064
19495SOL     OW59925   3.085   1.170  10.632 -0.1930 -0.0700 -0.0972
19495SOL    HW159926   3.097   1.203  10.721  0.8602 -0.4158 -0.0955
19495SOL    HW259927   3.170   1.183  10.590 -0.1899 -1.3655 -0.5462
19496SOL     OW59928   5.180   5.482   0.501  0.2273  0.2338 -0.3204
19496SOL    HW159929   5.198   5.567   0.541  0.5321 -0.4493  1.0779
19496SOL    HW259930   5.266   5.441   0.492 -0.0047 -0.3545  0.0497
19497SOL     OW59931   4.074   3.164   3.322  0.5396  0.6167  1.1239
19497SOL    HW159932   4.093   3.102   3.392  1.8340  1.5131  1.5918
19497SOL    HW259933   4.085   3.250   3.362 -0.2138  1.1607  0.2138
19498SOL     OW59934   6.578   3.083   1.587 -0.2144 -0.4053  0.0744
19498SOL    HW159935   6.668   3.112   1.596 -0.4128  0.1713  0.2687
19498SOL    HW259936   6.528   3.164   1.572 -0.7954 -0.6287  0.7340
19499SOL     OW59937   3.823   4.239   8.151 -0.0820  0.8361  0.5880
19499SOL    HW159938   3.851   4.155   8.115  2.4849  0.7840  2.4378
19499SOL    HW259939   3.732   4.226   8.177  0.5375 -1.7410  1.7434
19500SOL     OW59940   3.818   1.972   9.842 -0.3901 -0.3018  0.0790
19500SOL    HW159941   3.883   1.991   9.775 -0.3559  0.2220  0.2590
19500SOL    HW259942   3.834   2.036   9.911 -0.2333 -1.0250  0.7286
19501SOL     OW59943   1.638   4.610   4.765 -0.1166  0.5604  0.3962
19501SOL    HW159944   1.718   4.625   4.716 -1.2373 -1.2568 -2.2364
19501SOL    HW259945   1.623   4.692   4.812  2.5555  1.4034 -0.0594
19502SOL     OW59946   5.001   6.559  10.896  0.2931 -0.5607  0.4141
19502SOL    HW159947   5.001   6.645  10.854 -0.5308 -1.0349 -0.6208
19502SOL    HW259948   4.977   6.577  10.987  0.5948  0.3481  0.3231
19503SOL     OW59949   2.582   7.711   0.344 -0.3264 -0.2080 -0.2917
19503SOL    HW159950   2.637   7.696   0.421 -0.5587  0.8182  0.0807
19503SOL    HW259951   2.513   7.645   0.351 -0.6937  0.2646  0.7127
19504SOL     OW59952   1.433   4.179   5.850 -0.5848 -0.6088  0.0303
19504SOL    HW159953   1.413   4.202   5.941 -2.3121 -1.6006 -0.0443
19504SOL    HW259954   1.349   4.149   5.815  0.2585 -1.1105 -1.6299
19505SOL     OW59955   0.353   6.165   8.938 -0.0109  0.3102  0.2154
19505SOL    HW159956   0.408   6.232   8.895 -0.6457  1.1950  0.7574
19505SOL    HW259957   0.339   6.099   8.870  0.6742  0.6918 -0.3139
19506SOL     OW59958   7.976   7.494   3.674 -0.4533 -0.6534  0.1893
19506SOL    HW159959   7.937   7.529   3.594  1.0030  0.6358  0.0030
19506SOL    HW259960   8.049   7.441   3.644  0.7552  0.6929  0.6690
19507SOL     OW59961   7.897   4.897  12.199  0.1402  0.0779  0.4865
19507SOL    HW159962   7.874   4.866  12.112  1.6103  1.3508 -0.4105
19507SOL    HW259963   7.813   4.920  12.239 -0.6962 -2.0845  0.0707
19508SOL     OW59964   4.545   0.207   0.536  0.4473 -0.1751 -0.0168
19508SOL    HW159965   4.578   0.233   0.450  1.0446  0.9450  0.5277
19508SOL    HW259966   4.613   0.149   0.571  0.9679  0.6271  0.3308
19509SOL     OW59967   7.712   7.631   0.911 -0.3321  0.1218 -0.1646
19509SOL    HW159968   7.618   7.624   0.894 -0.8829  0.5567  2.3024
19509SOL    HW259969   7.719   7.700   0.977  1.5553 -1.0572  0.9479
19510SOL     OW59970   6.333   4.411   4.154  0.0433  0.5119 -0.0704
19510SOL    HW159971   6.366   4.498   4.178  0.1326  0.2012  0.9828
19510SOL    HW259972   6.302   4.374   4.237  2.3791 -1.4954  0.0131
19511SOL     OW59973   3.350   2.376   0.235  0.3225  0.4037 -0.3065
19511SOL    HW159974   3.287   2.424   0.288  1.0143  2.1283 -0.9348
19511SOL    HW259975   3.331   2.404   0.145  1.7915  0.8011 -0.5305
19512SOL     OW59976   4.048   5.663   6.246  0.0157 -0.1959  0.4794
19512SOL    HW159977   4.144   5.662   6.239  0.0411  0.0124  0.7625
19512SOL    HW259978   4.020   5.580   6.207  0.2780 -0.0490 -0.0355
19513SOL     OW59979   5.844   7.868   3.694 -0.3591 -0.1894 -0.1594
19513SOL    HW159980   5.868   7.778   3.672  0.4101  0.3538 -1.7180
19513SOL    HW259981   5.773   7.888   3.633  0.6343  0.8001 -1.0329
19514SOL     OW59982   6.158   0.461  10.626  0.4260  0.2129  0.2134
19514SOL    HW159983   6.069   0.427  10.637 -0.2997  2.1079  0.7303
19514SOL    HW259984   6.213   0.399  10.674 -0.7227 -0.5591  0.5906
19515SOL     OW59985   2.640   4.557   1.946  0.8288 -0.1999  0.2105
19515SOL    HW159986   2.733   4.556   1.970  1.4101 -0.8800 -1.8186
19515SOL    HW259987   2.594   4.573   2.028  2.7099 -0.3195  1.3555
19516SOL     OW59988   2.465   5.879   7.314 -0.0557 -0.2358  0.1365
19516SOL    HW159989   2.371   5.872   7.296 -0.3801  1.8695  0.7284
19516SOL    HW259990   2.507   5.845   7.235 -1.2895 -1.1450 -0.1644
19517SOL     OW59991   7.202   6.468   4.866 -0.2722 -0.0001 -0.0844
19517SOL    HW159992   7.189   6.374   4.852  0.1602 -0.1063  0.2156
19517SOL    HW259993   7.169   6.484   4.955 -2.1793  0.5072 -0.8279
19518SOL     OW59994   2.383   6.472   7.141  0.2839 -0.1782  0.7024
19518SOL    HW159995   2.413   6.382   7.126  0.1893 -0.2790  1.0866
19518SOL    HW259996   2.289   6.464   7.158  0.1791  0.0523  0.2501
19519SOL     OW59997   5.877   5.115   9.910  0.2826 -0.0475  0.0319
19519SOL    HW159998   5.876   5.174   9.834 -2.5928 -2.4748 -2.0319
19519SOL    HW259999   5.970   5.095   9.923  0.9353  0.9353 -2.4374
19520SOL     OW60000   3.850   5.576   4.755 -0.3488 -0.3063 -0.5546
19520SOL    HW160001   3.936   5.535   4.761 -0.4733 -0.5283 -0.2728
19520SOL    HW260002   3.834   5.613   4.841  0.1466  1.1248 -1.0535
19521SOL     OW60003   0.271   3.122   3.899 -0.0344  0.5083  0.6151
19521SOL    HW160004   0.243   3.056   3.963 -1.9373  1.1496  0.4926
19521SOL    HW260005   0.314   3.072   3.830 -1.9197 -0.7075  0.2636
19522SOL     OW60006   6.729   4.801   3.933 -0.8034 -0.1510  0.5384
19522SOL    HW160007   6.812   4.800   3.885 -1.2857 -1.4143 -0.3339
19522SOL    HW260008   6.735   4.878   3.990 -0.4430  1.8387 -1.9827
19523SOL     OW60009   0.821   1.303   9.153 -0.6689 -0.1064  1.0863
19523SOL    HW160010   0.893   1.242   9.171 -0.0260  0.3037  0.0065
19523SOL    HW260011   0.831   1.371   9.220 -0.2947 -0.2637  1.1969
19524SOL     OW60012   4.764   6.239   4.168  0.1482  0.3121  0.2703
19524SOL    HW160013   4.760   6.163   4.109  0.6616  0.8182 -0.4294
19524SOL    HW260014   4.847   6.228   4.215  0.0216  0.2229  0.4754
19525SOL     OW60015   7.561   6.730   4.587  0.0969  0.2543 -0.0201
19525SOL    HW160016   7.523   6.805   4.632 -0.0229  1.0752 -1.4160
19525SOL    HW260017   7.577   6.666   4.656  4.3043  3.0921  2.0872
19526SOL     OW60018   3.651   3.169   9.115 -0.4502  0.2292 -0.0638
19526SOL    HW160019   3.569   3.128   9.088  0.2723 -2.3087  1.2988
19526SOL    HW260020   3.627   3.224   9.190 -1.2045  1.3266 -1.0592
19527SOL     OW60021   6.009   6.391  10.948  0.0729  0.1815  0.1748
19527SOL    HW160022   6.092   6.429  10.917 -0.7617  0.9809 -1.1478
19527SOL    HW260023   5.967   6.462  10.997 -0.4714  0.2520 -0.3850
19528SOL     OW60024   6.995   2.401   2.955  0.0459 -0.1005  0.1956
19528SOL    HW160025   7.084   2.390   2.986 -0.1403 -1.6841  0.2167
19528SOL    HW260026   6.968   2.486   2.991  2.0137  1.1630 -1.0724
19529SOL     OW60027   4.927   3.680  12.213 -0.1121 -0.2813  0.2448
19529SOL    HW160028   4.994   3.746  12.199 -2.1026  2.1151  1.2735
19529SOL    HW260029   4.870   3.686  12.136 -0.6447 -0.3423  0.6278
19530SOL     OW60030   5.042   5.469   4.080 -0.0200 -0.1430  0.1042
19530SOL    HW160031   5.098   5.540   4.112 -1.3155  1.3145 -0.7138
19530SOL    HW260032   4.957   5.511   4.066 -0.8822 -1.9234 -0.2290
19531SOL     OW60033   1.843   1.579   1.408 -0.0686 -0.0796 -0.0971
19531SOL    HW160034   1.928   1.555   1.369  0.7134  0.3698  1.2443
19531SOL    HW260035   1.821   1.663   1.368  0.0231 -0.2898 -0.5942
19532SOL     OW60036   7.861   1.322  11.728 -0.1869 -0.2938  0.0482
19532SOL    HW160037   7.857   1.285  11.816 -1.2715 -0.2854  0.0186
19532SOL    HW260038   7.946   1.366  11.724 -0.5345  0.5709  1.4549
19533SOL     OW60039   3.170   3.028  10.326  0.1405 -0.0332  0.2476
19533SOL    HW160040   3.102   2.994  10.268  1.5856 -0.3798 -1.3587
19533SOL    HW260041   3.166   3.123  10.313 -1.5603  0.1973  2.0183
19534SOL     OW60042   4.898   6.104   8.066 -0.4768 -0.2231  0.7609
19534SOL    HW160043   4.871   6.073   7.979 -0.4075  0.9105  0.3244
19534SOL    HW260044   4.832   6.069   8.125 -0.8284 -0.5563  0.1816
19535SOL     OW60045   1.070   7.189   4.984 -0.0027 -0.4684 -0.1280
19535SOL    HW160046   1.025   7.222   5.062 -0.3068 -0.2409 -0.3964
19535SOL    HW260047   1.017   7.114   4.956  0.5712 -1.0713  0.3610
19536SOL     OW60048   5.749   3.924   9.171 -0.0914 -0.1617  0.5131
19536SOL    HW160049   5.732   3.867   9.246 -0.6219 -0.9809 -0.2036
19536SOL    HW260050   5.769   4.009   9.209 -0.0946 -0.6249  1.5880
19537SOL     OW60051   7.062   6.080   1.767  0.2122  0.1504  0.1864
19537SOL    HW160052   7.101   6.151   1.716 -1.4350  1.2676  0.4132
19537SOL    HW260053   7.103   6.086   1.853  3.9899 -2.5475 -1.1255
19538SOL     OW60054   7.649   7.690   9.604  0.5211 -0.0968 -0.5732
19538SOL    HW160055   7.583   7.665   9.668  1.3284  1.2865  0.8762
19538SOL    HW260056   7.641   7.785   9.597  4.8543  0.8394  2.7597
19539SOL     OW60057   7.839   0.941   7.911  0.1570  0.4008 -0.7401
19539SOL    HW160058   7.878   0.879   7.849 -1.9231 -2.1428  0.2607
19539SOL    HW260059   7.879   0.919   7.995  0.4026  1.3914 -0.5907
19540SOL     OW60060   5.397   2.488  11.813 -0.2491 -0.6268  0.1996
19540SOL    HW160061   5.481   2.534  11.817 -0.3866 -0.3122 -0.4508
19540SOL    HW260062   5.414   2.404  11.857  0.0661 -0.0689  1.1620
19541SOL     OW60063   4.430   2.524   5.342 -0.7328  0.3195 -0.6696
19541SOL    HW160064   4.466   2.435   5.344 -0.1228  0.5409 -1.2886
19541SOL    HW260065   4.338   2.512   5.322 -0.6180 -0.1693 -0.9307
19542SOL     OW60066   3.047   0.896   1.987 -0.2834 -0.1037  0.1267
19542SOL    HW160067   3.106   0.850   1.927 -0.2954  1.4989 -1.2042
19542SOL    HW260068   3.092   0.894   2.071  1.5817  0.7957 -0.7689
19543SOL     OW60069   2.568   4.634   4.200  0.9039  0.1419  0.3808
19543SOL    HW160070   2.615   4.567   4.149  0.7489  0.7879 -0.6593
19543SOL    HW260071   2.516   4.681   4.134  0.5098  0.8562  1.1889
19544SOL     OW60072   7.049   4.771   5.867 -0.0095  0.7483  0.7901
19544SOL    HW160073   7.091   4.850   5.901 -0.9909  1.2212  0.9384
19544SOL    HW260074   7.077   4.767   5.776  1.3517  0.3590  1.2067
19545SOL     OW60075   1.746   5.457   0.141  0.3990 -0.0608  0.3363
19545SOL    HW160076   1.781   5.522   0.201  2.8032  0.4080 -1.4081
19545SOL    HW260077   1.706   5.508   0.071 -0.0178 -0.5307  0.2282
19546SOL     OW60078   0.126   5.904   7.838  0.0442 -0.3066  0.7873
19546SOL    HW160079   0.043   5.939   7.808 -0.6219 -2.0001  0.5743
19546SOL    HW260080   0.156   5.847   7.767  1.3497  0.1954  0.9015
19547SOL     OW60081   6.514   7.871  11.676 -0.0834 -0.1116  0.5040
19547SOL    HW160082   6.546   7.889  11.765 -2.0490  0.9810  1.0593
19547SOL    HW260083   6.424   7.840  11.689 -0.8112  1.1500 -1.1439
19548SOL     OW60084   4.273   2.702   6.144 -0.1226  0.3428 -0.0423
19548SOL    HW160085   4.368   2.712   6.152  0.2485 -1.3599 -1.6131
19548SOL    HW260086   4.247   2.659   6.226  0.7445 -0.7456 -0.3134
19549SOL     OW60087   3.448   4.127   2.526 -0.0118 -0.2253  0.0177
19549SOL    HW160088   3.509   4.192   2.560 -0.3486 -0.3604  0.8908
19549SOL    HW260089   3.495   4.086   2.453  1.1703 -0.7229  1.0319
19550SOL     OW60090   3.444   2.979   6.488 -0.4042  0.2867 -0.0342
19550SOL    HW160091   3.529   3.005   6.453 -0.2330 -1.4453 -0.9482
19550SOL    HW260092   3.431   3.039   6.562  1.9416  0.1403  0.6032
19551SOL     OW60093   6.079   0.548   0.136 -0.6699  0.3253  0.2845
19551SOL    HW160094   6.155   0.520   0.084 -1.8633 -2.1857 -0.2626
19551SOL    HW260095   6.097   0.513   0.223 -1.9067 -1.8584 -0.2632
19552SOL     OW60096   7.851   6.627   8.474  0.6349  0.0326  0.3421
19552SOL    HW160097   7.939   6.621   8.511  0.9739 -0.5677 -0.5453
19552SOL    HW260098   7.864   6.633   8.380 -0.2810 -0.0643  0.1968
19553SOL     OW60099   4.293   0.080   5.196  0.3819 -0.1239  0.4714
19553SOL    HW160100   4.275  -0.011   5.172  1.7057 -0.2179 -0.2352
19553SOL    HW260101   4.334   0.075   5.282 -0.4845 -0.1071  0.8929
19554SOL     OW60102   0.868   7.669  11.209  0.1236  0.0984 -0.0768
19554SOL    HW160103   0.850   7.576  11.196 -0.8927  0.0449  1.4682
19554SOL    HW260104   0.797   7.714  11.162 -0.0190  0.0651  0.1076
19555SOL     OW60105   1.371   5.642   9.850  0.0784 -0.2661 -0.4159
19555SOL    HW160106   1.452   5.661   9.898 -0.7919 -0.3622  1.1769
19555SOL    HW260107   1.385   5.555   9.813  0.8707 -0.0828 -0.5710
19556SOL     OW60108   1.369   5.373   5.445  0.3580  0.1653  0.5058
19556SOL    HW160109   1.337   5.288   5.475 -2.3539  0.4590 -1.2277
19556SOL    HW260110   1.432   5.352   5.376 -1.0198 -0.5014 -0.5936
19557SOL     OW60111   2.285   0.757   4.398  0.2585 -0.0895  0.1551
19557SOL    HW160112   2.369   0.728   4.362  0.1864 -1.7194  1.1817
19557SOL    HW260113   2.288   0.853   4.394  1.6205 -0.1544 -1.0076
19558SOL     OW60114   2.568   6.387   2.649  0.2053  0.4999 -0.8552
19558SOL    HW160115   2.484   6.432   2.658  1.2476  2.1108  4.0163
19558SOL    HW260116   2.619   6.440   2.589 -1.2238  1.2617 -1.4255
19559SOL     OW60117   4.156   5.972  10.227 -0.8389 -0.6651  0.0440
19559SOL    HW160118   4.080   5.940  10.180 -1.4838 -0.8999  1.2123
19559SOL    HW260119   4.187   5.896  10.277  1.3593 -1.1501 -1.8586
19560SOL     OW60120   3.118   0.298   1.140 -0.1609 -0.0660 -0.1766
19560SOL    HW160121   3.184   0.277   1.074  1.9856  0.5363  1.6412
19560SOL    HW260122   3.096   0.390   1.124 -1.0036 -0.4102 -1.1078
19561SOL     OW60123   4.052   3.007   3.545  0.2470  0.3759 -0.4161
19561SOL    HW160124   3.969   2.965   3.569 -0.3554  1.9489  0.4254
19561SOL    HW260125   4.116   2.936   3.547 -0.8377 -0.6252  0.2716
19562SOL     OW60126   7.934   7.417   5.383 -0.2608  0.2739  0.1252
19562SOL    HW160127   7.927   7.510   5.407  0.4057  0.5224 -0.6061
19562SOL    HW260128   7.880   7.409   5.304  2.3786  0.8581 -1.9073
19563SOL     OW60129   4.738   0.231   1.823 -0.1266  0.3829  0.0006
19563SOL    HW160130   4.768   0.217   1.733 -0.2061  0.6206 -0.0645
19563SOL    HW260131   4.726   0.144   1.859  0.0844  0.2869 -0.1623
19564SOL     OW60132   7.857   1.937   3.965 -0.0459  0.3133  0.1436
19564SOL    HW160133   7.894   1.931   4.053 -0.6120 -1.2212  0.2996
19564SOL    HW260134   7.774   1.983   3.977 -0.3470 -0.3108  0.4955
19565SOL     OW60135   6.361   6.222   0.144 -0.0434 -0.1529  0.0209
19565SOL    HW160136   6.274   6.240   0.181 -0.5057  1.1972 -1.5922
19565SOL    HW260137   6.343   6.166   0.068  0.3965  0.6769 -0.7145
19566SOL     OW60138   3.723   7.915   8.307  0.5682  0.0430  0.2378
19566SOL    HW160139   3.745   7.892   8.217 -0.0960  0.6706 -0.0881
19566SOL    HW260140   3.656   7.852   8.332  2.1770 -1.4641  1.0203
19567SOL     OW60141   2.208   7.047   4.573 -0.1396 -0.4836  0.0075
19567SOL    HW160142   2.163   6.963   4.563  1.4773 -1.3999  0.0778
19567SOL    HW260143   2.301   7.024   4.578  0.3113  1.2814  0.4870
19568SOL     OW60144   0.145   3.490   1.920  0.0555 -0.1238 -0.0064
19568SOL    HW160145   0.076   3.428   1.897  0.5139 -0.1060 -1.5151
19568SOL    HW260146   0.182   3.517   1.836  1.4555  0.3882  0.7531
19569SOL     OW60147   5.557   1.739   7.780 -0.2533 -0.1718 -0.4195
19569SOL    HW160148   5.583   1.705   7.866 -0.8807 -0.3636 -0.3027
19569SOL    HW260149   5.626   1.711   7.721  1.6326  2.2099  0.4719
19570SOL     OW60150   5.326   7.616   7.058  0.3338 -0.3369  0.2667
19570SOL    HW160151   5.414   7.577   7.063  0.6331  0.2104 -0.3772
19570SOL    HW260152   5.272   7.562   7.115  0.7834 -1.5424 -0.3987
19571SOL     OW60153   5.494   6.467   7.922  0.2511 -0.2043 -0.1031
19571SOL    HW160154   5.586   6.455   7.944  0.3848  0.2067 -0.4150
19571SOL    HW260155   5.454   6.381   7.937  0.5699 -0.2398  0.5642
19572SOL     OW60156   5.100   6.812   1.608  0.5372  0.6221 -0.1977
19572SOL    HW160157   5.006   6.813   1.627  0.4077 -1.0171 -0.5985
19572SOL    HW260158   5.141   6.823   1.694 -0.0571 -2.3881  0.5948
19573SOL     OW60159   1.952   0.674   3.573 -0.0134 -0.3155 -0.4453
19573SOL    HW160160   1.961   0.597   3.516 -0.4248 -0.3769 -0.4315
19573SOL    HW260161   1.946   0.748   3.512 -0.4827 -0.3839 -0.4840
19574SOL     OW60162   7.188   3.950   1.292  0.1474  0.2236 -0.1000
19574SOL    HW160163   7.230   3.914   1.215  0.5196  0.1819  0.1181
19574SOL    HW260164   7.229   3.904   1.366 -1.0686 -0.6159  0.0707
19575SOL     OW60165   1.113   2.335   6.702 -0.0383  0.1846 -0.4236
19575SOL    HW160166   1.175   2.347   6.631  1.3493  0.0133  0.7073
19575SOL    HW260167   1.030   2.369   6.668  0.4999 -0.1956 -2.2113
19576SOL     OW60168   7.538   7.185   7.347  0.4353 -0.2523  0.0473
19576SOL    HW160169   7.556   7.161   7.256 -1.2892  0.9506 -0.6504
19576SOL    HW260170   7.475   7.119   7.377  1.3258 -0.9038  0.5426
19577SOL     OW60171   6.436   3.758   3.602  0.2477  0.1047  0.3194
19577SOL    HW160172   6.462   3.689   3.663 -0.6547  0.9936  1.7775
19577SOL    HW260173   6.519   3.800   3.578  0.6886 -0.7234  0.3464
19578SOL     OW60174   7.911   6.966   3.269  0.6597 -0.2241 -0.5926
19578SOL    HW160175   7.830   6.946   3.222  1.3497 -2.1167 -1.0657
19578SOL    HW260176   7.960   7.022   3.209  0.7985 -1.2243 -1.4439
19579SOL     OW60177   0.699   7.219   0.442  0.3410 -1.1821 -0.2930
19579SOL    HW160178   0.681   7.193   0.532 -0.0173  2.1274  0.7073
19579SOL    HW260179   0.794   7.208   0.432  0.7800  0.5845  1.3479
19580SOL     OW60180   0.512   4.562   6.637  0.3191 -0.1208 -0.0250
19580SOL    HW160181   0.502   4.623   6.564  2.6341  0.5438  0.1156
19580SOL    HW260182   0.425   4.557   6.676 -0.8965 -0.1516 -2.5195
19581SOL     OW60183   2.330   2.186   5.856  0.1561  0.2272  0.3683
19581SOL    HW160184   2.344   2.110   5.800 -2.2604  0.3793 -0.5686
19581SOL    HW260185   2.338   2.151   5.945  1.6292 -0.5374 -0.0279
19582SOL     OW60186   6.148   6.875   8.830 -0.0059 -0.1658  0.1816
19582SOL    HW160187   6.089   6.826   8.773 -0.5411  0.1844  0.4196
19582SOL    HW260188   6.102   6.880   8.914 -0.1694  1.0850  0.0482
19583SOL     OW60189   2.158   6.514  10.297  0.5602 -0.1158  0.1141
19583SOL    HW160190   2.145   6.507  10.392 -0.5381  0.4850  0.0263
19583SOL    HW260191   2.205   6.597  10.286 -0.6685  0.5923  0.0440
19584SOL     OW60192   3.761   2.090   8.349 -0.2495  0.0395  0.0190
19584SOL    HW160193   3.772   2.130   8.435  0.5413  1.7956 -0.8549
19584SOL    HW260194   3.848   2.056   8.328 -0.5434 -0.7699  0.0781
19585SOL     OW60195   3.905   5.372   1.207 -0.1610 -0.3298  0.3900
19585SOL    HW160196   3.882   5.458   1.243 -1.6596 -0.9277  0.9591
19585SOL    HW260197   3.831   5.350   1.150  0.2461 -1.2065  0.1879
19586SOL     OW60198   6.109   7.499  10.437  0.3788  0.4279 -0.1769
19586SOL    HW160199   6.147   7.429  10.385  1.0967  0.6199  0.0748
19586SOL    HW260200   6.097   7.571  10.376  0.0864  0.2440 -0.3342
19587SOL     OW60201   4.962   2.834   8.859  0.0692  0.4579 -0.1919
19587SOL    HW160202   4.911   2.753   8.854 -0.2997  0.5979  0.9838
19587SOL    HW260203   5.010   2.828   8.942  2.0151  0.3264 -1.2510
19588SOL     OW60204   3.722   5.614  12.314 -0.6608  0.0954  0.0409
19588SOL    HW160205   3.754   5.533  12.272 -0.8814 -0.9178  1.7574
19588SOL    HW260206   3.647   5.640  12.260 -2.3170 -2.3996  0.9516
19589SOL     OW60207   4.587   1.609   6.562  0.4132 -0.3660 -0.0511
19589SOL    HW160208   4.657   1.636   6.622  0.3363 -0.8423  0.2631
19589SOL    HW260209   4.606   1.655   6.480  0.1368  0.8248  0.5311
19590SOL     OW60210   6.512   5.446   8.644 -0.3928 -0.2573  0.7071
19590SOL    HW160211   6.570   5.382   8.687 -0.9611 -0.4243  1.2361
19590SOL    HW260212   6.445   5.392   8.602 -1.4593 -0.0068  1.9966
19591SOL     OW60213   6.868   4.273  10.555  0.2254 -0.2460 -0.4333
19591SOL    HW160214   6.941   4.264  10.493  0.8443 -0.3855  0.2958
19591SOL    HW260215   6.911   4.285  10.640 -0.6070 -0.9908  0.1031
19592SOL     OW60216   0.974   4.930   0.199  0.1826  0.3085 -0.3439
19592SOL    HW160217   1.035   4.886   0.139  1.8323 -1.7036  2.4850
19592SOL    HW260218   1.031   4.973   0.263 -1.3367 -0.2168  1.4689
19593SOL     OW60219   7.172   2.939   2.373 -0.0491 -0.4510 -0.0055
19593SOL    HW160220   7.135   2.888   2.301 -2.1015  0.1277  0.5780
19593SOL    HW260221   7.137   3.027   2.361 -0.1810 -0.2649  1.4993
19594SOL     OW60222   6.277   7.663  12.030 -0.0626 -0.1220  0.2219
19594SOL    HW160223   6.239   7.745  12.062  0.3362  0.0536  0.2471
19594SOL    HW260224   6.204   7.600  12.034 -0.7754  0.5727 -1.1653
19595SOL     OW60225   1.520   5.218   8.587 -0.0742 -0.4234 -0.2943
19595SOL    HW160226   1.517   5.131   8.546  0.1173 -0.8220  0.5250
19595SOL    HW260227   1.612   5.245   8.579 -0.5508  0.7558 -2.6602
19596SOL     OW60228   5.886   7.477   9.847  0.2197 -0.3675  0.4516
19596SOL    HW160229   5.850   7.565   9.854  1.7658  0.2495  0.8030
19596SOL    HW260230   5.935   7.463   9.928  0.3400 -1.3976  0.2257
19597SOL     OW60231   1.068   7.768   9.556  0.1267 -0.2902 -0.7410
19597SOL    HW160232   1.025   7.853   9.569  0.8799 -0.0088 -0.0307
19597SOL    HW260233   1.130   7.783   9.485 -0.4704 -0.5329 -1.3303
19598SOL     OW60234   6.772   2.834   8.735 -0.2073  0.8688  0.5327
19598SOL    HW160235   6.683   2.806   8.756 -0.3779 -0.8237 -1.9658
19598SOL    HW260236   6.783   2.918   8.779 -1.7925 -0.4599  3.7131
19599SOL     OW60237   6.967   6.594  10.495  0.5082  0.0171 -0.2836
19599SOL    HW160238   6.897   6.538  10.462  0.4537  0.9182 -1.8009
19599SOL    HW260239   6.930   6.682  10.493  0.8198  0.2333  1.4311
19600SOL     OW60240   4.915   5.385   1.714  0.0690 -0.2433  0.2963
19600SOL    HW160241   4.966   5.338   1.780 -0.8852  0.1596  1.3573
19600SOL    HW260242   4.826   5.350   1.722 -0.2577  0.4505 -0.1539
19601SOL     OW60243   5.772   5.656   5.718 -0.1457  0.8209  0.1798
19601SOL    HW160244   5.792   5.746   5.694 -1.9432  1.6691  1.6001
19601SOL    HW260245   5.693   5.662   5.772  0.2891 -1.5053  1.2172
19602SOL     OW60246   3.971   3.911   4.910 -0.0817 -0.3776  0.3226
19602SOL    HW160247   3.975   3.847   4.981 -0.8354 -0.0547  0.6701
19602SOL    HW260248   4.043   3.887   4.852  0.0349 -1.1480  0.7718
19603SOL     OW60249   3.035   3.474   9.471  0.1084 -0.3042 -0.4566
19603SOL    HW160250   3.058   3.512   9.555  0.8411  0.4556 -0.9868
19603SOL    HW260251   3.001   3.548   9.420  1.1290 -0.4218 -1.3446
19604SOL     OW60252   6.920   5.666   5.392  0.2525  0.0631 -0.4012
19604SOL    HW160253   6.973   5.740   5.423  0.2153  0.3443 -0.9953
19604SOL    HW260254   6.967   5.634   5.315 -0.5273  0.4367 -1.0476
19605SOL     OW60255   3.419   2.914   8.629  0.1968 -0.3144 -0.7778
19605SOL    HW160256   3.512   2.931   8.640  0.3937 -1.7523 -0.1131
19605SOL    HW260257   3.407   2.822   8.653 -1.6558  0.2554  0.8038
19606SOL     OW60258   7.808   6.193   7.557  0.5792 -0.6226 -0.6044
19606SOL    HW160259   7.746   6.251   7.601  2.7162  0.9309  0.5287
19606SOL    HW260260   7.777   6.190   7.466 -1.7502 -0.8211  0.1376
19607SOL     OW60261   6.549   6.694  10.245  0.2772  0.2397  0.4886
19607SOL    HW160262   6.457   6.689  10.272 -0.5345  1.2497 -1.8348
19607SOL    HW260263   6.571   6.787  10.250  0.6744  0.2052 -0.4214
19608SOL     OW60264   5.095   1.512   8.577  0.3127  0.5342 -0.0190
19608SOL    HW160265   5.100   1.517   8.481 -0.8499 -0.4514 -0.1532
19608SOL    HW260266   5.186   1.521   8.606  0.4397  4.2033 -0.9727
19609SOL     OW60267   4.387   3.562  10.432 -0.4102  0.1992 -0.0872
19609SOL    HW160268   4.300   3.547  10.470 -0.8565  0.4517 -0.9715
19609SOL    HW260269   4.370   3.619  10.357  0.4669 -0.1182 -0.5340
19610SOL     OW60270   0.122   6.939   9.066 -0.0445 -0.4908 -0.0973
19610SOL    HW160271   0.164   6.868   9.017  0.2573 -1.1035  1.0131
19610SOL    HW260272   0.194   6.994   9.096 -0.3782  1.7449 -2.9959
19611SOL     OW60273   7.868   2.678   4.277 -0.0601  0.2857  0.2783
19611SOL    HW160274   7.822   2.664   4.360  0.4371 -1.0136  0.3638
19611SOL    HW260275   7.945   2.728   4.301 -1.2566  2.2953  0.1659
19612SOL     OW60276   7.138   1.917   6.429 -0.4946 -0.2790  0.6393
19612SOL    HW160277   7.106   2.001   6.395 -1.5303  0.4126  3.0817
19612SOL    HW260278   7.234   1.927   6.430 -0.5603  0.5249  0.0717
19613SOL     OW60279   3.518   3.608   4.551 -0.2662  0.0094  0.1700
19613SOL    HW160280   3.489   3.696   4.575  1.3914  0.4238  0.7857
19613SOL    HW260281   3.592   3.590   4.609  0.5192 -1.0955 -1.1084
19614SOL     OW60282   4.331   4.978   8.443 -0.0397  0.4923  0.6584
19614SOL    HW160283   4.305   4.978   8.535 -1.1274 -0.4114  0.3669
19614SOL    HW260284   4.406   4.918   8.439 -0.9038 -0.6095  0.7254
19615SOL     OW60285   5.833   0.128   4.337  0.2843  0.2327 -0.2217
19615SOL    HW160286   5.826   0.205   4.282  1.1854 -1.4951 -2.9762
19615SOL    HW260287   5.744   0.095   4.345  0.0494  0.9117 -0.0034
19616SOL     OW60288   5.327   7.511   2.171 -0.2036  0.0937  0.0252
19616SOL    HW160289   5.280   7.476   2.096  0.7509 -0.2660 -0.4144
19616SOL    HW260290   5.376   7.586   2.137  2.3533 -1.6389 -0.3750
19617SOL     OW60291   7.737   3.869   2.373 -0.1040  0.2848  0.0560
19617SOL    HW160292   7.698   3.913   2.298 -1.9688 -1.3205  0.0242
19617SOL    HW260293   7.695   3.908   2.449  0.5116  0.6812  0.2063
19618SOL     OW60294   3.157   0.558   9.559 -0.1112 -0.2150  0.8125
19618SOL    HW160295   3.127   0.487   9.504  0.1065 -0.3107  0.8154
19618SOL    HW260296   3.181   0.516   9.642  1.0484 -0.3062  0.4505
19619SOL     OW60297   7.189   7.615  11.291  0.2693  0.7531 -0.1776
19619SOL    HW160298   7.201   7.543  11.229  0.1869 -0.6967  1.3909
19619SOL    HW260299   7.275   7.626  11.332 -0.6448 -1.8086  2.9273
19620SOL     OW60300   2.921   3.110  10.791  0.1520  0.3187 -0.1472
19620SOL    HW160301   2.983   3.063  10.846 -1.9122 -0.9778  1.2162
19620SOL    HW260302   2.885   3.178  10.847 -0.3951  0.4013 -0.5806
19621SOL     OW60303   6.026   4.237   9.750 -0.5834 -0.1232 -0.1203
19621SOL    HW160304   6.111   4.271   9.722 -0.3417  0.6161  1.3996
19621SOL    HW260305   5.976   4.315   9.776 -0.3636 -0.7903  2.5353
19622SOL     OW60306   0.269   2.492  11.506 -0.5209 -0.2478 -1.0234
19622SOL    HW160307   0.331   2.519  11.573  1.8446 -0.8740 -2.8123
19622SOL    HW260308   0.273   2.561  11.440 -1.6325 -0.3803 -1.2565
19623SOL     OW60309   4.730   0.726  11.953 -0.4721  0.6047 -0.2322
19623SOL    HW160310   4.676   0.647  11.947  0.3809 -0.1821  1.6587
19623SOL    HW260311   4.723   0.766  11.866 -0.6759 -1.7043 -1.3606
19624SOL     OW60312   5.179   5.713   3.267 -0.6619  0.0281 -0.3663
19624SOL    HW160313   5.184   5.808   3.257  2.0440 -0.1541 -1.8293
19624SOL    HW260314   5.138   5.683   3.187  2.0536 -0.1744 -1.7990
19625SOL     OW60315   4.636   6.600   0.518 -0.3602  0.3458 -0.2550
19625SOL    HW160316   4.632   6.504   0.511 -0.0670  0.3364 -0.3223
19625SOL    HW260317   4.549   6.625   0.550 -0.0026 -0.0624  1.1127
19626SOL     OW60318   7.518   5.616   5.323 -0.5092  0.1534  0.0550
19626SOL    HW160319   7.601   5.608   5.370  0.1379  0.0656 -1.0837
19626SOL    HW260320   7.482   5.527   5.323  0.1486 -0.1223 -0.7904
19627SOL     OW60321   4.997   7.634   2.717 -0.0154 -0.2647 -0.8704
19627SOL    HW160322   5.004   7.703   2.651 -0.4795  0.8249  0.1990
19627SOL    HW260323   4.969   7.678   2.796  2.5058 -1.1983  0.6772
19628SOL     OW60324   2.825   5.662   4.479 -0.3535  0.8494 -0.0222
19628SOL    HW160325   2.906   5.663   4.429 -0.2326  0.4675  0.1575
19628SOL    HW260326   2.780   5.743   4.455 -0.3013  0.6685 -0.7425
19629SOL     OW60327   0.613   6.826  11.103  0.1360  0.0493 -0.8420
19629SOL    HW160328   0.703   6.821  11.069  1.3676  0.8873  2.0154
19629SOL    HW260329   0.575   6.741  11.082  2.0598 -0.8555 -0.9082
19630SOL     OW60330   0.443   1.068   2.572 -0.0659  0.1629 -0.1288
19630SOL    HW160331   0.396   1.055   2.490 -1.7529 -0.5822  0.9027
19630SOL    HW260332   0.420   1.157   2.600 -0.7199 -0.1353  0.2857
19631SOL     OW60333   5.225   4.123   1.592  0.2528 -0.1719  0.3830
19631SOL    HW160334   5.171   4.170   1.655 -0.0752  2.3153 -1.5870
19631SOL    HW260335   5.305   4.175   1.586 -0.0793  0.1855 -1.7963
19632SOL     OW60336   7.328   0.267   6.053  0.6418 -0.1531 -0.0453
19632SOL    HW160337   7.257   0.310   6.101  0.6393 -0.8957  0.6344
19632SOL    HW260338   7.403   0.272   6.111  0.8698 -0.2988 -0.3255
19633SOL     OW60339   6.584   7.292   8.344 -0.3112  0.1553  0.0432
19633SOL    HW160340   6.536   7.226   8.294 -0.9224  0.8467 -0.2963
19633SOL    HW260341   6.676   7.273   8.326 -0.3850 -1.6139  1.2489
19634SOL     OW60342   0.910   0.062   7.445  0.2825 -0.2781  0.3552
19634SOL    HW160343   0.948   0.047   7.532  0.7052 -0.3247  0.1612
19634SOL    HW260344   0.949  -0.005   7.390  0.6641  0.2796 -0.0659
19635SOL     OW60345   7.546   1.499   2.326 -0.0972 -0.0204  0.2497
19635SOL    HW160346   7.479   1.550   2.280  0.8130  1.4336  0.4798
19635SOL    HW260347   7.629   1.538   2.298  0.5949 -0.8823  1.0437
19636SOL     OW60348   7.334   3.647   5.877  0.0021 -0.0822 -0.3010
19636SOL    HW160349   7.334   3.567   5.930  3.3411  1.4504  2.4228
19636SOL    HW260350   7.242   3.667   5.862 -0.9660 -3.0668  1.0586
19637SOL     OW60351   3.819   3.284  10.430 -0.0909  0.4174  0.2566
19637SOL    HW160352   3.812   3.373  10.396 -1.3454  0.1702 -0.1816
19637SOL    HW260353   3.785   3.289  10.520  0.2945  0.4617  0.4046
19638SOL     OW60354   6.118   7.194   7.690  0.3082 -0.5774 -0.0488
19638SOL    HW160355   6.177   7.186   7.614 -0.6675 -2.2400 -0.6985
19638SOL    HW260356   6.032   7.169   7.655 -0.5962  0.8369  1.1040
19639SOL     OW60357   3.913   5.627   3.131  0.4021 -0.2858  0.1762
19639SOL    HW160358   3.982   5.567   3.102  0.0955 -0.9016  0.6802
19639SOL    HW260359   3.849   5.570   3.173 -0.0054  0.3821  0.4732
19640SOL     OW60360   3.536   5.208   4.080 -0.3762 -0.0765  0.1671
19640SOL    HW160361   3.517   5.226   4.172 -0.0797 -2.4543  0.7457
19640SOL    HW260362   3.466   5.148   4.052  0.6883 -1.0302 -0.5272
19641SOL     OW60363   5.679   2.125   2.799 -0.4651 -0.6914  0.0289
19641SOL    HW160364   5.755   2.176   2.828 -0.2490  0.1555 -1.8584
19641SOL    HW260365   5.603   2.178   2.824 -0.4960 -1.5922  2.0205
19642SOL     OW60366   6.384   7.324  11.906 -0.0011 -0.7699  0.5102
19642SOL    HW160367   6.322   7.328  11.833  1.1444  1.0455 -0.4493
19642SOL    HW260368   6.329   7.327  11.985 -1.1867 -0.9681 -0.2911
19643SOL     OW60369   1.377   4.297   1.399 -0.1738 -0.0701 -0.5147
19643SOL    HW160370   1.332   4.219   1.430  0.9822 -0.4779  0.1848
19643SOL    HW260371   1.432   4.267   1.327  1.8574 -0.3822  1.0542
19644SOL     OW60372   6.974   6.446   9.054  0.2521  0.3328  0.4616
19644SOL    HW160373   6.933   6.395   9.125 -1.1008 -1.0007 -1.1967
19644SOL    HW260374   7.064   6.461   9.085  0.0053 -1.0851  2.0397
19645SOL     OW60375   2.948   7.606   2.068 -0.6752  0.1210 -0.5585
19645SOL    HW160376   2.887   7.582   2.138  0.2175  0.0356  0.2040
19645SOL    HW260377   2.993   7.525   2.047  1.0596  0.6991  0.7526
19646SOL     OW60378   5.588   0.894   9.243 -0.2257  0.1437  0.5471
19646SOL    HW160379   5.680   0.872   9.255 -0.2650 -0.0458  0.5035
19646SOL    HW260380   5.560   0.930   9.327 -0.2664 -0.3415  0.7424
19647SOL     OW60381   4.791   7.182   6.467  0.4046  0.1674 -0.3602
19647SOL    HW160382   4.864   7.134   6.428  1.0000  0.3233  0.5391
19647SOL    HW260383   4.720   7.118   6.470  0.8083 -0.2876 -0.3224
19648SOL     OW60384   1.219   0.822   3.302 -0.1631 -0.1075 -0.5449
19648SOL    HW160385   1.157   0.889   3.329  1.0956  1.8896 -2.2765
19648SOL    HW260386   1.188   0.792   3.216  1.9897  2.2067 -2.3126
19649SOL     OW60387   1.105   6.452   2.759  0.4693  0.1399 -0.3159
19649SOL    HW160388   1.096   6.389   2.831  0.8837 -0.3417 -0.6817
19649SOL    HW260389   1.146   6.529   2.800 -0.3398  0.3177  0.2033
19650SOL     OW60390   7.215   3.078   3.502 -0.3481 -0.0596  0.6111
19650SOL    HW160391   7.227   2.991   3.541 -2.1858 -0.1178  1.1195
19650SOL    HW260392   7.121   3.083   3.483  0.0025  1.1517 -1.0438
19651SOL     OW60393   6.457   1.341   3.099 -0.4981  0.1542  0.0526
19651SOL    HW160394   6.454   1.271   3.164  0.3602  0.1203  0.0692
19651SOL    HW260395   6.549   1.346   3.074 -0.1186  2.6546  1.5654
19652SOL     OW60396   0.655   0.314   0.090  0.6254 -0.4455 -0.0423
19652SOL    HW160397   0.566   0.338   0.112  0.5770  0.6310 -1.2692
19652SOL    HW260398   0.679   0.246   0.153  0.3639  2.0229  2.9065
19653SOL     OW60399   3.949   0.143   8.791 -0.2455 -0.0374  0.5319
19653SOL    HW160400   3.965   0.088   8.868 -1.1751  0.4532  1.1042
19653SOL    HW260401   3.987   0.228   8.813  0.2012 -0.1254  0.1106
19654SOL     OW60402   1.081   6.927   6.521  0.3617  0.5826  0.1328
19654SOL    HW160403   1.031   6.934   6.439  0.5431 -1.9658 -0.2664
19654SOL    HW260404   1.015   6.929   6.590  0.2120  2.8364  0.0148
19655SOL     OW60405   5.090   7.744   4.924 -0.2607 -0.6080  0.0348
19655SOL    HW160406   5.009   7.746   4.873  0.3974 -0.3485 -1.0360
19655SOL    HW260407   5.159   7.745   4.859  0.6900  2.6249  0.8974
19656SOL     OW60408   0.775   3.726   2.896 -0.1099 -0.0442  0.2056
19656SOL    HW160409   0.783   3.817   2.924 -0.8510 -0.1175  0.6723
19656SOL    HW260410   0.834   3.678   2.954 -0.0039  0.0863  0.2069
19657SOL     OW60411   6.373   4.883   0.926  0.3970  0.3760 -0.3855
19657SOL    HW160412   6.322   4.927   0.858  2.6079  0.7088 -1.9797
19657SOL    HW260413   6.432   4.951   0.959  0.6078 -0.2483  0.5723
19658SOL     OW60414   6.543   6.121   5.288  0.1720  0.0279 -0.2306
19658SOL    HW160415   6.471   6.065   5.317  0.7194 -0.5171  0.1277
19658SOL    HW260416   6.609   6.060   5.254  0.4551  0.5125 -0.5702
19659SOL     OW60417   7.582   7.795  10.078 -0.8963  0.3083  0.6708
19659SOL    HW160418   7.587   7.890  10.089 -0.8822  0.2286  1.3640
19659SOL    HW260419   7.488   7.776  10.075 -0.9983  0.7073 -2.8470
19660SOL     OW60420   3.664   4.510   1.279 -0.0924 -0.1740  0.2396
19660SOL    HW160421   3.698   4.522   1.368 -1.5534 -0.2879  0.8369
19660SOL    HW260422   3.727   4.451   1.237  0.5013 -0.2990  1.2711
19661SOL     OW60423   6.772   2.644   8.538  0.2685 -0.1780  0.1691
19661SOL    HW160424   6.772   2.711   8.607  0.6499  0.1756 -0.1665
19661SOL    HW260425   6.755   2.562   8.584 -2.0856  0.3442  0.3878
19662SOL     OW60426   1.725   7.873  10.112  0.1638 -0.4700  0.5174
19662SOL    HW160427   1.787   7.896  10.043  0.0472  1.6467  1.0672
19662SOL    HW260428   1.746   7.781  10.133  2.5459 -0.0911  0.0974
19663SOL     OW60429   0.671   7.241   2.134  0.0215 -0.3077 -0.1779
19663SOL    HW160430   0.739   7.218   2.070  0.2159 -1.4041  0.3975
19663SOL    HW260431   0.668   7.166   2.193 -1.6000 -0.2176 -0.1062
19664SOL     OW60432   4.311   4.282   7.599  0.1482 -0.3295  0.3184
19664SOL    HW160433   4.250   4.346   7.562  0.2123 -0.3232  0.2213
19664SOL    HW260434   4.326   4.220   7.528  0.0501 -0.4779  0.4291
19665SOL     OW60435   5.334   5.905  10.235  0.1371  0.7848  0.1628
19665SOL    HW160436   5.280   5.832  10.205  0.2504  0.7023  0.1571
19665SOL    HW260437   5.355   5.884  10.326  1.7478 -0.1531 -0.3815
19666SOL     OW60438   4.532   4.700   4.179 -0.5826 -0.2925 -0.3075
19666SOL    HW160439   4.573   4.786   4.185  1.7110 -1.3000 -0.5200
19666SOL    HW260440   4.517   4.674   4.270 -0.0198 -0.2246 -0.1916
19667SOL     OW60441   6.231   7.292   1.234  0.0696 -0.4626 -0.7681
19667SOL    HW160442   6.270   7.289   1.321  0.7629  2.6984 -0.8606
19667SOL    HW260443   6.139   7.310   1.249  0.5782  2.4615 -0.5984
19668SOL     OW60444   4.579   1.976   7.359  0.3803  0.1517 -0.0705
19668SOL    HW160445   4.534   1.892   7.353  0.1917  0.3254 -1.3731
19668SOL    HW260446   4.514   2.040   7.331  0.2968  0.8484  1.5775
19669SOL     OW60447   2.165   0.752  11.189 -0.2335 -0.5138  0.8125
19669SOL    HW160448   2.209   0.731  11.106 -3.3915  0.8474 -1.3783
19669SOL    HW260449   2.235   0.745  11.255  2.9726  0.3263 -2.1742
19670SOL     OW60450   6.911   7.981   5.914  0.4750 -0.0690 -0.0263
19670SOL    HW160451   6.925   8.012   5.824  0.0427 -1.1003 -0.4624
19670SOL    HW260452   6.998   7.984   5.954  0.9368 -0.9266 -0.9187
19671SOL     OW60453   4.699   7.776   0.543 -0.3529  0.3131  0.1156
19671SOL    HW160454   4.654   7.783   0.459 -0.4273 -0.8225  0.0399
19671SOL    HW260455   4.710   7.681   0.556 -0.4274  0.4643  1.4247
19672SOL     OW60456   0.938   6.393   5.387  0.4551 -0.0705 -0.2163
19672SOL    HW160457   0.978   6.338   5.320  1.1962 -0.6784  0.6998
19672SOL    HW260458   1.001   6.394   5.458 -0.8598 -0.5056  1.0162
19673SOL     OW60459   7.226   4.690   6.983  0.0117  0.1335  0.3520
19673SOL    HW160460   7.322   4.682   6.986 -0.0844 -0.8825  1.4752
19673SOL    HW260461   7.210   4.785   6.981  1.0275  0.3565  1.4819
19674SOL     OW60462   3.549   3.264  10.277 -0.1941  0.2826  0.1515
19674SOL    HW160463   3.623   3.306  10.322  0.9559 -1.0651 -0.3798
19674SOL    HW260464   3.472   3.312  10.306  0.5615 -0.0671  3.0232
19675SOL     OW60465   7.517   5.574   6.960 -0.3125  0.0428  0.2354
19675SOL    HW160466   7.579   5.501   6.964  2.1150  1.8996 -0.9801
19675SOL    HW260467   7.507   5.601   7.051  0.2086 -0.6328  0.5068
19676SOL     OW60468   4.994   4.852  10.599 -0.0239 -0.0373 -0.1854
19676SOL    HW160469   5.031   4.811  10.521  1.3197  1.8771 -0.6336
19676SOL    HW260470   4.955   4.934  10.567 -0.5243  0.1949  0.9755
19677SOL     OW60471   5.013   6.190   5.316 -0.2960  0.1634  0.3650
19677SOL    HW160472   5.082   6.148   5.366 -0.9545  0.9277  1.9806
19677SOL    HW260473   5.048   6.276   5.293  0.1824 -0.3541 -0.9540
19678SOL     OW60474   2.466   3.105   7.189 -0.2157 -0.1884 -0.1904
19678SOL    HW160475   2.457   3.164   7.113  0.1860  0.1908  0.0516
19678SOL    HW260476   2.463   3.017   7.151  1.3260  0.0064 -0.8109
19679SOL     OW60477   1.089   0.730  11.216 -0.1509 -0.2098 -0.0368
19679SOL    HW160478   1.106   0.742  11.123  0.8471 -1.7526 -0.1037
19679SOL    HW260479   1.091   0.818  11.253  2.9689  0.2160 -0.9402
19680SOL     OW60480   6.502   1.325   9.172  0.4025 -0.1337 -0.3290
19680SOL    HW160481   6.416   1.347   9.136 -0.1652 -1.7996 -0.0536
19680SOL    HW260482   6.536   1.258   9.112  1.5934  0.6376 -0.5372
19681SOL     OW60483   2.706   7.343   9.148  0.4883  0.0808 -0.7378
19681SOL    HW160484   2.680   7.405   9.215 -1.3420  1.6051 -2.7118
19681SOL    HW260485   2.636   7.277   9.147  0.0339  0.5474 -1.6628
19682SOL     OW60486   3.816   2.370  11.888  0.8749 -0.0517 -0.2428
19682SOL    HW160487   3.856   2.358  11.802 -0.4609  0.8585 -1.0118
19682SOL    HW260488   3.807   2.464  11.898  2.2110 -0.0408  1.5008
19683SOL     OW60489   2.811   1.182  11.482 -0.0632  0.4729 -0.5880
19683SOL    HW160490   2.757   1.256  11.454 -0.6932  0.0453 -0.5350
19683SOL    HW260491   2.860   1.156  11.404  0.0293  0.8310 -0.6509
19684SOL     OW60492   0.456   6.619   3.826 -0.3453 -0.2443 -0.4002
19684SOL    HW160493   0.447   6.666   3.743 -1.5026  2.1693  0.9813
19684SOL    HW260494   0.370   6.625   3.867  0.0256 -1.9044  0.7465
19685SOL     OW60495   6.127   4.982   5.372  0.2960  0.3407  0.0440
19685SOL    HW160496   6.191   5.030   5.425 -0.7648  0.4305  1.2650
19685SOL    HW260497   6.086   4.921   5.432 -0.5912  0.0910 -0.7882
19686SOL     OW60498   0.985   4.017   4.705 -0.1597 -0.4599  0.3188
19686SOL    HW160499   0.927   4.086   4.672  0.3673 -0.6370 -1.0168
19686SOL    HW260500   1.050   4.064   4.758 -0.8973 -0.1511  0.9673
19687SOL     OW60501   2.537   0.930  11.205 -0.0728  0.4393  0.3263
19687SOL    HW160502   2.531   0.921  11.110 -0.9804 -2.2131  0.5344
19687SOL    HW260503   2.630   0.924  11.224 -0.0482 -2.3095 -0.2558
19688SOL     OW60504   0.404   0.881  10.344 -0.2306 -0.3798 -0.5909
19688SOL    HW160505   0.361   0.850  10.423  1.1786  0.3436  0.5058
19688SOL    HW260506   0.424   0.973  10.361  0.6245 -0.3607 -1.5484
19689SOL     OW60507   7.393   3.931  10.505  0.5507  0.2060 -0.3128
19689SOL    HW160508   7.316   3.973  10.545 -0.1855 -1.0250 -0.3838
19689SOL    HW260509   7.388   3.840  10.534  1.7753  0.0198 -0.6505
19690SOL     OW60510   0.631   2.795   8.076 -0.1260 -0.3098  0.4138
19690SOL    HW160511   0.688   2.756   8.143 -1.2340 -3.1705 -0.1457
19690SOL    HW260512   0.549   2.746   8.083 -0.8170  0.3919 -1.9694
19691SOL     OW60513   7.886   1.775   8.594  0.4763  0.2505 -0.2412
19691SOL    HW160514   7.919   1.702   8.542  1.8114 -0.5086  1.5558
19691SOL    HW260515   7.830   1.733   8.660 -0.1676  1.0451 -0.2727
19692SOL     OW60516   7.055   7.570   2.041  0.1686  0.3647  0.4615
19692SOL    HW160517   7.117   7.595   1.972  0.3179  0.3346  0.5862
19692SOL    HW260518   7.107   7.523   2.105 -0.0317  0.1102  0.4415
19693SOL     OW60519   6.561   4.157   0.942  0.0211  0.4602  0.2022
19693SOL    HW160520   6.630   4.135   1.005  0.6249 -0.2771 -0.6894
19693SOL    HW260521   6.499   4.084   0.947  1.6585 -1.2596 -2.2396
19694SOL     OW60522   5.657   0.099   4.771 -0.0507  0.3093 -0.1604
19694SOL    HW160523   5.593   0.045   4.723  0.6812  0.4899 -1.3833
19694SOL    HW260524   5.649   0.186   4.732 -1.1630  1.1261  1.7361
19695SOL     OW60525   5.443   6.393   3.034  0.0751 -0.0796 -0.1222
19695SOL    HW160526   5.505   6.347   3.090  1.6315  1.5211 -0.4118
19695SOL    HW260527   5.463   6.361   2.946 -0.2931 -0.3773 -0.1002
19696SOL     OW60528   7.884   4.253   0.962  0.1577 -0.6875 -0.1843
19696SOL    HW160529   7.871   4.245   1.057  0.1266  0.0651 -0.1182
19696SOL    HW260530   7.796   4.254   0.926  0.1323  0.1328 -0.1167
19697SOL     OW60531   3.666   3.997   1.918  0.1198  0.1829  0.2316
19697SOL    HW160532   3.707   3.926   1.868  0.6100  1.4026 -1.1850
19697SOL    HW260533   3.578   3.965   1.937  1.3493 -2.1408  2.5896
19698SOL     OW60534   2.992   3.735  11.020 -0.4644  0.0052 -0.0299
19698SOL    HW160535   3.003   3.812  11.076 -0.9887  2.0450 -2.5277
19698SOL    HW260536   3.052   3.749  10.947 -0.0114 -2.3898 -0.1895
19699SOL     OW60537   4.948   6.265   8.595 -0.6175 -0.3299  0.5158
19699SOL    HW160538   5.004   6.336   8.561  0.2232 -1.2696 -0.1520
19699SOL    HW260539   5.005   6.217   8.655 -0.8807 -0.9660  0.2670
19700SOL     OW60540   5.291   1.385   6.128  0.1081  0.1341 -0.2454
19700SOL    HW160541   5.358   1.451   6.146  0.0504 -0.2294  1.4114
19700SOL    HW260542   5.208   1.433   6.135  0.1336  0.3370 -1.1882
19701SOL     OW60543   1.537   6.903   0.762  0.0365 -0.4925 -0.4136
19701SOL    HW160544   1.517   6.816   0.797 -3.1749  0.1434 -0.3648
19701SOL    HW260545   1.533   6.891   0.667 -2.6237 -0.0831 -0.4304
19702SOL     OW60546   7.900   5.270   0.727 -0.5196 -0.2928  0.2978
19702SOL    HW160547   7.902   5.349   0.781 -0.9202  0.8481 -1.2974
19702SOL    HW260548   7.810   5.237   0.736 -0.3144 -0.6740  1.0708
19703SOL     OW60549   6.529   1.274   3.507  0.1435  0.3592  0.4979
19703SOL    HW160550   6.527   1.313   3.594 -0.9473 -0.7427  0.9932
19703SOL    HW260551   6.454   1.312   3.462 -0.2910 -0.3455  0.6204
19704SOL     OW60552   2.153   4.016   9.631  0.5691 -0.1667 -0.1170
19704SOL    HW160553   2.242   4.029   9.664  0.4743 -1.0773  0.5494
19704SOL    HW260554   2.133   4.096   9.581  0.7484  1.2744  1.9931
19705SOL     OW60555   7.295   1.095   7.099 -0.1371  0.0551 -0.1005
19705SOL    HW160556   7.306   1.062   7.188 -1.3075 -0.2929 -0.0754
19705SOL    HW260557   7.231   1.036   7.059  0.4334  0.1539 -1.2059
19706SOL     OW60558   0.987   7.340   3.415 -0.4547 -0.3334  0.1399
19706SOL    HW160559   0.980   7.339   3.320 -1.9392  1.1131  0.1869
19706SOL    HW260560   1.060   7.400   3.434 -0.9186  0.3150 -0.0872
19707SOL     OW60561   7.329   4.513   5.167 -0.0800  0.3244  0.3711
19707SOL    HW160562   7.371   4.535   5.084 -0.1519  0.2968  0.3271
19707SOL    HW260563   7.265   4.445   5.144  2.1185 -2.0991  0.9300
19708SOL     OW60564   5.287   2.525   0.833  0.0654 -0.1420  0.6972
19708SOL    HW160565   5.284   2.492   0.744  1.0372  0.1121  0.5607
19708SOL    HW260566   5.373   2.501   0.865 -0.2363 -0.1392  1.5355
19709SOL     OW60567   3.181   3.067   5.421 -0.0611  0.1597  0.6834
19709SOL    HW160568   3.085   3.078   5.424 -0.1824 -0.9944  3.1668
19709SOL    HW260569   3.195   3.001   5.353 -0.7397  2.0820 -1.4916
19710SOL     OW60570   6.983   3.027   8.570  0.0265 -0.5999  0.4045
19710SOL    HW160571   6.993   3.118   8.597 -1.7684 -0.1112 -0.4221
19710SOL    HW260572   6.997   2.977   8.650 -1.8262  0.5911  1.5449
19711SOL     OW60573   5.504   6.945   3.383  0.7456  0.2475 -0.6046
19711SOL    HW160574   5.414   6.970   3.361  0.4455  1.3023  1.5841
19711SOL    HW260575   5.557   7.019   3.354  0.7240  0.2743 -0.5765
19712SOL     OW60576   1.015   3.679   4.848 -0.2284 -0.3863 -0.4889
19712SOL    HW160577   1.040   3.760   4.804  1.3832  0.3943  1.6987
19712SOL    HW260578   1.034   3.610   4.784  0.5207  0.7806 -1.5761
19713SOL     OW60579   3.025   4.108   1.242 -0.2926  0.2033  0.4499
19713SOL    HW160580   2.976   4.189   1.258 -0.2446  0.5073 -0.7794
19713SOL    HW260581   3.104   4.137   1.196  0.6635 -0.3659  1.6896
19714SOL     OW60582   6.636   2.897   7.432  0.3247 -0.3945 -0.2221
19714SOL    HW160583   6.674   2.985   7.430  0.4655 -0.4479  0.0814
19714SOL    HW260584   6.552   2.907   7.387 -0.4117  0.2498  1.2320
19715SOL     OW60585   7.234   4.165   8.899  0.0783  0.2625 -0.0854
19715SOL    HW160586   7.279   4.194   8.820 -1.2791  0.4583 -0.8054
19715SOL    HW260587   7.159   4.115   8.868 -1.4087  1.7062  1.0141
19716SOL     OW60588   7.156   0.018   6.039 -0.1005  0.2235 -0.4056
19716SOL    HW160589   7.211   0.076   5.986  1.2476 -0.0547  0.6316
19716SOL    HW260590   7.185  -0.070   6.017  0.5215  0.1029  0.8022
19717SOL     OW60591   4.299   7.158  10.617  0.2937 -0.2257 -0.2998
19717SOL    HW160592   4.321   7.109  10.696  0.1399  1.2587  0.7047
19717SOL    HW260593   4.383   7.179  10.577  0.4070 -0.3418 -0.1226
19718SOL     OW60594   6.145   6.530   0.008  0.4285  0.2961  0.1206
19718SOL    HW160595   6.188   6.446  -0.007 -0.5949 -0.1214 -0.5852
19718SOL    HW260596   6.202   6.575   0.071  1.3271 -0.6520  0.0180
19719SOL     OW60597   5.886   0.446   7.145  0.4804  0.0448  0.3702
19719SOL    HW160598   5.958   0.458   7.207  1.3915 -1.6565 -0.2934
19719SOL    HW260599   5.928   0.424   7.062 -0.7702 -2.4017  0.2950
19720SOL     OW60600   1.327   0.538   7.544 -1.1555 -0.5138 -0.0899
19720SOL    HW160601   1.413   0.567   7.517 -1.0547  0.4857  1.2370
19720SOL    HW260602   1.330   0.537   7.639 -2.0618 -2.1882 -0.0227
19721SOL     OW60603   3.297   6.873   0.788 -0.3422 -0.4761  0.3157
19721SOL    HW160604   3.324   6.844   0.875  1.4652 -0.7815 -0.3107
19721SOL    HW260605   3.281   6.967   0.798  3.2575  0.2624  0.2963
19722SOL     OW60606   7.723   7.332   2.730  0.1619 -0.1219 -0.6752
19722SOL    HW160607   7.757   7.259   2.782 -1.6288  0.7528  1.9355
19722SOL    HW260608   7.654   7.371   2.785  2.2694  4.7611 -0.9131
19723SOL     OW60609   3.271   7.652  11.473  0.1831 -0.3990  0.1605
19723SOL    HW160610   3.278   7.621  11.564 -0.6702 -1.2721 -0.0626
19723SOL    HW260611   3.182   7.631  11.447 -0.0733  1.2235 -0.3990
19724SOL     OW60612   2.698   4.086   1.243 -0.0753  0.3621 -0.9420
19724SOL    HW160613   2.653   4.169   1.228  1.0823  1.0638 -0.6686
19724SOL    HW260614   2.690   4.039   1.160 -0.1184  1.0591 -1.3382
19725SOL     OW60615   0.461   5.039   4.693  0.1100  0.0446 -0.3992
19725SOL    HW160616   0.394   5.099   4.661  0.1553  0.7741  0.8254
19725SOL    HW260617   0.430   5.012   4.780  0.8976 -0.4077 -0.2463
19726SOL     OW60618   0.255   7.249   9.620 -0.0814  0.3134 -0.9221
19726SOL    HW160619   0.264   7.315   9.690  0.5143 -1.5197  0.8242
19726SOL    HW260620   0.165   7.260   9.590 -0.6333  0.6395  0.7125
19727SOL     OW60621   5.599   4.451   8.159  0.3329  0.9404  0.0273
19727SOL    HW160622   5.528   4.459   8.222  0.8125  0.3330  0.6626
19727SOL    HW260623   5.607   4.538   8.119 -1.3474  0.7944 -0.7118
19728SOL     OW60624   4.836   5.841   9.411 -0.6437 -0.4803  0.1775
19728SOL    HW160625   4.743   5.822   9.397 -0.7612  0.1544  0.0869
19728SOL    HW260626   4.842   5.863   9.504 -0.6606 -0.0821  0.0841
19729SOL     OW60627   1.174   5.671   4.503  0.0828 -0.4533  0.0472
19729SOL    HW160628   1.184   5.704   4.414  0.1693 -1.0747 -0.1805
19729SOL    HW260629   1.156   5.578   4.492  0.4356 -0.6061  0.6916
19730SOL     OW60630   7.710   6.235   2.072  0.5696 -0.0139 -0.5090
19730SOL    HW160631   7.631   6.280   2.103  0.1582 -1.4646  0.6834
19730SOL    HW260632   7.679   6.147   2.050  1.6856 -0.2874 -1.0249
19731SOL     OW60633   4.121   6.789   8.168 -0.2465 -0.3892  0.0717
19731SOL    HW160634   4.158   6.749   8.247 -1.0545 -1.9681 -0.3100
19731SOL    HW260635   4.086   6.715   8.118 -1.0209  0.7293 -1.0923
19732SOL     OW60636   5.638   6.690   9.295 -0.0708  0.3084  0.4774
19732SOL    HW160637   5.695   6.729   9.362 -0.8289  0.5516  0.9903
19732SOL    HW260638   5.564   6.751   9.289  0.1797  0.4976 -0.8717
19733SOL     OW60639   1.805   3.711   2.239 -0.1136  0.5689  0.0925
19733SOL    HW160640   1.873   3.666   2.190 -0.5421  0.3845 -0.3340
19733SOL    HW260641   1.852   3.782   2.284 -0.0614  2.3803 -2.5752
19734SOL     OW60642   7.482   4.147  10.240  0.4102 -0.3683  0.4483
19734SOL    HW160643   7.550   4.081  10.227  0.0872 -0.5371 -0.4400
19734SOL    HW260644   7.521   4.210  10.300  0.4086 -1.8059  2.0145
19735SOL     OW60645   3.621   6.363   0.826  0.5707 -0.3361 -0.0264
19735SOL    HW160646   3.677   6.320   0.890 -0.0723  1.9081  2.2269
19735SOL    HW260647   3.678   6.429   0.785  0.0240  1.0412  1.3137
19736SOL     OW60648   0.996   5.309   9.932  0.3450 -0.2291  0.1278
19736SOL    HW160649   0.967   5.302   9.841  1.0038  0.7213 -0.1789
19736SOL    HW260650   0.941   5.378   9.969  1.4822  0.8679 -0.1696
19737SOL     OW60651   2.870   4.712   4.606 -0.2714 -0.0486 -0.3941
19737SOL    HW160652   2.890   4.634   4.658 -1.7864 -1.0069 -1.1724
19737SOL    HW260653   2.775   4.710   4.595 -0.2514  1.4805 -1.1259
19738SOL     OW60654   5.803   6.530   5.602 -0.2062  0.3852  0.4169
19738SOL    HW160655   5.794   6.572   5.516 -0.5424  1.7786  1.1034
19738SOL    HW260656   5.713   6.523   5.634 -0.1076 -0.4348  0.5242
19739SOL     OW60657   0.136   2.230   1.723 -0.3147 -0.2650  0.4113
19739SOL    HW160658   0.046   2.218   1.753 -0.8316  1.0796 -0.4824
19739SOL    HW260659   0.133   2.310   1.671  1.1279 -0.9092 -0.7459
19740SOL     OW60660   6.527   7.287   5.831  0.0351 -0.4332  0.1033
19740SOL    HW160661   6.524   7.297   5.736  0.3335 -0.4821  0.0884
19740SOL    HW260662   6.500   7.196   5.846 -1.6322  0.0355  0.1754
19741SOL     OW60663   2.557   4.209  10.614  0.0694 -0.1133  0.4861
19741SOL    HW160664   2.481   4.198  10.672 -0.6646 -0.5966 -0.5363
19741SOL    HW260665   2.576   4.121  10.582  1.1673 -0.0163  0.8324
19742SOL     OW60666   7.174   7.850   1.633 -0.0434  0.2270 -0.2438
19742SOL    HW160667   7.093   7.847   1.684 -0.5842  1.9939 -0.8989
19742SOL    HW260668   7.212   7.763   1.642 -0.2708  0.3691  2.8538
19743SOL     OW60669   4.933   5.021  10.384  0.2737  0.4710  0.1902
19743SOL    HW160670   4.842   4.992  10.382  1.0686 -2.2734  0.2931
19743SOL    HW260671   4.969   4.994  10.299  1.7132 -1.2681  1.2729
19744SOL     OW60672   0.677   6.128   4.923  0.0944 -0.0316  0.5924
19744SOL    HW160673   0.601   6.141   4.865 -1.4063  0.6873  2.6166
19744SOL    HW260674   0.718   6.048   4.889 -1.3785 -0.2840 -0.7603
19745SOL     OW60675   0.630   7.665  11.439 -0.0346 -0.2244 -0.3389
19745SOL    HW160676   0.621   7.732  11.372  1.2718  1.5891  1.1930
19745SOL    HW260677   0.723   7.643  11.438  0.3217  0.8975  1.7618
19746SOL     OW60678   0.007   4.552   2.784  0.0909 -0.0921 -0.1195
19746SOL    HW160679  -0.071   4.558   2.730  0.2329 -1.1047 -0.4515
19746SOL    HW260680   0.033   4.460   2.779  0.4156 -0.0845  1.2439
19747SOL     OW60681   2.657   0.141   3.845 -0.0339  0.5901  0.5738
19747SOL    HW160682   2.674   0.073   3.910  2.7312  0.0880 -0.5340
19747SOL    HW260683   2.704   0.218   3.878 -1.7293  1.4835  0.9738
19748SOL     OW60684   6.550   6.903   1.272  0.1293  0.3322 -0.0051
19748SOL    HW160685   6.537   6.988   1.230 -1.9301  1.4962  2.6408
19748SOL    HW260686   6.509   6.840   1.213  1.4006  1.1620 -1.8662
19749SOL     OW60687   4.276   5.450  11.042 -0.0354 -0.2544  0.1372
19749SOL    HW160688   4.319   5.394  11.107 -1.3433  0.0477  1.3332
19749SOL    HW260689   4.249   5.390  10.972  0.3942 -0.7814  0.4169
19750SOL     OW60690   0.871   5.684   1.825  0.5486  0.0125  0.1357
19750SOL    HW160691   0.804   5.752   1.830  0.3470 -0.1296 -0.5976
19750SOL    HW260692   0.870   5.656   1.734  2.7234  1.1432 -0.3026
19751SOL     OW60693   3.266   0.561  12.110  0.0277 -0.3216  0.0476
19751SOL    HW160694   3.274   0.656  12.118  2.5871 -0.3747 -0.9962
19751SOL    HW260695   3.281   0.529  12.199 -1.7436  0.2307  0.5881
19752SOL     OW60696   2.706   7.521   6.121 -0.2558 -0.4985  0.9330
19752SOL    HW160697   2.780   7.498   6.065 -0.5259 -0.0466  0.3817
19752SOL    HW260698   2.634   7.466   6.090 -0.6137  0.2928  0.3129
19753SOL     OW60699   2.991   4.508   7.530 -0.5673 -0.2421 -0.6337
19753SOL    HW160700   2.953   4.459   7.603 -0.5929 -0.4395 -0.7793
19753SOL    HW260701   3.064   4.557   7.570 -1.3714  0.6660 -0.2181
19754SOL     OW60702   3.119   6.276  10.553  1.0656 -0.6069  0.4482
19754SOL    HW160703   3.164   6.267  10.638  1.2684 -0.9640  0.3069
19754SOL    HW260704   3.107   6.370  10.543  0.7160 -0.5815  1.0409
19755SOL     OW60705   4.938   7.825  10.309  0.2948  0.3788 -0.2371
19755SOL    HW160706   4.858   7.838  10.361  0.0439  0.6921 -0.6887
19755SOL    HW260707   5.009   7.854  10.366  0.0465  0.4672  0.0298
19756SOL     OW60708   4.331   5.404   0.432 -0.2705  0.2620  0.1703
19756SOL    HW160709   4.425   5.389   0.423 -0.5719 -2.1270  0.4891
19756SOL    HW260710   4.318   5.494   0.403  2.1116  0.6534  0.1669
19757SOL     OW60711   2.459   6.833  11.171  0.3496  0.1618  0.3835
19757SOL    HW160712   2.459   6.850  11.076  1.4380 -0.0241  0.3360
19757SOL    HW260713   2.535   6.882  11.204 -0.0390  0.2499  1.1737
19758SOL     OW60714   5.577   7.054   9.612  0.3944 -0.1095  0.0911
19758SOL    HW160715   5.566   7.137   9.566  0.6098  0.8382  1.6945
19758SOL    HW260716   5.637   7.074   9.684  0.9604 -1.8123  0.1258
19759SOL     OW60717   1.682   5.732   2.928 -0.4190 -0.1752 -0.5761
19759SOL    HW160718   1.607   5.781   2.960  1.0563  1.0854  1.1715
19759SOL    HW260719   1.684   5.750   2.833 -1.0340  1.6125 -0.2930
19760SOL     OW60720   1.023   7.235   7.175  0.1223 -0.3736  0.2069
19760SOL    HW160721   1.019   7.224   7.270 -2.0252  0.3498  0.2599
19760SOL    HW260722   1.087   7.305   7.162 -1.5605  1.4760  1.3710
19761SOL     OW60723   6.981   3.961  11.976 -0.2517  0.3624  0.3194
19761SOL    HW160724   6.971   4.025  11.906  0.6866 -0.6287 -0.7796
19761SOL    HW260725   6.923   3.889  11.951  0.1637 -0.0394  0.4991
19762SOL     OW60726   6.290   2.257  11.614 -0.0959 -1.0736  0.2107
19762SOL    HW160727   6.263   2.241  11.704 -0.0270  1.2811  0.6886
19762SOL    HW260728   6.236   2.196  11.562 -1.0201 -1.5951  1.7257
19763SOL     OW60729   7.961   7.094   2.610 -0.1446 -0.3104 -0.0507
19763SOL    HW160730   7.953   7.118   2.702  3.7397  0.8618  0.1880
19763SOL    HW260731   7.961   6.999   2.610 -0.4029 -0.3282  1.1266
19764SOL     OW60732   5.685   1.264   6.229  0.7843 -0.3811  0.4250
19764SOL    HW160733   5.739   1.337   6.259 -1.1998  1.1594  0.3872
19764SOL    HW260734   5.709   1.252   6.137 -0.9789  2.2933 -0.4713
19765SOL     OW60735   7.680   3.800   9.340 -0.2306 -0.4763 -0.7495
19765SOL    HW160736   7.776   3.802   9.350 -0.2632 -0.5412 -0.3921
19765SOL    HW260737   7.666   3.789   9.246  0.1362 -1.5725 -0.6926
19766SOL     OW60738   1.699   2.873   1.441  0.5127  0.4914  0.1869
19766SOL    HW160739   1.716   2.813   1.514  1.8440  0.1568 -0.3677
19766SOL    HW260740   1.625   2.835   1.394 -0.7339  0.9942  1.6399
19767SOL     OW60741   3.118   1.356   1.946  0.2100  0.4862 -0.2112
19767SOL    HW160742   3.179   1.322   2.012  1.0855  1.1829 -0.6426
19767SOL    HW260743   3.157   1.332   1.862 -0.7659 -0.1587 -0.5069
19768SOL     OW60744   0.865   5.705  11.619  0.3810 -0.1304 -0.2400
19768SOL    HW160745   0.791   5.726  11.676 -0.8213 -0.0389 -1.7620
19768SOL    HW260746   0.882   5.786  11.571 -0.6566 -0.9843 -2.1641
19769SOL     OW60747   5.513   7.304   2.373 -0.1365  0.2661 -0.8474
19769SOL    HW160748   5.441   7.358   2.340 -0.5567  1.0619  1.2278
19769SOL    HW260749   5.473   7.248   2.439  1.1312  0.7134  0.3399
19770SOL     OW60750   4.627   6.433   0.869  0.6624  0.0177  0.3089
19770SOL    HW160751   4.600   6.518   0.835 -1.0464 -0.9793 -1.0694
19770SOL    HW260752   4.545   6.383   0.873  1.6683 -1.6640  0.7170
19771SOL     OW60753   7.809   7.082  10.919 -0.4937  0.2105  0.4198
19771SOL    HW160754   7.721   7.113  10.941 -0.6609 -0.6335  0.9799
19771SOL    HW260755   7.811   7.083  10.823 -1.4069 -0.5341  0.3737
19772SOL     OW60756   2.709   0.040   9.146 -0.3021  0.5844  0.2170
19772SOL    HW160757   2.630  -0.003   9.178 -0.2647  1.0790  0.9904
19772SOL    HW260758   2.677   0.099   9.077 -0.0743 -2.4618 -2.7210
19773SOL     OW60759   5.100   5.045   7.267 -0.0493 -0.5907  0.2322
19773SOL    HW160760   5.038   4.994   7.215 -0.2430 -0.3973  0.2696
19773SOL    HW260761   5.150   4.980   7.317  0.8321 -0.8407 -0.9408
19774SOL     OW60762   4.232   0.712  10.800 -0.1972  0.1629 -0.3722
19774SOL    HW160763   4.187   0.791  10.830 -0.1052 -0.4170  1.4039
19774SOL    HW260764   4.313   0.744  10.759  0.8415  0.9797  2.1227
19775SOL     OW60765   6.309   6.357  12.208  0.4171 -0.2659 -0.7623
19775SOL    HW160766   6.242   6.292  12.189 -0.6992  0.9540 -1.0915
19775SOL    HW260767   6.342   6.383  12.122  0.8939 -0.4121 -0.6284
19776SOL     OW60768   2.075   1.672   9.275  0.5055  0.1858  0.1364
19776SOL    HW160769   2.147   1.615   9.246  0.1626 -0.4204  0.4549
19776SOL    HW260770   2.119   1.743   9.322  0.8813 -0.5105  0.8789
19777SOL     OW60771   6.462   3.269   9.003 -0.1342 -0.2841 -0.2477
19777SOL    HW160772   6.442   3.218   8.925 -1.0136 -0.9854  0.4042
19777SOL    HW260773   6.399   3.341   9.001 -0.1419 -0.2897 -0.2113
19778SOL     OW60774   2.711   6.517   0.321  0.4374 -0.2392 -0.0251
19778SOL    HW160775   2.789   6.505   0.375  1.2885 -0.8160 -1.3084
19778SOL    HW260776   2.638   6.493   0.377  1.2854 -0.8318  0.8508
19779SOL     OW60777   7.246   5.944  11.851  0.2725 -0.3260  0.3225
19779SOL    HW160778   7.185   5.873  11.828  0.4889 -0.1127 -0.9729
19779SOL    HW260779   7.323   5.898  11.884 -0.4628 -0.6086  1.7207
19780SOL     OW60780   1.897   1.356   8.799 -0.1513  0.4988 -0.0025
19780SOL    HW160781   1.911   1.437   8.750 -0.9028  2.2047  2.4396
19780SOL    HW260782   1.801   1.345   8.800 -0.0754 -0.2238  0.0131
19781SOL     OW60783   0.169   6.709   0.285 -0.3090 -0.2157  0.1455
19781SOL    HW160784   0.137   6.773   0.222  0.1651  0.4490  0.5658
19781SOL    HW260785   0.124   6.731   0.367  1.4878  1.0385  0.8722
19782SOL     OW60786   6.552   2.579   4.808 -0.8758 -0.1874  0.3657
19782SOL    HW160787   6.506   2.524   4.744 -1.5564 -0.7381  1.3160
19782SOL    HW260788   6.519   2.667   4.791  0.4388  0.0361 -1.3651
19783SOL     OW60789   3.260   7.784  11.939 -0.4145 -0.2511  0.4856
19783SOL    HW160790   3.341   7.744  11.970 -0.7696 -0.2222  1.4966
19783SOL    HW260791   3.229   7.835  12.014 -1.0353  0.2449 -0.1062
19784SOL     OW60792   4.003   0.170   0.558 -0.0536 -0.2428 -0.3159
19784SOL    HW160793   4.096   0.190   0.563  0.2002 -1.2347 -0.8492
19784SOL    HW260794   3.989   0.138   0.469 -1.5763  2.9999 -1.4020
19785SOL     OW60795   0.278   1.471   7.794 -0.4055  0.9354 -0.0335
19785SOL    HW160796   0.303   1.539   7.732 -0.7069  0.0197 -1.1858
19785SOL    HW260797   0.226   1.516   7.860  0.2309  1.9907 -0.2343
19786SOL     OW60798   0.411   7.062   1.492 -0.5221 -0.2211 -0.1090
19786SOL    HW160799   0.456   7.053   1.409  1.6641 -0.4282  1.0193
19786SOL    HW260800   0.429   7.152   1.520 -0.2793 -0.4877  0.6259
19787SOL     OW60801   5.559   3.633   2.916  0.3605 -0.0291  0.2438
19787SOL    HW160802   5.501   3.681   2.856 -1.7684  0.0255  2.2278
19787SOL    HW260803   5.522   3.545   2.920  0.2984  0.0433  1.6652
19788SOL     OW60804   5.364   2.687   9.959 -0.1416 -0.5216  0.2568
19788SOL    HW160805   5.378   2.692   9.865  0.0135 -1.9037  0.1856
19788SOL    HW260806   5.448   2.660   9.995  0.2523  1.5589  0.9853
19789SOL     OW60807   1.877   1.061   6.069 -0.1440  0.3291 -0.1624
19789SOL    HW160808   1.902   1.132   6.010 -0.2641  1.5963  1.2341
19789SOL    HW260809   1.878   1.102   6.156  0.1399 -1.4861  0.7271
19790SOL     OW60810   6.474   5.689   6.508  0.0408 -0.8932  0.5491
19790SOL    HW160811   6.411   5.681   6.579 -0.4436  1.2752  0.4112
19790SOL    HW260812   6.421   5.685   6.428  0.1591  0.2125  0.4121
19791SOL     OW60813   4.902   6.504   9.822 -0.5619 -0.0307 -0.2978
19791SOL    HW160814   4.822   6.534   9.866 -0.3788 -1.6906  1.2977
19791SOL    HW260815   4.885   6.518   9.729 -2.8726 -0.6216 -0.0260
19792SOL     OW60816   0.445   0.952   8.953  0.0094  0.3327  0.0965
19792SOL    HW160817   0.514   1.014   8.974 -2.3911  2.9682  0.7988
19792SOL    HW260818   0.417   0.917   9.037  0.3976 -0.7055 -0.1800
19793SOL     OW60819   7.498   3.445   3.520  0.1351  0.3063  0.3130
19793SOL    HW160820   7.469   3.370   3.468 -0.6284  2.0277 -1.9240
19793SOL    HW260821   7.586   3.422   3.548  0.1555 -1.1784 -0.8200
19794SOL     OW60822   6.575   0.497  11.399  0.4746 -0.3877  0.2445
19794SOL    HW160823   6.519   0.452  11.462  0.2908  0.8749  1.0191
19794SOL    HW260824   6.514   0.549  11.346  0.8720  1.1305  1.2026
19795SOL     OW60825   4.720   4.910   0.388 -0.4761 -0.5182 -0.5355
19795SOL    HW160826   4.768   4.902   0.471  0.2905  0.1974 -0.8932
19795SOL    HW260827   4.744   4.832   0.339  0.4975 -0.0668 -0.7908
19796SOL     OW60828   1.038   0.577   2.057  0.6296 -0.0515  0.3857
19796SOL    HW160829   1.058   0.549   1.968  0.5897 -2.4451  1.0693
19796SOL    HW260830   0.948   0.547   2.073  0.6361  0.3431  1.2411
19797SOL     OW60831   1.957   3.853   0.322  0.5640 -0.2709  0.6092
19797SOL    HW160832   1.985   3.937   0.358  0.0008  0.0515  0.2965
19797SOL    HW260833   1.964   3.863   0.228  1.3718 -0.8871  0.5934
19798SOL     OW60834   3.438   5.264  11.885 -0.3040  0.1769 -0.0819
19798SOL    HW160835   3.401   5.229  11.804 -0.1207  0.4444 -0.2850
19798SOL    HW260836   3.371   5.325  11.917 -0.1339  0.5016 -0.3366
19799SOL     OW60837   0.501   5.504   0.282 -0.3799  0.5559 -0.5249
19799SOL    HW160838   0.487   5.477   0.373  0.0363  1.0933 -0.3014
19799SOL    HW260839   0.462   5.433   0.230 -1.8647  0.8829  0.0682
19800SOL     OW60840   0.628   5.280  12.457  0.5827  0.1547  0.1205
19800SOL    HW160841   0.688   5.218  12.500 -0.7328  0.5366  2.7062
19800SOL    HW260842   0.659   5.366  12.486 -0.2330  0.4413  0.1416
19801SOL     OW60843   7.108   0.618   8.254  0.1287 -0.0758  0.0161
19801SOL    HW160844   7.050   0.617   8.330 -0.5041 -1.7516 -0.4444
19801SOL    HW260845   7.054   0.655   8.184  0.2274  0.0692  0.0152
19802SOL     OW60846   1.957   0.116   4.301  0.3991  0.0183 -1.1510
19802SOL    HW160847   1.872   0.160   4.292 -0.0779 -0.9974 -1.7985
19802SOL    HW260848   2.000   0.162   4.373 -0.8623  0.3172 -0.5502
19803SOL     OW60849   2.679   1.107   0.651 -0.0593  0.0557 -0.3885
19803SOL    HW160850   2.746   1.070   0.708  1.6711  1.5255 -1.3419
19803SOL    HW260851   2.597   1.069   0.682  0.9134 -0.0719  2.3356
19804SOL     OW60852   3.809   1.812  10.650 -0.0806  0.6956  0.6717
19804SOL    HW160853   3.744   1.744  10.665 -0.8082  0.5940 -2.2440
19804SOL    HW260854   3.890   1.778  10.687 -0.6552 -1.3104  0.1695
19805SOL     OW60855   3.092   5.642  12.041 -0.0055  0.0211 -0.3769
19805SOL    HW160856   3.059   5.695  11.968  0.8139  1.2964  0.1293
19805SOL    HW260857   3.021   5.643  12.105  0.0450  0.6137 -0.3249
19806SOL     OW60858   4.456   5.935   5.767 -0.1470 -0.7316  0.0516
19806SOL    HW160859   4.447   5.948   5.673  0.8354  0.7085  0.1271
19806SOL    HW260860   4.447   6.023   5.804  0.6306 -1.1055  1.1810
19807SOL     OW60861   4.389   1.688   1.178  0.0150 -0.0149  0.4769
19807SOL    HW160862   4.419   1.687   1.087  3.4894 -0.6769  1.4864
19807SOL    HW260863   4.317   1.752   1.178 -0.1678 -0.0239 -2.6794
19808SOL     OW60864   2.655   2.348   9.551  0.6193  0.5129 -0.2810
19808SOL    HW160865   2.585   2.327   9.489  0.7172  0.7210 -0.4600
19808SOL    HW260866   2.610   2.393   9.623  0.3475 -0.6140  0.2828
19809SOL     OW60867   6.754   3.506   3.691  0.5206  0.2630  0.1384
19809SOL    HW160868   6.790   3.595   3.692  0.3451  0.5130 -3.3881
19809SOL    HW260869   6.824   3.452   3.727  0.9310  1.7178  1.6432
19810SOL     OW60870   3.850   2.249   2.723  0.1377  0.4445  0.1782
19810SOL    HW160871   3.819   2.308   2.791  1.3819  0.1073  1.0593
19810SOL    HW260872   3.935   2.283   2.698  0.0037  0.1518 -0.7220
19811SOL     OW60873   2.852   5.186  10.083 -0.4119 -0.4470  0.4680
19811SOL    HW160874   2.926   5.243  10.064 -2.2902  1.4533 -1.8334
19811SOL    HW260875   2.846   5.185  10.179  0.4182  2.3272  0.6400
19812SOL     OW60876   0.114   2.359   3.496  0.2856  0.3900  0.0044
19812SOL    HW160877   0.119   2.269   3.528 -0.4306  0.7019  1.0349
19812SOL    HW260878   0.025   2.387   3.516  0.9464  1.8372  1.1650
19813SOL     OW60879   7.248   1.971   5.102  0.3049  0.2865 -0.1136
19813SOL    HW160880   7.237   1.924   5.019  3.0443 -0.1331 -0.3413
19813SOL    HW260881   7.240   1.903   5.169  2.1856 -0.2111 -0.3293
19814SOL     OW60882   7.202   2.777   8.629 -0.2993  0.4520  0.4995
19814SOL    HW160883   7.192   2.823   8.712 -0.5495 -0.1107  0.7861
19814SOL    HW260884   7.147   2.699   8.638 -1.6036  1.1781 -0.7885
19815SOL     OW60885   4.126   3.289   6.623 -0.1791  0.3342 -0.1272
19815SOL    HW160886   4.094   3.298   6.713 -0.2197 -1.3351  0.0586
19815SOL    HW260887   4.090   3.365   6.577  1.1065  2.0879  1.5836
19816SOL     OW60888   5.164   7.461   9.770  0.5417 -0.1116 -0.8846
19816SOL    HW160889   5.127   7.388   9.820  2.5896 -0.1805  0.6731
19816SOL    HW260890   5.118   7.538   9.801 -0.0485 -0.4742 -0.8510
19817SOL     OW60891   0.139   6.634  11.582 -0.5627 -0.3485 -0.4575
19817SOL    HW160892   0.065   6.627  11.521 -0.7845  0.5894 -0.3107
19817SOL    HW260893   0.201   6.692  11.539 -0.1500 -0.6980 -0.3402
19818SOL     OW60894   5.790   0.819   2.169  0.3852 -0.0969 -0.3048
19818SOL    HW160895   5.827   0.778   2.248  1.6870 -1.1690 -1.4145
19818SOL    HW260896   5.767   0.745   2.113 -1.1311  0.6358 -0.6891
19819SOL     OW60897   2.586   0.297   2.034 -0.1566 -0.1677  0.4529
19819SOL    HW160898   2.621   0.303   1.945  0.5444 -0.7613  0.6806
19819SOL    HW260899   2.498   0.262   2.023 -0.0070 -0.4107  0.0030
19820SOL     OW60900   3.529   7.566  10.720 -0.0357  0.6218  0.0274
19820SOL    HW160901   3.545   7.476  10.748 -1.4176  0.1488 -0.6319
19820SOL    HW260902   3.434   7.575  10.718  0.0104  1.3206 -2.2280
19821SOL     OW60903   4.773   4.368   7.586  0.0945 -0.3735  0.4419
19821SOL    HW160904   4.727   4.284   7.580 -2.4863  0.9882 -0.0648
19821SOL    HW260905   4.806   4.384   7.497  0.2398 -0.6588  0.4435
19822SOL     OW60906   6.537   0.487   3.800  0.7225  0.4371 -0.1831
19822SOL    HW160907   6.560   0.529   3.717 -0.8693  1.6327 -0.0597
19822SOL    HW260908   6.456   0.441   3.781  0.9760 -0.2645  0.4273
19823SOL     OW60909   1.699   5.513   9.875 -0.1647 -0.8724 -0.4712
19823SOL    HW160910   1.708   5.576   9.803  1.7697 -0.8064 -0.2156
19823SOL    HW260911   1.732   5.431   9.840 -0.4288 -1.1625 -0.0555
19824SOL     OW60912   2.185   0.291  12.122 -0.1550  1.0352  0.0506
19824SOL    HW160913   2.176   0.199  12.149 -0.4108  1.4438  1.4792
19824SOL    HW260914   2.185   0.289  12.027 -0.3909 -0.4285  0.0620
19825SOL     OW60915   0.696   4.460   2.958  0.3027 -0.3245  0.6117
19825SOL    HW160916   0.790   4.446   2.962  0.5203  1.0681  0.8545
19825SOL    HW260917   0.686   4.537   2.902 -0.6184  0.1551  1.4121
19826SOL     OW60918   7.749   2.707   7.813  0.4193  0.0612  0.0005
19826SOL    HW160919   7.801   2.755   7.877  1.0513 -2.9295  1.9379
19826SOL    HW260920   7.658   2.718   7.842  0.5353  0.2299  0.2937
19827SOL     OW60921   5.022   3.478  11.147 -0.4153  0.2934  0.1394
19827SOL    HW160922   4.980   3.531  11.079  1.0308  0.8190 -0.3833
19827SOL    HW260923   4.990   3.389  11.130 -0.7271  0.5509 -0.6936
19828SOL     OW60924   6.369   1.016   2.198  0.1379  0.0060 -0.1482
19828SOL    HW160925   6.310   1.084   2.166 -0.8543 -0.8817 -0.2637
19828SOL    HW260926   6.353   1.011   2.292 -0.2573 -0.4829 -0.2342
19829SOL     OW60927   2.819   3.461   2.423 -0.3964 -0.1685 -0.0052
19829SOL    HW160928   2.775   3.434   2.503 -0.7936  1.3241  0.3101
19829SOL    HW260929   2.782   3.405   2.355 -0.2061 -1.3067  0.8126
19830SOL     OW60930   0.674   5.268  11.707  0.2200 -0.4411  0.0831
19830SOL    HW160931   0.687   5.200  11.641 -1.6507 -0.6430 -0.1359
19830SOL    HW260932   0.582   5.292  11.698  0.4379  0.9574  1.2796
19831SOL     OW60933   6.075   3.577   5.036  0.0249  0.0676  0.1565
19831SOL    HW160934   6.104   3.511   4.973 -1.0358 -0.9157  0.6628
19831SOL    HW260935   6.030   3.642   4.983 -4.2271 -2.5681  0.0462
19832SOL     OW60936   0.935   7.938   8.790  0.0470 -0.0505 -0.1457
19832SOL    HW160937   0.907   7.848   8.810 -0.1956  0.2424  0.8791
19832SOL    HW260938   1.017   7.949   8.837 -0.6811  0.7455  1.0030
19833SOL     OW60939   5.568   4.211   9.078 -0.3877 -0.4014  0.0457
19833SOL    HW160940   5.513   4.288   9.090 -0.7224 -0.5482 -0.4977
19833SOL    HW260941   5.636   4.219   9.146 -0.0052  0.7269 -0.4370
19834SOL     OW60942   4.142   2.281  11.386  0.0396 -0.2598 -0.3558
19834SOL    HW160943   4.135   2.342  11.459 -0.5167 -1.3268  0.4969
19834SOL    HW260944   4.163   2.337  11.311 -1.8066  1.1866  0.1103
19835SOL     OW60945   2.089   5.244   2.003 -0.0336  0.1929  0.1308
19835SOL    HW160946   2.147   5.234   2.078 -0.4574 -0.6737  0.3483
19835SOL    HW260947   2.148   5.242   1.927  0.1970 -1.0331  0.3303
19836SOL     OW60948   6.423   6.808   4.894 -0.2222  0.0669  0.1446
19836SOL    HW160949   6.519   6.801   4.898  0.0037  1.0918 -2.0218
19836SOL    HW260950   6.401   6.862   4.971  0.5357 -2.5815  2.3846
19837SOL     OW60951   4.863   2.359   8.171  0.4062  0.0523  0.4249
19837SOL    HW160952   4.773   2.374   8.143  0.2331  0.0056  0.9493
19837SOL    HW260953   4.856   2.337   8.264  0.8645 -1.0160  0.2219
19838SOL     OW60954   2.971   0.522   6.422  0.9331  0.0356  0.3664
19838SOL    HW160955   3.034   0.500   6.490  0.1136 -2.3556  0.4336
19838SOL    HW260956   2.922   0.441   6.407  0.3253  0.7886 -2.2655
19839SOL     OW60957   4.844   7.604   0.824  0.0157 -0.3761 -0.0938
19839SOL    HW160958   4.795   7.524   0.806  1.1701 -0.8312 -1.3897
19839SOL    HW260959   4.880   7.630   0.739  0.3010  1.0924  0.4528
19840SOL     OW60960   6.437   6.737  12.030  0.4369  0.3646  0.1436
19840SOL    HW160961   6.393   6.765  11.949  0.1668 -0.2537  0.0754
19840SOL    HW260962   6.396   6.790  12.099 -0.6189 -0.3894  0.1177
19841SOL     OW60963   7.212   0.715   9.069 -0.2398  0.0790 -0.7516
19841SOL    HW160964   7.145   0.649   9.088 -0.2696 -0.1380 -1.5656
19841SOL    HW260965   7.216   0.718   8.974  1.7873 -0.8228 -0.7531
19842SOL     OW60966   0.276   3.940   7.731 -0.3090  0.6162  0.1329
19842SOL    HW160967   0.312   4.000   7.797 -1.2974  2.3537 -0.8326
19842SOL    HW260968   0.255   3.997   7.657  0.5670 -1.2470 -1.6220
19843SOL     OW60969   2.007   1.690   6.038 -0.3418 -0.0796 -0.4923
19843SOL    HW160970   2.070   1.627   6.004 -1.0556 -0.2478 -1.5555
19843SOL    HW260971   1.930   1.680   5.982 -0.6708  1.3593 -0.3476
19844SOL     OW60972   6.276   4.903  10.918 -0.6738  0.1196 -0.2364
19844SOL    HW160973   6.241   4.925  10.832 -1.0574 -1.1769 -0.4437
19844SOL    HW260974   6.232   4.962  10.979 -3.0042 -1.1657 -0.5385
19845SOL     OW60975   1.786   1.234  12.369  0.4175 -0.1863 -0.0489
19845SOL    HW160976   1.819   1.149  12.398  2.5221 -0.1324 -2.0523
19845SOL    HW260977   1.776   1.225  12.274 -1.5608  1.1157 -0.0165
19846SOL     OW60978   1.751   4.248   7.390 -0.1059 -0.0493  0.0056
19846SOL    HW160979   1.704   4.324   7.425 -1.5225 -0.4232 -1.0111
19846SOL    HW260980   1.707   4.172   7.429  0.0136 -0.3955 -0.5263
19847SOL     OW60981   7.118   2.057   2.157 -0.5030 -0.1929 -0.1596
19847SOL    HW160982   7.106   2.121   2.228 -0.3271  0.0876 -0.3814
19847SOL    HW260983   7.129   1.973   2.202  0.9399  0.1675  0.2060
19848SOL     OW60984   4.130   2.554   3.069 -0.4230 -0.0518  0.2532
19848SOL    HW160985   4.064   2.582   3.133  0.2278  0.9374  0.5108
19848SOL    HW260986   4.205   2.527   3.122 -0.3410 -0.4385 -0.0586
19849SOL     OW60987   7.140   6.382   7.322 -0.0652 -0.1858 -0.0248
19849SOL    HW160988   7.067   6.392   7.260  0.3800 -1.7891 -0.8558
19849SOL    HW260989   7.212   6.432   7.283  0.0616 -0.7816 -0.5747
19850SOL     OW60990   6.230   4.863   4.048 -0.0693 -0.2123  0.3886
19850SOL    HW160991   6.311   4.909   4.068 -2.0040  3.0629  1.5013
19850SOL    HW260992   6.223   4.868   3.952 -0.3950  2.4373  0.4677
19851SOL     OW60993   3.112   1.657   5.234 -0.6408 -0.1595 -0.4625
19851SOL    HW160994   3.112   1.720   5.306 -1.2939 -1.5112  0.8036
19851SOL    HW260995   3.192   1.606   5.247 -0.6554 -0.2770 -0.8204
19852SOL     OW60996   1.441   5.233   3.164  0.0509  0.1131  0.0654
19852SOL    HW160997   1.434   5.293   3.238  0.5846 -0.9921  1.0542
19852SOL    HW260998   1.356   5.238   3.120 -0.2707  0.7897  0.7497
19853SOL     OW60999   5.091   4.482  10.746 -0.1147  0.1504  0.1574
19853SOL    HW161000   5.091   4.418  10.675 -0.9474 -1.9767  1.9465
19853SOL    HW261001   5.150   4.551  10.717 -0.1817 -0.7863 -2.4275
19854SOL     OW61002   0.634   2.821   1.161 -0.2042  0.2752  0.6670
19854SOL    HW161003   0.603   2.750   1.217  1.1033 -0.2808  0.7084
19854SOL    HW261004   0.554   2.857   1.123 -0.8661 -1.9326 -0.2119
19855SOL     OW61005   4.599   2.112   0.345  0.4909 -0.5116  0.6752
19855SOL    HW161006   4.642   2.035   0.381  1.3889  0.3183  1.4417
19855SOL    HW261007   4.656   2.140   0.273  1.0594  0.3626  1.4398
19856SOL     OW61008   4.946   6.954   2.377  0.8366 -0.2744  0.1614
19856SOL    HW161009   5.001   6.904   2.317 -1.1315 -0.6883 -1.4170
19856SOL    HW261010   5.006   7.015   2.421  2.3842  0.0516 -2.2442
19857SOL     OW61011   1.172   5.271   2.164 -0.4712  0.0942  0.0835
19857SOL    HW161012   1.214   5.259   2.249  1.8244 -0.8254 -1.1057
19857SOL    HW261013   1.243   5.292   2.105 -2.0248  0.7454 -1.6333
19858SOL     OW61014   6.755   1.362   1.563  0.0013  0.2027 -0.1918
19858SOL    HW161015   6.819   1.390   1.497  0.6901  0.4438  0.5629
19858SOL    HW261016   6.697   1.438   1.572  0.3349  0.4408 -0.0084
19859SOL     OW61017   3.788   1.133   5.550 -0.5035 -0.1631 -0.0540
19859SOL    HW161018   3.822   1.195   5.614 -0.7543  0.5572 -0.5957
19859SOL    HW261019   3.770   1.187   5.473  0.4556 -1.1140 -0.9799
19860SOL     OW61020   6.103   0.292   1.440  0.1763 -0.4435  0.9832
19860SOL    HW161021   6.094   0.204   1.402  0.6705 -0.1218  0.0975
19860SOL    HW261022   6.052   0.288   1.521 -0.1756 -1.4156  0.7311
19861SOL     OW61023   1.754   3.154   6.550 -0.4871  0.4246 -0.1380
19861SOL    HW161024   1.700   3.077   6.532 -0.8017  0.8390 -1.0291
19861SOL    HW261025   1.712   3.197   6.625 -0.9267  0.3083 -0.3173
19862SOL     OW61026   3.883   0.820   6.276  0.0162 -0.1385 -0.0127
19862SOL    HW161027   3.928   0.887   6.326  1.2847 -0.2874 -0.9038
19862SOL    HW261028   3.943   0.800   6.204  0.0544 -2.8069  0.6719
19863SOL     OW61029   4.416   1.956   5.129  0.0439  0.3019  0.4892
19863SOL    HW161030   4.323   1.933   5.135 -0.2335  0.9788 -0.9006
19863SOL    HW261031   4.461   1.886   5.176 -1.0810 -0.7435  0.0687
19864SOL     OW61032   2.933   1.883   4.375  0.9043  0.2693 -0.4204
19864SOL    HW161033   2.874   1.818   4.413 -0.5749  1.2069 -1.0127
19864SOL    HW261034   2.951   1.850   4.287  0.2265  0.6001 -0.6894
19865SOL     OW61035   0.921   2.447   8.712 -0.1970  0.3113 -0.4907
19865SOL    HW161036   0.972   2.522   8.683  1.6833 -0.9846 -0.7347
19865SOL    HW261037   0.902   2.398   8.632 -4.1131  1.9761 -0.7960
19866SOL     OW61038   2.192   7.514   2.022 -0.0046 -0.1363 -0.5022
19866SOL    HW161039   2.286   7.501   2.012  0.3770  2.1774 -0.2713
19866SOL    HW261040   2.157   7.500   1.934  0.6858 -0.0187 -0.8001
19867SOL     OW61041   6.217   2.826   4.153  0.0906 -0.2368 -0.8751
19867SOL    HW161042   6.279   2.776   4.099 -1.5369 -2.5799 -0.7334
19867SOL    HW261043   6.272   2.880   4.209  1.9568 -1.1869 -1.6931
19868SOL     OW61044   5.082   7.117  12.053 -0.6570 -0.1806 -0.1675
19868SOL    HW161045   4.990   7.109  12.025 -1.0757 -2.3348  1.5305
19868SOL    HW261046   5.079   7.179  12.126 -0.9011 -0.6843  0.2643
19869SOL     OW61047   0.108   5.279   1.968 -0.6076 -0.2629  0.2135
19869SOL    HW161048   0.081   5.352   1.913  0.8398 -0.6265 -1.0371
19869SOL    HW261049   0.200   5.265   1.946  0.3797  0.2546  3.5130
19870SOL     OW61050   2.697   6.236   0.694  0.5182  0.1423  0.6308
19870SOL    HW161051   2.721   6.164   0.752 -0.3974  1.7416  3.1689
19870SOL    HW261052   2.741   6.313   0.731 -0.5408  1.3434 -0.4977
19871SOL     OW61053   5.299   7.219  11.898  0.6196  0.2994  0.3762
19871SOL    HW161054   5.364   7.153  11.873  0.8279  0.8614 -0.6026
19871SOL    HW261055   5.224   7.168  11.928  0.1234 -0.4671 -1.9516
19872SOL     OW61056   6.962   2.976   5.659  0.1506  0.1772  0.2127
19872SOL    HW161057   6.994   2.889   5.684 -1.1799  0.0576  1.6382
19872SOL    HW261058   6.917   2.962   5.576 -0.2991 -0.5612  0.5713
19873SOL     OW61059   2.423   5.734   8.461 -0.3826  0.6068  0.4640
19873SOL    HW161060   2.344   5.756   8.510 -0.1154  0.7559  0.8372
19873SOL    HW261061   2.399   5.658   8.408  0.4819 -2.5221  4.0897
19874SOL     OW61062   0.221   2.882   1.608  0.1645  0.1178  0.3428
19874SOL    HW161063   0.294   2.867   1.548  0.0819  0.7512  0.0803
19874SOL    HW261064   0.161   2.810   1.590 -0.8130  1.3657 -1.7915
19875SOL     OW61065   4.109   2.056   8.504  0.5013  0.1904  0.1531
19875SOL    HW161066   4.145   1.971   8.480  0.0655  0.0616 -0.0359
19875SOL    HW261067   4.077   2.094   8.422  0.2793  0.3433  0.3080
19876SOL     OW61068   4.674   1.265   9.192  0.2363 -0.1076  0.0235
19876SOL    HW161069   4.653   1.266   9.098 -1.2270 -1.6478  0.2828
19876SOL    HW261070   4.770   1.264   9.194  0.3100  0.7412 -1.4274
19877SOL     OW61071   7.642   1.925   8.349 -0.4124  0.0695 -0.0385
19877SOL    HW161072   7.604   1.878   8.275 -1.0693  1.4886 -0.6383
19877SOL    HW261073   7.724   1.960   8.316 -0.7828  0.8425 -0.1762
19878SOL     OW61074   2.154   0.353  10.126 -0.3750  0.0851  0.0211
19878SOL    HW161075   2.172   0.419  10.192 -0.0053  0.0356 -0.0228
19878SOL    HW261076   2.067   0.320  10.147 -0.2558  0.0620  0.4899
19879SOL     OW61077   0.744   3.616   0.013 -0.6553 -0.0987 -0.0976
19879SOL    HW161078   0.726   3.679  -0.057  0.9844  1.4022  0.7574
19879SOL    HW261079   0.737   3.667   0.094 -1.3085 -1.5268  0.7916
19880SOL     OW61080   7.355   0.417   1.618 -0.0124 -0.0499 -0.6514
19880SOL    HW161081   7.404   0.363   1.680  2.4277  2.4179 -0.2356
19880SOL    HW261082   7.308   0.480   1.673 -2.5970 -1.4201 -1.1360
19881SOL     OW61083   3.085   5.452   6.030  0.2008  0.0569 -0.1828
19881SOL    HW161084   3.138   5.380   5.996  1.1378  0.5789  0.1196
19881SOL    HW261085   3.052   5.420   6.114 -1.1889 -0.8092 -1.0134
19882SOL     OW61086   6.138   1.621   0.529  0.0405 -0.0127 -0.0781
19882SOL    HW161087   6.178   1.644   0.613 -0.4385  0.2905  0.0758
19882SOL    HW261088   6.206   1.638   0.464  1.3586 -2.7588  0.4506
19883SOL     OW61089   4.030   5.419  11.728 -0.0130 -0.0285 -0.4377
19883SOL    HW161090   4.042   5.349  11.792  0.2590  1.3110  1.0235
19883SOL    HW261091   4.111   5.418  11.677  0.3401 -0.2346  0.1152
19884SOL     OW61092   3.688   5.096   1.737  0.2664 -0.0001 -0.0871
19884SOL    HW161093   3.772   5.085   1.781 -1.2448  0.3889  3.1846
19884SOL    HW261094   3.711   5.134   1.652  3.3824 -0.0981  0.5781
19885SOL     OW61095   2.541   7.610   0.837  0.5215 -0.5338 -0.1762
19885SOL    HW161096   2.487   7.541   0.797  1.6001 -1.5500  0.0797
19885SOL    HW261097   2.627   7.599   0.797  0.8145  0.4238  0.1649
19886SOL     OW61098   4.582   3.728   2.173 -0.4088  0.3528 -0.0040
19886SOL    HW161099   4.665   3.725   2.125  0.2038 -0.6797  1.0730
19886SOL    HW261100   4.515   3.723   2.105  0.4340 -0.3666 -0.8080
19887SOL     OW61101   4.980   2.281  10.492 -0.3911  0.4343  0.4269
19887SOL    HW161102   5.025   2.258  10.573  0.2302 -0.3885 -0.1303
19887SOL    HW261103   4.976   2.377  10.493 -0.5982  0.4238  1.5218
19888SOL     OW61104   2.560   6.092   6.752  0.0460  0.1040  0.3480
19888SOL    HW161105   2.485   6.111   6.694 -0.7259  0.4722  1.4401
19888SOL    HW261106   2.529   6.023   6.810  1.4259 -1.5553 -0.8005
19889SOL     OW61107   4.224   2.610  10.103  0.2221 -0.2661 -0.7553
19889SOL    HW161108   4.153   2.643  10.048 -0.1748 -1.6321 -1.1106
19889SOL    HW261109   4.179   2.556  10.169  0.8957 -0.9028 -0.8036
19890SOL     OW61110   6.627   7.898   6.210  0.5893  0.1879 -0.1465
19890SOL    HW161111   6.556   7.835   6.199  0.1600  0.1335  2.4451
19890SOL    HW261112   6.690   7.854   6.268  0.8660  1.6705  0.7228
19891SOL     OW61113   7.024   3.303  12.044 -0.1409 -0.2056 -0.5411
19891SOL    HW161114   7.011   3.213  12.074 -2.1249 -0.2545 -1.3770
19891SOL    HW261115   7.076   3.343  12.113  0.1881 -1.7986  0.1937
19892SOL     OW61116   0.114   3.179   6.046 -0.2228 -0.5119  0.6685
19892SOL    HW161117   0.175   3.148   5.980 -0.4772 -1.4150  0.8477
19892SOL    HW261118   0.149   3.264   6.073  2.1333 -1.8817  2.2637
19893SOL     OW61119   6.113   4.194   9.385  0.4006  0.6055 -0.0124
19893SOL    HW161120   6.130   4.202   9.291 -1.6809  0.4903 -0.4502
19893SOL    HW261121   6.095   4.101   9.398 -1.6424  0.9664  0.0153
19894SOL     OW61122   2.552   0.728   4.741  0.4290 -0.2782  0.0770
19894SOL    HW161123   2.474   0.678   4.718  0.2478  0.5205 -1.1311
19894SOL    HW261124   2.581   0.690   4.824 -0.8829 -0.9917  0.2356
19895SOL     OW61125   4.270   7.617   8.947  0.3679  0.1528 -0.5304
19895SOL    HW161126   4.354   7.579   8.974  1.5117 -0.4876 -4.2776
19895SOL    HW261127   4.205   7.550   8.969  0.8517  0.4146  1.9117
19896SOL     OW61128   2.864   0.251   0.078  0.1088  0.4142  0.0867
19896SOL    HW161129   2.786   0.280   0.124  0.0103 -1.0162  0.8678
19896SOL    HW261130   2.885   0.323   0.018 -0.0112  2.1627  2.0286
19897SOL     OW61131   3.223   7.983   3.626 -0.1238 -0.2009 -0.3018
19897SOL    HW161132   3.194   7.997   3.716 -1.7688  1.0151 -0.9715
19897SOL    HW261133   3.306   7.936   3.635 -0.7443 -1.0426  1.8125
19898SOL     OW61134   2.621   7.928   5.699  0.1853  0.4570  0.3000
19898SOL    HW161135   2.675   7.852   5.722  0.9918  1.1822  0.9060
19898SOL    HW261136   2.572   7.947   5.779  0.9312  1.3170  0.5758
19899SOL     OW61137   5.283   1.816   7.062 -0.3094 -0.9623  0.0269
19899SOL    HW161138   5.263   1.866   6.983 -0.1473 -0.2391  0.4409
19899SOL    HW261139   5.379   1.811   7.063 -0.2100  0.5469  1.0912
19900SOL     OW61140   3.170   6.262   0.920  0.1458  0.2876  0.0701
19900SOL    HW161141   3.211   6.187   0.965 -0.5970 -0.1348  0.0603
19900SOL    HW261142   3.185   6.336   0.980 -0.7257 -0.2447  0.9844
19901SOL     OW61143   1.180   4.173   5.751  0.6374 -0.2872 -0.1959
19901SOL    HW161144   1.108   4.164   5.688 -0.2660  0.4035  0.6927
19901SOL    HW261145   1.204   4.266   5.747  1.9214 -0.6251 -0.9186
19902SOL     OW61146   5.122   3.108   7.557 -0.4125 -0.1555 -0.4127
19902SOL    HW161147   5.099   3.199   7.575  1.4948 -0.0870  2.2561
19902SOL    HW261148   5.213   3.111   7.528  0.2893 -1.2930  1.4974
19903SOL     OW61149   2.468   6.373   0.666  0.3170  0.2020  0.1475
19903SOL    HW161150   2.551   6.329   0.684  0.0904 -1.2975 -1.9933
19903SOL    HW261151   2.411   6.350   0.739  0.5760 -2.2210 -0.3389
19904SOL     OW61152   4.340   1.432   4.468  0.9227  0.2010  0.1242
19904SOL    HW161153   4.358   1.470   4.554  3.5723  0.0090 -0.2570
19904SOL    HW261154   4.338   1.507   4.409  1.9912  0.1418 -0.0179
19905SOL     OW61155   0.302   2.707   0.327 -0.3200 -0.7058  0.2650
19905SOL    HW161156   0.283   2.708   0.233 -0.8523  0.0633  0.3599
19905SOL    HW261157   0.302   2.800   0.351  1.0534 -0.8334  0.7920
19906SOL     OW61158   7.181   7.548   6.816 -0.6645  0.4591  0.2363
19906SOL    HW161159   7.197   7.557   6.722  3.9921 -0.1436  0.7682
19906SOL    HW261160   7.182   7.638   6.849  2.9046  0.5693  0.1954
19907SOL     OW61161   7.027   5.430  10.204 -0.2674 -0.1422 -0.1813
19907SOL    HW161162   7.040   5.489  10.130 -1.2084  1.0644  0.5683
19907SOL    HW261163   7.087   5.462  10.271 -0.0663 -0.6616 -0.1127
19908SOL     OW61164   4.928   3.525   4.111  0.6388 -0.0112 -0.7762
19908SOL    HW161165   4.921   3.446   4.058  0.2351 -0.2966 -0.3049
19908SOL    HW261166   4.847   3.572   4.095  0.3942 -0.2311 -0.2110
19909SOL     OW61167   7.849   3.381   7.678  0.1194  0.1888 -0.5818
19909SOL    HW161168   7.772   3.347   7.724 -0.9100  1.2683 -1.4353
19909SOL    HW261169   7.816   3.456   7.629  1.6218  0.3430 -1.4094
19910SOL     OW61170   6.144   7.147   4.735 -0.2963  0.3506  0.0772
19910SOL    HW161171   6.162   7.087   4.807  0.0677 -1.0715 -1.1528
19910SOL    HW261172   6.163   7.234   4.771  0.4286 -0.3710  1.5163
19911SOL     OW61173   0.509   0.321   6.686 -0.4812  0.8381  0.2876
19911SOL    HW161174   0.445   0.317   6.616  1.1259 -0.4221 -1.1991
19911SOL    HW261175   0.562   0.242   6.675  1.1986  1.7234  1.5446
19912SOL     OW61176   7.507   1.872   1.161  0.0391 -0.0590 -0.6343
19912SOL    HW161177   7.440   1.924   1.117  1.2002  1.6800 -0.4147
19912SOL    HW261178   7.503   1.787   1.117 -0.7271  0.7339 -2.1961
19913SOL     OW61179   4.305   1.261   1.499 -0.5910 -0.4294  0.1732
19913SOL    HW161180   4.344   1.325   1.559 -1.3177  0.0958  0.1036
19913SOL    HW261181   4.353   1.273   1.417  0.5966 -1.3464  0.7104
19914SOL     OW61182   7.635   3.418   2.504 -0.0633 -0.1118 -0.2865
19914SOL    HW161183   7.659   3.414   2.411  0.7616  0.3841 -0.1045
19914SOL    HW261184   7.612   3.510   2.519 -0.8176 -0.3143 -0.1361
19915SOL     OW61185   6.893   4.134   5.642 -0.5379  0.1878 -0.0033
19915SOL    HW161186   6.819   4.095   5.596 -0.0297  0.7098 -1.3057
19915SOL    HW261187   6.967   4.077   5.623 -0.3009  0.4589  0.0912
19916SOL     OW61188   4.451   7.450   1.833  0.2585  0.1855  0.1426
19916SOL    HW161189   4.434   7.384   1.766 -0.4220  2.3556 -1.9845
19916SOL    HW261190   4.546   7.463   1.831  0.1330  1.1499 -1.4368
19917SOL     OW61191   1.329   6.156   3.129  0.9577  0.1481 -0.3741
19917SOL    HW161192   1.344   6.193   3.216  3.6876 -1.1567 -0.1631
19917SOL    HW261193   1.281   6.075   3.147  1.4159 -0.0637 -0.0665
19918SOL     OW61194   1.026   6.242  10.494  0.0671 -0.3430 -0.4842
19918SOL    HW161195   1.073   6.220  10.574 -0.5268  2.5896  0.7950
19918SOL    HW261196   1.091   6.231  10.424  0.5845 -2.9757  0.3075
19919SOL     OW61197   2.746   4.904   9.563 -0.6111  0.1479  0.5812
19919SOL    HW161198   2.822   4.962   9.573 -0.8668  0.4615  0.7256
19919SOL    HW261199   2.779   4.832   9.509  0.0971 -0.2998  1.5784
19920SOL     OW61200   5.351   1.995  10.405  0.3560  0.1507 -0.5495
19920SOL    HW161201   5.288   2.013  10.474  1.2590  1.6602 -0.0688
19920SOL    HW261202   5.381   2.081  10.376  0.9880 -0.4827 -1.9043
19921SOL     OW61203   3.629   0.766   1.803  0.1235 -0.5587  0.0301
19921SOL    HW161204   3.711   0.716   1.804  0.5269  0.0611  1.9643
19921SOL    HW261205   3.578   0.726   1.732  1.2133 -2.4263  0.2160
19922SOL     OW61206   7.950   2.701   4.942  0.0659 -0.1323  0.3477
19922SOL    HW161207   7.945   2.645   4.865  1.6942 -0.6459  0.5848
19922SOL    HW261208   7.946   2.641   5.017  1.9513  0.0130  0.6013
19923SOL     OW61209   7.442   7.452   1.941  0.1199  0.5149  0.2831
19923SOL    HW161210   7.436   7.422   2.031 -1.2396  0.2335  0.1225
19923SOL    HW261211   7.446   7.372   1.889 -1.2245  0.6102 -0.0116
19924SOL     OW61212   0.211   2.351  10.601  0.4738  0.1126 -0.3832
19924SOL    HW161213   0.291   2.375  10.647  0.0405 -1.2983  1.2394
19924SOL    HW261214   0.187   2.266  10.639 -1.5347  0.2872 -1.1562
19925SOL     OW61215   7.261   0.869   8.109 -0.1144 -0.0313 -0.1055
19925SOL    HW161216   7.188   0.862   8.171  0.3223 -2.9177  0.1956
19925SOL    HW261217   7.326   0.923   8.153 -1.6456  1.8347 -0.0128
19926SOL     OW61218   5.565   1.344  12.402  0.2351  0.5314 -0.2437
19926SOL    HW161219   5.659   1.344  12.416  0.0673  1.1465  1.1048
19926SOL    HW261220   5.528   1.318  12.487 -0.8339  1.9378 -0.2396
19927SOL     OW61221   3.348   6.634   8.110  0.1998 -0.1636  0.1256
19927SOL    HW161222   3.292   6.609   8.183 -0.3610 -0.1963 -0.3152
19927SOL    HW261223   3.402   6.557   8.093  0.5765 -0.0421  0.7202
19928SOL     OW61224   2.045   6.366   1.280  0.5950 -0.1795  0.1199
19928SOL    HW161225   2.064   6.313   1.358 -1.0452  0.4918  1.0312
19928SOL    HW261226   2.023   6.452   1.315 -0.0132  0.1803 -1.1105
19929SOL     OW61227   0.204   1.196   3.459  0.1450 -0.0533 -0.1159
19929SOL    HW161228   0.150   1.195   3.380  0.0573  0.2388 -0.0618
19929SOL    HW261229   0.294   1.193   3.427  0.1028 -0.2703 -0.2155
19930SOL     OW61230   6.778   4.755   0.715 -0.4247 -0.1834 -0.1737
19930SOL    HW161231   6.776   4.834   0.769 -0.2687  1.3763 -2.3191
19930SOL    HW261232   6.687   4.726   0.712 -0.9686  1.4765 -1.4289
19931SOL     OW61233   6.547   4.705   5.110 -0.0693  0.5341  0.2087
19931SOL    HW161234   6.464   4.713   5.062 -0.9453 -0.1021  1.5733
19931SOL    HW261235   6.597   4.640   5.060 -1.3587 -0.8442  0.6514
19932SOL     OW61236   5.219   6.077  10.769 -0.0696  0.0910 -0.2431
19932SOL    HW161237   5.233   6.171  10.781 -1.0312  0.0218  1.8366
19932SOL    HW261238   5.124   6.067  10.773 -0.0567 -0.8403 -1.7773
19933SOL     OW61239   3.230   3.254   7.373 -0.6360  0.3980  0.4714
19933SOL    HW161240   3.265   3.212   7.294  1.5073  1.6237  0.7132
19933SOL    HW261241   3.277   3.214   7.445 -3.2842 -1.4408  1.3653
19934SOL     OW61242   5.779   3.150   0.346 -0.6312 -0.3159  0.1245
19934SOL    HW161243   5.733   3.201   0.279 -1.2771 -0.2009  0.6455
19934SOL    HW261244   5.797   3.213   0.416  1.2042 -0.1211 -0.4654
19935SOL     OW61245   7.424   0.270   5.782  0.0862  0.5298 -0.1651
19935SOL    HW161246   7.425   0.356   5.740  0.4306 -0.3035 -1.9729
19935SOL    HW261247   7.421   0.288   5.876  1.0438  2.4969 -0.4847
19936SOL     OW61248   5.216   1.970   5.141  0.1592  0.2412 -0.3458
19936SOL    HW161249   5.195   1.895   5.197 -2.4908  0.1404 -1.3431
19936SOL    HW261250   5.280   2.020   5.192  0.0138 -1.3236  1.4983
19937SOL     OW61251   0.044   4.003   5.255  0.4944  0.6451 -0.0237
19937SOL    HW161252  -0.022   4.026   5.189  0.6741  0.9232 -0.1046
19937SOL    HW261253   0.122   4.052   5.229  0.3277  1.3932  0.8607
19938SOL     OW61254   5.982   3.739   8.362 -0.2212  0.3935 -0.0230
19938SOL    HW161255   5.921   3.666   8.363 -0.7653  0.7023 -2.9177
19938SOL    HW261256   5.932   3.813   8.395 -0.0426 -0.1859  1.6909
19939SOL     OW61257   6.581   3.395   9.489 -0.2700  0.2326  0.4749
19939SOL    HW161258   6.615   3.318   9.443  2.3239  0.7841  1.2628
19939SOL    HW261259   6.565   3.459   9.419 -2.3595 -0.9272 -0.1756
19940SOL     OW61260   5.595   2.390   5.466  0.0530 -0.5541  0.3559
19940SOL    HW161261   5.601   2.468   5.521 -0.4456 -1.5580  1.9189
19940SOL    HW261262   5.533   2.413   5.397  0.6443  0.7238  0.2209
19941SOL     OW61263   2.540   5.903   2.156  0.3903 -0.5069  0.4921
19941SOL    HW161264   2.629   5.938   2.160  0.0849  0.5490 -0.9600
19941SOL    HW261265   2.502   5.924   2.241  1.9393 -2.2784  1.7153
19942SOL     OW61266   0.778   0.145  11.724  0.1501 -0.3919 -0.0546
19942SOL    HW161267   0.865   0.130  11.687 -0.1285 -1.3958 -0.3421
19942SOL    HW261268   0.719   0.098  11.666 -0.3333 -1.8297  1.5125
19943SOL     OW61269   0.368   2.174   4.997 -0.7506 -0.4195 -0.0483
19943SOL    HW161270   0.272   2.174   4.997 -0.7822  1.2363 -1.2479
19943SOL    HW261271   0.392   2.082   4.985 -2.1961 -0.7457 -0.6537
19944SOL     OW61272   5.483   7.435   4.443  0.0816  0.2149 -0.0610
19944SOL    HW161273   5.423   7.379   4.493  0.2325 -0.6507 -0.8131
19944SOL    HW261274   5.448   7.433   4.354  0.8324  0.2704 -0.3622
19945SOL     OW61275   6.862   2.452   5.524 -0.2615  0.4999  0.1553
19945SOL    HW161276   6.811   2.374   5.545  2.1310 -0.7683  1.7654
19945SOL    HW261277   6.799   2.513   5.486 -2.1255 -2.4691 -1.9664
19946SOL     OW61278   5.379   6.982  10.051 -0.2210 -0.1277 -0.1200
19946SOL    HW161279   5.470   6.959  10.034 -0.0807 -0.4916  1.0556
19946SOL    HW261280   5.330   6.948   9.975  0.3559 -1.6900  0.1867
19947SOL     OW61281   2.330   2.723   0.272 -0.1468  0.8241 -0.5026
19947SOL    HW161282   2.307   2.698   0.361 -0.7424  0.0119 -0.8727
19947SOL    HW261283   2.270   2.793   0.249 -0.0457  0.9778 -0.2976
19948SOL     OW61284   0.947   5.743  10.899 -0.2321  1.0069 -0.5812
19948SOL    HW161285   0.925   5.836  10.902  0.4285  1.1579 -0.2775
19948SOL    HW261286   0.980   5.729  10.811 -0.8672  0.9303 -0.8127
19949SOL     OW61287   0.078   4.498   1.654  0.1414 -0.1260  0.3013
19949SOL    HW161288   0.138   4.563   1.616 -1.3694  0.2814 -1.5243
19949SOL    HW261289  -0.004   4.545   1.668 -0.0174 -0.8477  2.1173
19950SOL     OW61290   7.912   2.635  11.610 -0.3432 -0.8700 -0.1267
19950SOL    HW161291   8.007   2.642  11.600 -0.4705 -0.5900 -1.2988
19950SOL    HW261292   7.889   2.707  11.668  0.1611 -0.9925  0.2394
19951SOL     OW61293   0.384   2.158  12.107  0.5334 -0.2598 -0.5266
19951SOL    HW161294   0.322   2.100  12.150  0.0395 -0.9828 -2.1460
19951SOL    HW261295   0.465   2.147  12.157  0.0149 -1.1347  0.1549
19952SOL     OW61296   7.689   1.187   9.957 -0.8392  0.2250  0.0967
19952SOL    HW161297   7.775   1.203   9.996 -1.5017 -0.1189  1.7868
19952SOL    HW261298   7.652   1.115  10.009 -2.1848  0.4171 -0.5458
19953SOL     OW61299   1.999   1.876   8.093  0.1560  0.1651 -0.6055
19953SOL    HW161300   2.079   1.829   8.068 -0.4896 -0.9185 -0.6907
19953SOL    HW261301   1.928   1.822   8.058 -0.6765  0.2059  0.9592
19954SOL     OW61302   5.591   5.824   2.581  0.0623  0.2287 -0.6642
19954SOL    HW161303   5.641   5.849   2.659  0.0913  0.1750 -0.6654
19954SOL    HW261304   5.517   5.884   2.580  0.1505  0.3381 -0.6867
19955SOL     OW61305   2.883   4.529   0.804 -0.1208  0.0629 -0.6752
19955SOL    HW161306   2.915   4.599   0.747  0.9468  0.7012  0.6292
19955SOL    HW261307   2.877   4.570   0.891  0.8567 -1.5345  0.1899
19956SOL     OW61308   5.619   4.731  10.791  0.0711  0.0406  0.2449
19956SOL    HW161309   5.650   4.769  10.709 -1.0534 -0.1008 -0.2622
19956SOL    HW261310   5.694   4.679  10.823  0.5741  0.2220 -0.6071
19957SOL     OW61311   7.572   4.739   8.337 -0.0442 -0.1959  0.5676
19957SOL    HW161312   7.563   4.826   8.298 -0.2046  0.0233  1.0842
19957SOL    HW261313   7.563   4.754   8.431 -0.9910 -0.8857  0.6042
19958SOL     OW61314   2.974   2.062   2.563 -0.1018 -0.2720  0.1767
19958SOL    HW161315   3.040   1.995   2.582  0.5562  0.3102  0.0048
19958SOL    HW261316   2.941   2.039   2.476  1.8678  0.9622 -0.9792
19959SOL     OW61317   0.479   6.798  10.497  0.0496  0.6519  0.1796
19959SOL    HW161318   0.517   6.738  10.561 -1.4146 -0.5187  0.0075
19959SOL    HW261319   0.491   6.755  10.413 -0.6085  0.8018  0.0028
19960SOL     OW61320   7.112   3.936   0.635 -0.5867 -0.1647  0.1693
19960SOL    HW161321   7.022   3.953   0.606 -0.0122 -0.2165 -1.7964
19960SOL    HW261322   7.116   3.971   0.724 -2.4084  0.2952  0.1042
19961SOL     OW61323   0.879   7.289   6.468  0.2786  0.1531 -0.2162
19961SOL    HW161324   0.966   7.299   6.432  0.6895  0.7404  0.8873
19961SOL    HW261325   0.836   7.373   6.453  0.1935  0.1463 -0.0210
19962SOL     OW61326   4.465   2.566   7.862 -0.0367 -0.3894  0.5571
19962SOL    HW161327   4.509   2.530   7.785  1.1867 -0.6260  1.3385
19962SOL    HW261328   4.531   2.622   7.903 -1.0388  0.6470  0.8259
19963SOL     OW61329   0.599   6.728   6.119 -0.0557  0.1218 -0.0352
19963SOL    HW161330   0.601   6.824   6.118 -2.5434  0.2320 -0.4332
19963SOL    HW261331   0.639   6.705   6.203  1.4131  1.4327 -0.3163
19964SOL     OW61332   3.304   6.497   7.526 -0.3260  0.3811 -0.8540
19964SOL    HW161333   3.220   6.457   7.544  0.0879 -0.0403  0.1772
19964SOL    HW261334   3.293   6.590   7.549 -0.8647  0.5962 -1.9167
19965SOL     OW61335   1.856   5.987   2.183 -0.0363 -0.0375 -0.7153
19965SOL    HW161336   1.941   5.996   2.227  0.5629 -0.3426 -1.7734
19965SOL    HW261337   1.796   6.040   2.236  0.5298 -0.8026  0.7572
19966SOL     OW61338   7.403   1.756   5.987  0.1620  0.9372  1.2018
19966SOL    HW161339   7.396   1.723   6.077 -0.0581  0.9409  1.1863
19966SOL    HW261340   7.496   1.778   5.977  0.7270 -1.3694  0.6315
19967SOL     OW61341   6.741   6.112   7.291 -0.6667  0.3853 -0.3173
19967SOL    HW161342   6.783   6.185   7.246  0.3977  0.6980  1.1008
19967SOL    HW261343   6.793   6.035   7.267  0.0886  0.5997  0.5715
19968SOL     OW61344   1.731   2.863  11.023 -0.1693 -0.2525  0.5217
19968SOL    HW161345   1.752   2.899  10.936 -1.0993 -2.2493 -0.5964
19968SOL    HW261346   1.665   2.923  11.058 -0.7393 -0.0926 -0.7408
19969SOL     OW61347   2.932   1.893   0.285 -0.0935  0.0453  0.1123
19969SOL    HW161348   3.024   1.880   0.308  0.2735  0.7759 -0.8908
19969SOL    HW261349   2.884   1.837   0.347  0.9776  0.1488  1.0754
19970SOL     OW61350   0.100   7.486   6.129  0.2534  0.0133  0.7248
19970SOL    HW161351   0.099   7.405   6.180  0.4187 -0.3645  0.1449
19970SOL    HW261352   0.034   7.541   6.169  0.9092  0.0282  1.8257
19971SOL     OW61353   1.236   1.262   7.453  0.1629  0.2302 -0.5988
19971SOL    HW161354   1.225   1.167   7.459 -2.8983  0.5634  1.4082
19971SOL    HW261355   1.205   1.284   7.365 -1.9781 -0.4432 -0.0779
19972SOL     OW61356   3.644   7.699  11.581 -0.7484  0.7280  0.3612
19972SOL    HW161357   3.646   7.739  11.494  0.8055  1.5179  0.7197
19972SOL    HW261358   3.565   7.734  11.622 -1.7189  0.0273 -0.8596
19973SOL     OW61359   5.335   1.105   0.445  0.3993  0.6080 -0.2160
19973SOL    HW161360   5.369   1.016   0.451  1.0557  0.8616 -0.0459
19973SOL    HW261361   5.370   1.149   0.523 -0.9702  0.6736  0.3943
19974SOL     OW61362   7.539   4.710  10.726 -0.3838 -0.0804  0.2292
19974SOL    HW161363   7.493   4.772  10.782  1.0605  1.1252  0.1410
19974SOL    HW261364   7.477   4.689  10.656 -0.1444  3.1952 -1.1414
19975SOL     OW61365   1.533   4.526  11.297 -0.2692 -0.5198 -0.5091
19975SOL    HW161366   1.626   4.505  11.288 -0.1648 -0.2897  0.0202
19975SOL    HW261367   1.509   4.566  11.213  0.3962  0.5195 -0.2170
19976SOL     OW61368   2.451   1.619   3.620  0.5552 -0.1508  0.9506
19976SOL    HW161369   2.456   1.713   3.598  1.1085 -1.0423 -3.7843
19976SOL    HW261370   2.369   1.611   3.670 -0.6017  2.6043 -0.2811
19977SOL     OW61371   6.786   4.118  11.267 -0.0870 -0.5241 -0.4413
19977SOL    HW161372   6.744   4.142  11.185  1.1714 -1.6823 -1.4602
19977SOL    HW261373   6.745   4.176  11.332  0.3051  1.8366 -2.1654
19978SOL     OW61374   3.792   3.756   9.763  0.0382  0.6865 -0.2899
19978SOL    HW161375   3.763   3.846   9.773  1.8491  1.2000  0.7934
19978SOL    HW261376   3.764   3.712   9.844  0.3089  0.6161 -0.2324
19979SOL     OW61377   6.901   0.699   2.574 -0.1406  0.2721 -0.3011
19979SOL    HW161378   6.852   0.780   2.590  1.9242  1.6043 -0.4418
19979SOL    HW261379   6.884   0.679   2.481 -0.1422  0.9096 -0.4423
19980SOL     OW61380   0.260   3.837   8.309  0.1378  0.4839  0.0801
19980SOL    HW161381   0.322   3.897   8.352  0.8358 -0.4906  0.4770
19980SOL    HW261382   0.315   3.767   8.274 -0.6776 -0.0227 -0.2184
19981SOL     OW61383   3.469   6.301   8.469  0.2858 -0.6883 -0.7462
19981SOL    HW161384   3.392   6.312   8.524 -0.1042  1.2486 -1.5782
19981SOL    HW261385   3.536   6.264   8.527 -0.6228 -0.3673  0.5465
19982SOL     OW61386   5.518   7.095  11.565  0.4483  0.4904 -0.2803
19982SOL    HW161387   5.596   7.061  11.521  0.1752 -1.0907  0.4185
19982SOL    HW261388   5.454   7.105  11.495  1.0836  1.2541 -0.7675
19983SOL     OW61389   3.132   6.735  10.338 -0.3793 -1.0604  0.1205
19983SOL    HW161390   3.119   6.693  10.423 -1.5855 -1.0629 -0.0522
19983SOL    HW261391   3.077   6.685  10.278  1.4589 -1.9068 -0.9542
19984SOL     OW61392   7.842   1.165  10.216 -0.1187 -0.4852  0.2406
19984SOL    HW161393   7.819   1.224  10.288  1.5481  1.7090 -0.9215
19984SOL    HW261394   7.838   1.078  10.255  0.3988  0.5794  2.9038
19985SOL     OW61395   1.463   3.603   3.481 -0.2379 -0.2134 -0.3749
19985SOL    HW161396   1.406   3.673   3.514 -0.2515 -0.0664 -0.7091
19985SOL    HW261397   1.550   3.627   3.514 -0.6207 -1.3707  1.6412
19986SOL     OW61398   5.507   4.036   1.378  0.1255 -0.2564  0.0987
19986SOL    HW161399   5.570   4.091   1.424 -0.7410 -0.2286  1.3140
19986SOL    HW261400   5.493   3.962   1.437 -1.2097 -0.1002  0.0105
19987SOL     OW61401   2.108   0.915   6.827 -0.2919 -0.1208 -0.1796
19987SOL    HW161402   2.168   0.896   6.755  0.4002 -0.7404  0.5408
19987SOL    HW261403   2.153   0.980   6.880  0.0511 -1.0527  0.7092
19988SOL     OW61404   3.967   3.988   9.903 -0.4852 -0.3241 -0.1328
19988SOL    HW161405   4.038   4.022   9.849 -0.8858  0.1699 -0.3586
19988SOL    HW261406   3.894   4.049   9.889 -1.6368 -1.9322 -1.4702
19989SOL     OW61407   3.736   6.911  10.534  0.0750 -0.0134 -0.1533
19989SOL    HW161408   3.831   6.906  10.522  0.3965  0.3214  1.9302
19989SOL    HW261409   3.710   6.822  10.557 -0.0826 -0.0516 -0.4739
19990SOL     OW61410   5.636   0.543  11.359 -0.1063  0.1163  0.8870
19990SOL    HW161411   5.550   0.511  11.388 -0.5272  0.5688  0.1776
19990SOL    HW261412   5.615   0.617  11.302  0.7096 -0.4406 -0.1627
19991SOL     OW61413   1.338   3.810   4.647  0.4488 -0.4035 -0.3105
19991SOL    HW161414   1.269   3.787   4.585 -1.2160 -1.6235  1.8202
19991SOL    HW261415   1.400   3.737   4.643  0.0976 -0.7108 -0.2308
19992SOL     OW61416   5.573   4.676  11.899  0.3892  0.3124 -0.3151
19992SOL    HW161417   5.653   4.685  11.951 -1.4685 -0.2649  2.9370
19992SOL    HW261418   5.523   4.755  11.917 -0.6232 -0.2232 -0.6846
19993SOL     OW61419   7.432   3.424   0.764 -0.6187  0.2971  0.4500
19993SOL    HW161420   7.420   3.344   0.815  0.9991  0.0354  0.4513
19993SOL    HW261421   7.526   3.440   0.766 -0.6530  0.9491 -1.4459
19994SOL     OW61422   7.704   1.311   6.269  0.4294 -0.0869 -0.8298
19994SOL    HW161423   7.648   1.343   6.199  0.7951 -1.8462 -1.9747
19994SOL    HW261424   7.793   1.332   6.241  0.5762 -0.7569 -0.8868
19995SOL     OW61425   3.654   3.538   6.604 -0.0724 -0.2109 -0.3727
19995SOL    HW161426   3.617   3.451   6.621 -0.2359  0.2662  2.0152
19995SOL    HW261427   3.594   3.577   6.540 -1.4106 -0.9561  0.3759
19996SOL     OW61428   5.808   4.377  11.928  0.2701  0.5788  0.4314
19996SOL    HW161429   5.800   4.372  11.833 -1.1056 -2.2947  0.5640
19996SOL    HW261430   5.812   4.470  11.947 -1.5206  1.3538 -2.3129
19997SOL     OW61431   1.486   4.074  10.607 -0.0232  0.3593  0.5714
19997SOL    HW161432   1.561   4.124  10.640  0.6865 -0.3443  0.0639
19997SOL    HW261433   1.431   4.140  10.565  1.7938  0.5672 -1.7161
19998SOL     OW61434   5.161   2.892   0.471 -0.3420  0.9016 -0.4814
19998SOL    HW161435   5.138   2.807   0.510  0.5401  0.1391 -1.5311
19998SOL    HW261436   5.185   2.947   0.545  0.2146 -0.1573  0.1509
19999SOL     OW61437   6.607   2.534   3.714 -0.4136  0.0578  0.0970
19999SOL    HW161438   6.690   2.506   3.752 -1.3507 -0.7036  1.6568
19999SOL    HW261439   6.564   2.454   3.685 -0.3819  0.4935 -1.2569
20000SOL     OW61440   7.666   6.595   9.506 -0.0277 -0.5493  0.2082
20000SOL    HW161441   7.677   6.533   9.434  0.8975  1.9400 -1.9637
20000SOL    HW261442   7.577   6.629   9.496 -0.0493 -0.5085  0.5151
20001SOL     OW61443   4.822   2.979  11.828 -0.0070  0.0457  0.2828
20001SOL    HW161444   4.771   2.912  11.874 -0.1801  1.1351  1.7471
20001SOL    HW261445   4.774   2.993  11.746  0.0461 -1.5961 -0.0743
20002SOL     OW61446   6.209   3.250   2.075 -0.1888  0.0111  0.4478
20002SOL    HW161447   6.135   3.205   2.115 -0.0127  0.4271  1.2565
20002SOL    HW261448   6.219   3.331   2.125  0.5081  0.1921  0.0408
20003SOL     OW61449   6.880   4.571   9.744 -0.6085  0.1782 -0.3512
20003SOL    HW161450   6.949   4.606   9.688 -1.5991  0.1951 -1.5960
20003SOL    HW261451   6.875   4.478   9.722 -0.2080 -0.0779  0.5851
20004SOL     OW61452   1.760   4.035  10.250  0.5428  0.3535  0.1374
20004SOL    HW161453   1.753   3.965  10.185 -1.2769  0.2239  0.4214
20004SOL    HW261454   1.769   3.989  10.333 -0.3981  0.4311  0.2962
20005SOL     OW61455   3.399   3.066   0.964  0.4906 -0.7646  0.0416
20005SOL    HW161456   3.491   3.092   0.956  0.8073 -1.4592  1.1348
20005SOL    HW261457   3.382   3.010   0.889  0.4905  0.6200 -1.0287
20006SOL     OW61458   6.846   3.276   6.272 -0.3640  0.7670  0.5777
20006SOL    HW161459   6.824   3.212   6.204 -0.4940  0.0239  1.3180
20006SOL    HW261460   6.932   3.309   6.247  0.0579 -0.2782  0.6232
20007SOL     OW61461   2.940   3.407   5.899 -0.2679  0.0775  0.1553
20007SOL    HW161462   2.998   3.347   5.944 -1.7991 -0.8481  0.9951
20007SOL    HW261463   2.853   3.369   5.911 -1.0371  1.3527 -1.1265
20008SOL     OW61464   3.854   0.646  11.359  0.0033 -0.1785  0.6334
20008SOL    HW161465   3.906   0.663  11.280  0.1482  0.7301  0.9087
20008SOL    HW261466   3.825   0.555  11.350  0.4402 -0.2430 -0.2198
20009SOL     OW61467   7.199   4.168   1.712  0.1666  0.5555 -0.3767
20009SOL    HW161468   7.277   4.196   1.664  0.2981  1.1528  0.1787
20009SOL    HW261469   7.233   4.107   1.778  0.3735  1.8781  0.7859
20010SOL     OW61470   1.188   0.358   9.070 -0.3457  0.0314  0.2818
20010SOL    HW161471   1.103   0.321   9.046  0.0395  0.3381 -1.7909
20010SOL    HW261472   1.167   0.435   9.122 -1.3095 -0.3439  0.4573
20011SOL     OW61473   1.554   5.131   6.847 -0.3650  0.5674 -0.1740
20011SOL    HW161474   1.499   5.173   6.912 -0.7842  1.4627 -1.0805
20011SOL    HW261475   1.494   5.074   6.798 -0.0195 -0.2381  0.3304
20012SOL     OW61476   3.664   6.956  12.010 -0.2593  0.6203 -0.3172
20012SOL    HW161477   3.650   6.866  11.979 -0.6367  1.1752 -1.8714
20012SOL    HW261478   3.751   6.954  12.049 -0.2949 -0.4449 -0.2499
20013SOL     OW61479   3.429   2.754   1.225  0.6025 -0.3183 -0.3370
20013SOL    HW161480   3.432   2.842   1.263 -0.0156 -0.9281  1.1920
20013SOL    HW261481   3.404   2.769   1.134  0.2200  1.0746 -0.0357
20014SOL     OW61482   3.854   2.366   0.069  0.1939  0.0689 -0.0003
20014SOL    HW161483   3.774   2.399   0.110  1.1364  0.8701  1.2728
20014SOL    HW261484   3.906   2.445   0.052 -0.1183 -0.2232 -2.7574
20015SOL     OW61485   2.639   4.039   1.986 -0.0719  0.3350  0.3494
20015SOL    HW161486   2.656   3.956   1.942  0.4123  0.7790 -0.3319
20015SOL    HW261487   2.712   4.050   2.047 -0.9836 -0.5025  1.6413
20016SOL     OW61488   2.925   1.450   2.102  0.1933  0.1786  0.4072
20016SOL    HW161489   2.991   1.397   2.058  2.7485  1.7337  2.1573
20016SOL    HW261490   2.913   1.526   2.045  0.6156  0.3380  0.5303
20017SOL     OW61491   6.581   7.191   6.547  0.4729  0.2343  0.5211
20017SOL    HW161492   6.517   7.159   6.484 -0.5209  0.1298  1.5448
20017SOL    HW261493   6.627   7.261   6.501 -1.7320  1.6920  0.3807
20018SOL     OW61494   7.140   3.035   3.156  0.6632  0.4510  0.3318
20018SOL    HW161495   7.058   3.080   3.175  0.4892  0.9165 -1.3549
20018SOL    HW261496   7.128   2.946   3.191 -0.3986  0.6337  0.4371
20019SOL     OW61497   2.147   0.922  12.420  0.4589 -0.8881 -0.0980
20019SOL    HW161498   2.082   0.965  12.474  0.1395 -1.4144 -0.0526
20019SOL    HW261499   2.224   0.915  12.477  0.7024  0.0969 -0.2865
20020SOL     OW61500   1.945   5.786  10.770  0.0531 -0.0047  0.4061
20020SOL    HW161501   1.896   5.855  10.815  1.9130  0.4508  1.9129
20020SOL    HW261502   1.930   5.802  10.677 -0.5862  1.6679  0.7634
20021SOL     OW61503   1.458   3.595  10.953 -0.7273 -0.2474 -0.0720
20021SOL    HW161504   1.455   3.592  11.049 -1.1380 -0.0525 -0.0725
20021SOL    HW261505   1.550   3.610  10.932 -0.7438  0.4723  0.3233
20022SOL     OW61506   4.042   6.901   8.407 -0.8231  0.0315 -0.5259
20022SOL    HW161507   4.112   6.952   8.449 -0.0190 -0.6437 -1.0332
20022SOL    HW261508   4.072   6.888   8.318 -2.5030  1.4087 -1.3605
20023SOL     OW61509   7.101   2.754  12.224 -0.1428 -0.4376 -0.6003
20023SOL    HW161510   7.152   2.820  12.178  1.9599 -1.1083  0.6613
20023SOL    HW261511   7.111   2.776  12.317 -1.8001 -0.8679 -0.2873
20024SOL     OW61512   1.799   0.464   1.014  0.1650 -0.4946 -0.0801
20024SOL    HW161513   1.884   0.480   0.971 -0.9535  0.5436 -2.0691
20024SOL    HW261514   1.739   0.525   0.971 -1.4679 -0.7210  1.7602
20025SOL     OW61515   2.490   1.266   5.770  0.6506 -0.7142  0.4086
20025SOL    HW161516   2.455   1.193   5.821 -1.1727  1.2086  2.1121
20025SOL    HW261517   2.536   1.320   5.834  1.1985  0.1034 -0.6442
20026SOL     OW61518   6.970   6.424   4.297 -0.3117 -0.3135  0.2409
20026SOL    HW161519   6.919   6.450   4.220  0.5533  0.9397  0.0639
20026SOL    HW261520   7.004   6.506   4.333  0.2321 -0.9753  1.3078
20027SOL     OW61521   1.634   0.967  10.113  0.9771  0.0494  0.2448
20027SOL    HW161522   1.610   0.932  10.199  0.7415  0.2287  0.2529
20027SOL    HW261523   1.639   1.062  10.126  4.0330 -0.0955  0.8362
20028SOL     OW61524   6.352   7.744   9.289 -0.2166 -0.4696  0.3167
20028SOL    HW161525   6.353   7.689   9.210 -1.4499 -1.2148  0.7910
20028SOL    HW261526   6.285   7.704   9.345  0.2814  0.3499  1.5318
20029SOL     OW61527   6.719   5.596   3.590 -0.1174 -0.3793  0.0311
20029SOL    HW161528   6.646   5.647   3.626 -1.4128 -0.6501 -2.0819
20029SOL    HW261529   6.790   5.660   3.582 -0.8243  0.4376  0.0533
20030SOL     OW61530   2.136   2.830  12.314 -0.3242  0.3523 -0.2621
20030SOL    HW161531   2.168   2.851  12.226 -0.9536  0.0965 -0.5542
20030SOL    HW261532   2.178   2.895  12.370 -1.2849  1.6439 -0.9843
20031SOL     OW61533   7.245   2.863   0.426  0.4878  0.4503 -0.1157
20031SOL    HW161534   7.308   2.816   0.372  1.3203  2.7006 -1.2102
20031SOL    HW261535   7.248   2.818   0.511  2.3913 -0.4463 -0.6159
20032SOL     OW61536   6.614   2.280  11.740  0.0962  0.1955  0.2740
20032SOL    HW161537   6.583   2.361  11.782 -1.8664  0.2829 -1.1844
20032SOL    HW261538   6.539   2.221  11.746  0.4716 -0.4728 -1.2496
20033SOL     OW61539   6.701   5.730   6.171  0.2445 -0.5190  0.0900
20033SOL    HW161540   6.628   5.672   6.151  0.8456 -0.9776 -0.8708
20033SOL    HW261541   6.662   5.804   6.218 -0.6936 -1.1670  0.3525
20034SOL     OW61542   6.816   2.222   3.130  0.7018 -0.1411 -0.2525
20034SOL    HW161543   6.894   2.278   3.130  1.1358 -0.7208 -0.9098
20034SOL    HW261544   6.800   2.204   3.037 -1.2823  1.3852 -0.2754
20035SOL     OW61545   4.741   7.105  10.826 -0.2247 -0.5017  0.3251
20035SOL    HW161546   4.805   7.082  10.893 -2.3434 -2.6626  1.7859
20035SOL    HW261547   4.705   7.189  10.854  2.7310  1.4930 -1.2679
20036SOL     OW61548   3.336   7.965   6.084  0.2875  0.4546 -0.0104
20036SOL    HW161549   3.416   7.925   6.117  0.7800  1.2947 -0.1823
20036SOL    HW261550   3.266   7.917   6.129  0.7984 -1.4902 -1.1861
20037SOL     OW61551   3.289   6.736   3.296  0.1812  0.5061 -0.6410
20037SOL    HW161552   3.332   6.720   3.212 -1.1654 -1.5884 -1.0206
20037SOL    HW261553   3.333   6.676   3.357  0.5698  1.3903 -0.0359
20038SOL     OW61554   4.643   6.896   3.873  0.3669 -0.2800 -0.2900
20038SOL    HW161555   4.605   6.974   3.832  1.5937  0.6700  0.3002
20038SOL    HW261556   4.737   6.917   3.880  0.3785 -0.9058  1.8881
20039SOL     OW61557   2.609   7.403   1.041  0.3865  0.6353  0.0839
20039SOL    HW161558   2.662   7.464   1.092  0.6444 -0.5338  1.2710
20039SOL    HW261559   2.559   7.459   0.981  0.5237  2.0107  1.1952
20040SOL     OW61560   3.209   1.145   1.027  0.0478  0.1432  0.3023
20040SOL    HW161561   3.271   1.109   1.091 -0.8133 -1.2085  0.4176
20040SOL    HW261562   3.251   1.225   0.995  1.7258 -0.5966  0.5683
20041SOL     OW61563   4.167   1.373   8.859 -0.0227  0.2433  0.0355
20041SOL    HW161564   4.076   1.397   8.844  0.4317  2.0246 -0.0744
20041SOL    HW261565   4.170   1.278   8.844 -1.3425  0.5208 -2.4561
20042SOL     OW61566   4.211   5.288   3.555  0.1508 -0.1114  0.0126
20042SOL    HW161567   4.153   5.254   3.622  0.0744  2.2955  1.2532
20042SOL    HW261568   4.154   5.306   3.480 -0.0218 -1.2699 -0.1624
20043SOL     OW61569   5.997   7.930  10.451  0.3368 -0.3310 -0.2881
20043SOL    HW161570   5.964   7.845  10.479 -0.5176  0.8964  2.7931
20043SOL    HW261571   6.075   7.945  10.504 -0.3787  1.3970  0.3611
20044SOL     OW61572   3.146   6.562   3.658  0.3520  0.0440  0.2774
20044SOL    HW161573   3.104   6.479   3.680  0.4050 -0.0328  0.0984
20044SOL    HW261574   3.076   6.616   3.623  0.1628  0.3567  1.1203
20045SOL     OW61575   4.757   2.464   7.089  0.6878 -0.7498 -0.4073
20045SOL    HW161576   4.772   2.522   7.164  1.8985 -2.5839  0.8566
20045SOL    HW261577   4.666   2.478   7.066  0.7355  1.0826  0.3306
20046SOL     OW61578   1.373   2.861   2.770 -0.0372  0.2028 -0.2368
20046SOL    HW161579   1.358   2.955   2.761 -0.8753  0.1086  0.0756
20046SOL    HW261580   1.448   2.854   2.830  0.2122  0.6653 -0.4865
20047SOL     OW61581   0.512   2.868   5.913  0.2601 -0.1768 -0.2895
20047SOL    HW161582   0.565   2.796   5.946 -0.1039  0.6967  2.4697
20047SOL    HW261583   0.465   2.831   5.839  0.0632 -2.7863  1.0261
20048SOL     OW61584   7.137   3.295   6.204 -0.6864 -0.2527 -0.1513
20048SOL    HW161585   7.204   3.231   6.181  1.4499  2.7006 -2.9140
20048SOL    HW261586   7.097   3.319   6.121 -1.5720  1.8174  0.8164
20049SOL     OW61587   4.865   2.125   3.393  0.0441 -0.0998  0.1478
20049SOL    HW161588   4.849   2.134   3.487  0.4136 -0.1947  0.2199
20049SOL    HW261589   4.882   2.032   3.380  0.3635 -0.0280  0.0449
20050SOL     OW61590   7.873   3.134   7.378  0.1190  0.0648  0.2258
20050SOL    HW161591   7.873   3.204   7.313 -2.4181  0.2729  0.3246
20050SOL    HW261592   7.844   3.057   7.330 -0.3498 -0.1122  0.7712
20051SOL     OW61593   4.319   4.522   2.484  0.6337 -0.1874 -0.3414
20051SOL    HW161594   4.398   4.574   2.498  1.0452 -0.5899 -1.1189
20051SOL    HW261595   4.308   4.473   2.566  0.2947  1.0305  0.3575
20052SOL     OW61596   3.764   0.590   9.517 -0.2642 -1.2099  0.0894
20052SOL    HW161597   3.690   0.556   9.567 -0.2282  0.0499  1.0668
20052SOL    HW261598   3.724   0.644   9.449 -0.2786 -0.5754  0.5827
20053SOL     OW61599   2.939   7.488   4.955  0.3344 -0.0332  0.1392
20053SOL    HW161600   2.904   7.417   4.902  1.4714 -0.8697  0.4719
20053SOL    HW261601   2.863   7.540   4.979 -0.6221 -1.5499  0.4841
20054SOL     OW61602   5.477   3.674   5.135  0.1302  0.2128  0.0686
20054SOL    HW161603   5.547   3.738   5.152  0.5014 -0.4536  1.1194
20054SOL    HW261604   5.507   3.594   5.177  0.0447 -0.9128 -1.8756
20055SOL     OW61605   4.121   0.624   9.978 -0.6722  0.3111 -0.2990
20055SOL    HW161606   4.122   0.548   9.920  1.8031 -0.8212  1.0619
20055SOL    HW261607   4.097   0.588  10.064  0.9896  0.9376  0.4595
20056SOL     OW61608   2.212   3.434  10.814 -0.0239  0.1166 -0.2169
20056SOL    HW161609   2.219   3.529  10.804  0.9542  0.0666 -0.0034
20056SOL    HW261610   2.238   3.399  10.728 -0.7407  0.0404 -0.4165
20057SOL     OW61611   7.181   3.752   5.262 -0.1146 -0.4309 -0.3277
20057SOL    HW161612   7.226   3.835   5.277  1.2756 -0.9049 -1.5848
20057SOL    HW261613   7.230   3.688   5.314 -0.5346 -0.6457 -0.1911
20058SOL     OW61614   0.052   6.475   2.999  0.4271 -0.4004 -0.4043
20058SOL    HW161615   0.096   6.463   3.082  1.6448  0.2383 -0.9283
20058SOL    HW261616  -0.042   6.471   3.020  0.6045  2.1958  1.4206
20059SOL     OW61617   5.894   0.996   2.856  0.1402 -0.1811  0.3222
20059SOL    HW161618   5.863   1.085   2.840 -1.3460 -0.9083 -1.1065
20059SOL    HW261619   5.872   0.948   2.776  2.4401 -1.4613  0.3661
20060SOL     OW61620   3.126   2.301   2.625 -0.3270 -0.1763  0.2049
20060SOL    HW161621   3.108   2.250   2.546  2.1010 -1.6659  0.5129
20060SOL    HW261622   3.148   2.388   2.592  0.1332 -0.6333 -0.7412
20061SOL     OW61623   2.614   5.405  10.749 -0.4078 -0.3257 -0.1035
20061SOL    HW161624   2.577   5.327  10.789  1.6204 -0.9416  0.7033
20061SOL    HW261625   2.682   5.372  10.690  0.3944  0.7976  0.1436
20062SOL     OW61626   0.842   6.314   2.715  0.0869  0.1403 -0.2255
20062SOL    HW161627   0.872   6.252   2.648  0.8713  0.6716 -0.3877
20062SOL    HW261628   0.890   6.395   2.695 -1.8965  1.2301 -0.8360
20063SOL     OW61629   3.724   5.148  11.561 -0.0298 -0.1396  0.4670
20063SOL    HW161630   3.812   5.143  11.524 -0.4733 -0.3390 -0.6013
20063SOL    HW261631   3.735   5.126  11.654  1.1595  0.7003  0.5465
20064SOL     OW61632   1.141   0.643  11.851  0.3159  0.2963  0.3450
20064SOL    HW161633   1.163   0.575  11.788  0.6907  0.9284 -0.2254
20064SOL    HW261634   1.175   0.611  11.935 -0.4648 -0.6960  0.3048
20065SOL     OW61635   0.884   1.869   4.368  0.3379  0.1459 -0.0376
20065SOL    HW161636   0.845   1.922   4.437  1.1843  0.6988  0.0173
20065SOL    HW261637   0.838   1.785   4.373 -0.8943  0.7998 -0.0135
20066SOL     OW61638   4.725   7.388   2.306  0.0504 -0.9871 -0.0522
20066SOL    HW161639   4.718   7.309   2.252  0.5494 -1.7153  0.9120
20066SOL    HW261640   4.636   7.403   2.338  0.1742 -1.9229  0.7823
20067SOL     OW61641   2.269   1.299   3.807  0.3690  0.5266 -0.1260
20067SOL    HW161642   2.335   1.286   3.739 -0.3750  1.7600 -1.1397
20067SOL    HW261643   2.251   1.393   3.806 -1.0138  0.3043  0.4865
20068SOL     OW61644   4.182   5.737   1.546  0.0765 -0.1459  0.0230
20068SOL    HW161645   4.146   5.777   1.625 -0.6992  0.3900 -0.5769
20068SOL    HW261646   4.227   5.809   1.501 -0.1294 -0.2654 -0.3846
20069SOL     OW61647   1.332   4.802   5.061 -0.1177  0.1271  0.5576
20069SOL    HW161648   1.279   4.741   5.012  0.0641 -0.7390  1.4013
20069SOL    HW261649   1.419   4.761   5.065  0.4319  1.1725 -0.1803
20070SOL     OW61650   6.478   3.886   6.878 -0.2794 -0.2419 -0.2194
20070SOL    HW161651   6.422   3.952   6.838 -1.2610  0.1188  1.6300
20070SOL    HW261652   6.564   3.926   6.881 -0.7205  0.7101  0.2408
20071SOL     OW61653   7.410   1.514   2.777  0.1304 -0.5238  0.0804
20071SOL    HW161654   7.402   1.448   2.846  0.6412 -0.9469 -0.2543
20071SOL    HW261655   7.324   1.513   2.734  0.2830 -1.3293 -0.2248
20072SOL     OW61656   4.372   1.188   3.198 -0.4584  0.0317  0.7670
20072SOL    HW161657   4.385   1.273   3.155  0.8469 -0.7041 -0.3481
20072SOL    HW261658   4.358   1.210   3.290 -2.8678  1.6255  0.1322
20073SOL     OW61659   2.848   5.671   0.015  0.1010 -0.3222 -0.0399
20073SOL    HW161660   2.823   5.675  -0.078 -1.0908 -0.1442  0.2674
20073SOL    HW261661   2.788   5.607   0.053 -0.5805  0.8487  0.9324
20074SOL     OW61662   1.901   5.685   6.322  0.0025  0.4425  0.2635
20074SOL    HW161663   1.947   5.660   6.402  1.6445  0.4929 -0.6271
20074SOL    HW261664   1.959   5.748   6.279 -0.2593 -0.4930 -1.5584
20075SOL     OW61665   0.442   7.306   6.186  0.3024 -0.4243 -0.7473
20075SOL    HW161666   0.367   7.345   6.141 -1.1297 -0.2248  1.6833
20075SOL    HW261667   0.460   7.226   6.135 -1.6085 -0.5278 -1.3549
20076SOL     OW61668   4.756   1.069   2.555  0.5518  0.0806  0.2785
20076SOL    HW161669   4.756   1.016   2.635  1.7171  0.7345  0.7421
20076SOL    HW261670   4.713   1.014   2.490  2.4856 -1.8275  0.4978
20077SOL     OW61671   7.976   5.089   3.985 -0.3571  0.1608 -0.0086
20077SOL    HW161672   7.957   5.017   4.045 -1.1578  0.9873  0.7593
20077SOL    HW261673   8.006   5.047   3.905 -0.1122 -0.9965  0.6736
20078SOL     OW61674   1.171   1.632   5.388 -0.1316 -0.1530 -0.4198
20078SOL    HW161675   1.082   1.620   5.356 -0.2648  0.6489 -0.3843
20078SOL    HW261676   1.222   1.565   5.343 -0.3530  0.7626 -2.1049
20079SOL     OW61677   4.977   3.895  10.277 -0.6801  0.1173 -0.4210
20079SOL    HW161678   4.889   3.933  10.273 -0.8814  0.0224  1.9521
20079SOL    HW261679   4.995   3.866  10.187 -2.3852  1.6176 -1.3008
20080SOL     OW61680   3.926   5.855   5.471 -0.0755 -0.0202 -0.1522
20080SOL    HW161681   3.973   5.791   5.524  2.6086  1.9587  0.0180
20080SOL    HW261682   3.919   5.813   5.385 -0.3091 -1.3721  0.4957
20081SOL     OW61683   1.500   4.355   4.295 -0.7440 -0.0095 -0.1085
20081SOL    HW161684   1.508   4.376   4.202 -0.3586  1.2059  0.1713
20081SOL    HW261685   1.420   4.303   4.302 -1.6751  1.2411 -0.9253
20082SOL     OW61686   1.086   0.260   6.549  0.2284 -0.3417 -0.6723
20082SOL    HW161687   1.181   0.265   6.559  0.3350 -0.3371 -1.5836
20082SOL    HW261688   1.073   0.196   6.479 -0.2779  2.0473 -2.8887
20083SOL     OW61689   3.640   1.314   3.142  0.5838 -0.0808  0.4853
20083SOL    HW161690   3.561   1.265   3.162  0.3339  0.1475  0.0736
20083SOL    HW261691   3.679   1.268   3.068  1.9348 -1.3976  1.9397
20084SOL     OW61692   5.740   1.663  11.614  0.1846  0.3746 -0.6291
20084SOL    HW161693   5.680   1.606  11.662  0.8188 -0.7591 -1.1379
20084SOL    HW261694   5.683   1.729  11.573 -0.6055 -0.1002 -0.3131
20085SOL     OW61695   7.664   5.161   3.023 -0.3058 -0.7675  0.5009
20085SOL    HW161696   7.584   5.208   3.049  0.4471  1.0651 -0.2874
20085SOL    HW261697   7.654   5.147   2.929  0.9932  1.0574  0.0352
20086SOL     OW61698   5.277   5.960   6.452  0.6027 -0.6673 -0.6566
20086SOL    HW161699   5.250   6.047   6.424  0.2849 -0.2744  0.7676
20086SOL    HW261700   5.219   5.939   6.526  1.6159 -1.4669 -0.0510
20087SOL     OW61701   6.645   3.237   3.592 -0.6668 -0.1876 -0.1039
20087SOL    HW161702   6.702   3.312   3.611 -0.1610 -0.8984  1.3205
20087SOL    HW261703   6.559   3.263   3.622 -1.3962  1.2340 -3.0545
20088SOL     OW61704   1.909   5.857  11.430 -0.0338 -0.1720 -0.5001
20088SOL    HW161705   1.990   5.810  11.450  0.5335  0.7515 -0.5600
20088SOL    HW261706   1.903   5.923  11.500 -0.0494  0.5932 -1.2123
20089SOL     OW61707   5.851   6.706   2.165 -0.1830 -0.0134 -0.2850
20089SOL    HW161708   5.924   6.742   2.115 -0.7179  1.3196 -0.1506
20089SOL    HW261709   5.845   6.615   2.137 -0.1699  0.5664 -2.3215
20090SOL     OW61710   3.275   6.025   5.132  0.2553 -0.0490 -0.2615
20090SOL    HW161711   3.202   5.989   5.180 -0.2078 -0.1223 -1.0044
20090SOL    HW261712   3.308   5.953   5.079 -0.6517  0.5616 -1.7264
20091SOL     OW61713   5.868   7.542   8.456  0.5607 -0.1666 -0.9256
20091SOL    HW161714   5.776   7.557   8.477  0.4714 -0.2703 -1.2443
20091SOL    HW261715   5.914   7.617   8.495  0.5946 -1.1360  1.0450
20092SOL     OW61716   7.542   4.275   6.888  0.2352  0.3320  0.7426
20092SOL    HW161717   7.567   4.357   6.931  0.6849 -0.1602  1.4470
20092SOL    HW261718   7.553   4.292   6.795  0.9144  0.8867  0.9151
20093SOL     OW61719   7.958   6.589   6.159  0.0243  0.1856  0.1996
20093SOL    HW161720   7.939   6.683   6.150 -0.2728  0.1229  0.1585
20093SOL    HW261721   8.001   6.582   6.245  0.0989  0.3674  0.1782
20094SOL     OW61722   7.372   1.233   6.774 -0.2289  0.1248  0.2429
20094SOL    HW161723   7.447   1.276   6.732 -0.4439  1.7108  1.3939
20094SOL    HW261724   7.331   1.183   6.703  1.5578 -0.3171 -0.5458
20095SOL     OW61725   6.547   5.252   7.731 -0.4726 -0.8128  0.0261
20095SOL    HW161726   6.540   5.336   7.686 -0.4914 -0.7064  0.2231
20095SOL    HW261727   6.576   5.191   7.664 -1.8548 -0.9596 -0.4707
20096SOL     OW61728   2.251   7.006   1.002  0.3654 -0.1347 -0.5771
20096SOL    HW161729   2.266   7.094   1.034 -0.0542 -0.3956  0.3836
20096SOL    HW261730   2.217   7.018   0.913 -0.1972  0.6909 -0.2597
20097SOL     OW61731   7.532   3.578   2.804 -0.2785  0.1386 -0.5286
20097SOL    HW161732   7.548   3.617   2.890  2.3866  1.5421 -1.5632
20097SOL    HW261733   7.479   3.500   2.823  1.5687 -0.5281  2.5627
20098SOL     OW61734   4.847   6.917   9.309 -0.9030 -0.1033  0.4308
20098SOL    HW161735   4.923   6.892   9.361 -0.1677  0.4499 -0.3562
20098SOL    HW261736   4.801   6.835   9.293  1.9861 -1.3084 -2.9399
20099SOL     OW61737   0.033   7.578   8.062  0.8551  0.0170 -0.1192
20099SOL    HW161738   0.066   7.647   8.120 -2.8108  1.4294  0.5572
20099SOL    HW261739   0.073   7.597   7.977  0.2301  2.8717  0.1315
20100SOL     OW61740   2.868   1.396   9.745 -0.2951  0.1790  0.2686
20100SOL    HW161741   2.889   1.350   9.826 -2.1838  0.2858  0.8841
20100SOL    HW261742   2.881   1.489   9.766 -0.9574  0.2207  0.5436
20101SOL     OW61743   6.219   1.953  11.199  0.4470 -0.5302  0.3392
20101SOL    HW161744   6.128   1.977  11.184  0.1088 -2.0323 -0.1956
20101SOL    HW261745   6.269   2.029  11.166 -0.5407 -0.6923 -1.7271
20102SOL     OW61746   3.107   1.312   0.337  0.0977  0.1075  0.0565
20102SOL    HW161747   3.102   1.399   0.376  1.0605 -0.0934  0.6803
20102SOL    HW261748   3.037   1.263   0.380  0.5906  0.1354  0.9309
20103SOL     OW61749   0.589   0.922   7.566 -0.2654 -0.0020  0.4040
20103SOL    HW161750   0.659   0.866   7.534  0.1873  0.1337  1.1253
20103SOL    HW261751   0.544   0.953   7.488 -1.5187 -2.5756 -0.0248
20104SOL     OW61752   6.912   7.744   1.714 -0.0817 -0.4425  0.3548
20104SOL    HW161753   6.869   7.678   1.769 -1.5685 -1.2464 -1.6390
20104SOL    HW261754   6.947   7.693   1.640 -1.3693  0.9818 -1.3015
20105SOL     OW61755   5.918   7.778   8.573 -0.0637 -0.5246 -0.5156
20105SOL    HW161756   6.004   7.820   8.578  0.9885 -2.6816  1.0035
20105SOL    HW261757   5.881   7.788   8.661 -2.0041  1.4162 -1.4325
20106SOL     OW61758   5.412   5.183   9.202  0.6156  0.2934 -0.4040
20106SOL    HW161759   5.384   5.244   9.134 -0.8285 -0.8935 -0.9208
20106SOL    HW261760   5.412   5.236   9.282  0.5314  1.2441 -1.0066
20107SOL     OW61761   6.437   6.082   1.147  0.0432 -0.2784  0.1848
20107SOL    HW161762   6.368   6.079   1.214 -1.4193  1.4456 -1.1294
20107SOL    HW261763   6.518   6.094   1.197 -0.8024 -0.6442  1.7106
20108SOL     OW61764   6.731   3.751  10.543 -0.4033 -0.0723  0.5419
20108SOL    HW161765   6.668   3.715  10.606 -0.7428 -0.7222 -0.1578
20108SOL    HW261766   6.765   3.829  10.586 -1.0864 -0.1622  1.2746
20109SOL     OW61767   5.614   3.827   6.906  0.2042  0.4213  0.6244
20109SOL    HW161768   5.585   3.740   6.932  1.1458 -0.2158 -0.3380
20109SOL    HW261769   5.691   3.844   6.961  0.9538 -0.0480 -0.2363
20110SOL     OW61770   2.279   4.687   6.326  0.5034  0.5937 -0.3980
20110SOL    HW161771   2.247   4.647   6.407 -0.6160  1.7642 -0.2150
20110SOL    HW261772   2.306   4.613   6.271 -1.7405 -0.4666 -0.1966
20111SOL     OW61773   2.699   2.702   5.527  0.7914  0.0563  0.1228
20111SOL    HW161774   2.627   2.691   5.465  1.7677  2.6957 -1.6399
20111SOL    HW261775   2.657   2.705   5.612 -0.8948 -0.8166 -0.6203
20112SOL     OW61776   6.444   5.244   2.204 -0.5350  0.4435 -0.6238
20112SOL    HW161777   6.419   5.312   2.140 -1.3286 -0.3266 -1.1630
20112SOL    HW261778   6.373   5.180   2.199  0.0776 -0.3052  0.0587
20113SOL     OW61779   5.733   4.907  11.330  0.3046  0.0937  0.2787
20113SOL    HW161780   5.802   4.969  11.306  1.1843 -0.6082  0.9206
20113SOL    HW261781   5.773   4.821  11.318 -0.6810 -0.3414  0.0420
20114SOL     OW61782   6.209   3.817   0.997 -0.0254  0.4393  0.1885
20114SOL    HW161783   6.298   3.784   0.981  0.4467  1.7721 -0.0892
20114SOL    HW261784   6.222   3.907   1.025 -1.2145  0.0825  2.0438
20115SOL     OW61785   1.333   5.242   0.572  0.2238  0.2505  0.0058
20115SOL    HW161786   1.338   5.149   0.596  0.7644 -0.2698 -1.8996
20115SOL    HW261787   1.402   5.253   0.506 -0.2444  1.8697 -0.2570
20116SOL     OW61788   0.539   1.445  11.783 -0.1168 -0.1278  0.0880
20116SOL    HW161789   0.584   1.389  11.846 -0.5269  0.3612  0.8326
20116SOL    HW261790   0.477   1.495  11.835  0.9611  1.7976 -0.3684
20117SOL     OW61791   5.176   5.267   7.912  0.4750 -0.2339  0.9758
20117SOL    HW161792   5.225   5.200   7.960 -1.6454 -2.0623  0.7181
20117SOL    HW261793   5.144   5.326   7.980  2.1306  0.4581  1.2246
20118SOL     OW61794   1.694   0.195   7.284  0.0181  0.5150  0.1179
20118SOL    HW161795   1.770   0.237   7.324  0.9421 -1.1560  0.1805
20118SOL    HW261796   1.730   0.128   7.226 -1.3935 -0.4032  0.2301
20119SOL     OW61797   4.242   1.795   3.929  0.6140  0.3815  0.7623
20119SOL    HW161798   4.304   1.867   3.922  0.9970 -0.1064 -2.2761
20119SOL    HW261799   4.273   1.730   3.866  0.5337 -2.7202  3.5964
20120SOL     OW61800   1.638   1.767   3.929 -0.2212 -0.1489  0.6875
20120SOL    HW161801   1.624   1.705   4.000 -0.4059  0.4852  1.2087
20120SOL    HW261802   1.713   1.732   3.881 -0.6214 -1.0266  0.6874
20121SOL     OW61803   2.837   2.239   2.027 -0.0610 -0.0192 -0.4621
20121SOL    HW161804   2.769   2.306   2.027  0.4588  0.5740  1.1642
20121SOL    HW261805   2.919   2.288   2.029  0.3364 -0.6852  0.3845
20122SOL     OW61806   6.517   4.441   0.255  0.9965 -0.1481 -0.5108
20122SOL    HW161807   6.541   4.534   0.257  1.0026 -0.1600  0.0218
20122SOL    HW261808   6.552   4.405   0.336  0.8525 -0.5858 -0.6368
20123SOL     OW61809   1.552   7.045  10.462 -0.3171  0.1825  0.2845
20123SOL    HW161810   1.483   6.978  10.460 -2.6789  2.4902 -0.4866
20123SOL    HW261811   1.557   7.076  10.372  1.2203  0.6262  0.5016
20124SOL     OW61812   0.903   7.701   6.247  0.2127  0.1914  0.3842
20124SOL    HW161813   0.934   7.626   6.298  0.5151 -0.3623 -0.5672
20124SOL    HW261814   0.822   7.670   6.206  0.2394  0.4405  0.1415
20125SOL     OW61815   3.024   0.274   6.293 -0.1500  0.3693  0.0747
20125SOL    HW161816   2.992   0.339   6.230 -0.7002  0.6783  0.6650
20125SOL    HW261817   2.953   0.263   6.355  0.0635 -0.5732  0.1698
20126SOL     OW61818   3.618   0.735  12.338 -0.0128 -0.2791  0.1945
20126SOL    HW161819   3.564   0.732  12.416 -0.4998 -2.3807 -0.1636
20126SOL    HW261820   3.679   0.661  12.348 -0.0533 -0.5609 -1.3702
20127SOL     OW61821   7.536   3.925  11.969  0.2263  0.1052 -0.5534
20127SOL    HW161822   7.462   3.865  11.979  0.1721  0.1481 -0.6972
20127SOL    HW261823   7.601   3.875  11.920  0.3363  0.0303 -0.3307
20128SOL     OW61824   1.848   6.294   0.698  0.1703  0.6943  0.4689
20128SOL    HW161825   1.810   6.262   0.779 -0.3493 -0.0535 -0.0514
20128SOL    HW261826   1.926   6.240   0.684 -1.7778 -1.9116 -1.4414
20129SOL     OW61827   1.309   3.652   8.840  0.1953 -0.0317  0.2909
20129SOL    HW161828   1.360   3.715   8.789 -2.2126  0.2670 -1.9630
20129SOL    HW261829   1.235   3.703   8.874  0.1085 -0.9141  1.5111
20130SOL     OW61830   6.072   2.196   0.572 -0.0730 -0.2232 -0.0085
20130SOL    HW161831   6.113   2.140   0.506 -1.4996 -1.4221  0.0502
20130SOL    HW261832   6.075   2.143   0.653  0.1469  0.5293  0.4830
20131SOL     OW61833   1.103   4.433   6.407  0.6232  0.3517  0.0538
20131SOL    HW161834   1.112   4.370   6.335 -0.2008  0.6731 -0.3356
20131SOL    HW261835   1.128   4.383   6.485  1.5997  0.0177 -0.4464
20132SOL     OW61836   3.447   6.301   4.845 -0.8518  0.3198  0.3527
20132SOL    HW161837   3.394   6.222   4.854  1.4470 -1.3106  0.3975
20132SOL    HW261838   3.482   6.315   4.933 -0.5283  0.8685  0.1384
20133SOL     OW61839   4.660   6.857   4.523  0.0161  0.4677 -0.0170
20133SOL    HW161840   4.702   6.784   4.479  1.1252  1.3114 -0.4249
20133SOL    HW261841   4.597   6.817   4.583  2.0577 -0.9428  1.3177
20134SOL     OW61842   5.550   6.726   2.829 -0.0356 -0.3295 -0.1024
20134SOL    HW161843   5.469   6.678   2.841 -0.1832  0.0885  0.6078
20134SOL    HW261844   5.556   6.785   2.905  0.0440  0.9140 -1.0380
20135SOL     OW61845   7.683   5.665   9.079  0.5386 -0.1268 -0.0500
20135SOL    HW161846   7.630   5.599   9.124  0.6475  0.5611  1.1605
20135SOL    HW261847   7.735   5.706   9.150  0.2790  1.4170 -0.7010
20136SOL     OW61848   1.174   5.709   0.721 -0.1684  0.0836  0.0826
20136SOL    HW161849   1.151   5.621   0.693 -0.1489 -0.1573  0.8045
20136SOL    HW261850   1.124   5.767   0.663 -1.6667 -0.4163  0.8198
20137SOL     OW61851   2.661   1.000   0.019 -0.7063  0.7384 -0.0612
20137SOL    HW161852   2.616   0.965  -0.057 -1.7057  2.0887 -0.1155
20137SOL    HW261853   2.752   1.011  -0.010 -0.3297 -1.7431 -0.0274
20138SOL     OW61854   1.428   1.480   6.753 -0.0922  0.9413 -0.2609
20138SOL    HW161855   1.512   1.503   6.792  0.0760 -1.5345  1.0384
20138SOL    HW261856   1.449   1.459   6.662  1.4756 -2.8582  0.7761
20139SOL     OW61857   5.304   5.584  10.944 -0.7110  0.1353 -0.0485
20139SOL    HW161858   5.266   5.556  10.861  0.7181  1.2106 -1.1105
20139SOL    HW261859   5.250   5.658  10.971  0.1985  1.2704 -1.2414
20140SOL     OW61860   2.217   2.902   5.885  0.2308 -0.5733 -0.2879
20140SOL    HW161861   2.308   2.930   5.885  0.4985 -1.3047  1.7539
20140SOL    HW261862   2.168   2.980   5.913  0.2705 -0.3837 -0.7223
20141SOL     OW61863   4.754   6.022   6.018  0.0536 -0.0519 -0.1651
20141SOL    HW161864   4.793   6.022   6.106  0.4620 -0.3619 -0.3429
20141SOL    HW261865   4.755   6.114   5.993  0.5373 -0.0355 -0.1027
20142SOL     OW61866   5.124   7.473   9.392  0.6492 -0.1386  0.3541
20142SOL    HW161867   5.118   7.397   9.449 -0.7944 -0.2645  0.0801
20142SOL    HW261868   5.144   7.546   9.451  0.7012 -0.5119  0.8043
20143SOL     OW61869   4.795   2.025  12.446 -0.0065  0.1172 -0.3463
20143SOL    HW161870   4.809   1.988  12.359 -1.5528  1.1586 -1.0858
20143SOL    HW261871   4.701   2.043  12.450  0.1435  0.7353  1.2751
20144SOL     OW61872   2.197   0.672  10.220 -0.3236  0.1521  0.5342
20144SOL    HW161873   2.184   0.700  10.130 -0.6755 -0.2325  0.4600
20144SOL    HW261874   2.269   0.725  10.252  0.5451 -0.4804 -0.3169
20145SOL     OW61875   7.102   2.035   1.301 -0.7260  0.5853 -0.4129
20145SOL    HW161876   7.085   2.014   1.209  1.8767  0.4033 -0.9308
20145SOL    HW261877   7.017   2.065   1.335 -1.4855  1.9965 -3.2398
20146SOL     OW61878   5.295   3.913   1.983 -0.2524 -0.6122  0.3913
20146SOL    HW161879   5.293   4.006   1.960 -1.2347 -0.8164 -0.4497
20146SOL    HW261880   5.346   3.872   1.912  0.6558 -0.6644  1.0476
20147SOL     OW61881   7.108   1.664   7.138 -0.1305 -0.2536  0.4173
20147SOL    HW161882   7.056   1.723   7.192  1.4728 -0.1915  1.9613
20147SOL    HW261883   7.045   1.600   7.104 -1.0382 -1.3312  3.7582
20148SOL     OW61884   6.573   5.938   6.951  0.2663 -0.5477  0.2746
20148SOL    HW161885   6.597   5.958   6.861  1.4332 -0.9369  0.4792
20148SOL    HW261886   6.618   5.856   6.970 -0.7385 -0.9697  0.9102
20149SOL     OW61887   2.907   0.570   4.190  0.5754  0.4378  0.4918
20149SOL    HW161888   2.840   0.627   4.227  0.3555 -0.3944  1.4217
20149SOL    HW261889   2.913   0.596   4.098  0.1755  1.6478  0.7909
20150SOL     OW61890   3.026   4.357   8.462  0.1300 -0.0067 -0.1019
20150SOL    HW161891   2.966   4.406   8.405  1.1790 -0.0191 -1.2677
20150SOL    HW261892   3.022   4.267   8.430  0.4870 -0.0780  0.0416
20151SOL     OW61893   2.683   2.152   7.304 -0.1354 -0.4962  0.1890
20151SOL    HW161894   2.775   2.172   7.292  0.0358 -0.0822  1.8667
20151SOL    HW261895   2.642   2.236   7.323 -0.5435 -0.8794  1.0807
20152SOL     OW61896   1.134   5.172   7.968 -0.1752 -0.0060 -0.1700
20152SOL    HW161897   1.228   5.167   7.983 -0.0498  0.8317 -0.6427
20152SOL    HW261898   1.096   5.170   8.056  0.4904  3.7256  0.3417
20153SOL     OW61899   7.438   1.340   1.609 -0.3452 -0.4843 -0.0405
20153SOL    HW161900   7.477   1.375   1.529 -0.7612  1.3030  0.4775
20153SOL    HW261901   7.394   1.260   1.582  1.5947 -1.2559 -1.1069
20154SOL     OW61902   3.500   2.753  11.439 -0.1006  0.3563 -0.1616
20154SOL    HW161903   3.545   2.830  11.473 -0.8990  0.7404  0.0437
20154SOL    HW261904   3.408   2.771  11.454 -0.5008  0.4762 -2.3283
20155SOL     OW61905   1.102   2.485   4.387  0.1889  0.2414 -0.2054
20155SOL    HW161906   1.089   2.563   4.332 -2.2517  0.5890  0.7271
20155SOL    HW261907   1.172   2.437   4.344  0.3632  1.9509 -1.9722
20156SOL     OW61908   6.585   0.306  10.083 -0.3628  0.0623  0.3270
20156SOL    HW161909   6.663   0.343  10.041 -1.3398  0.4670 -1.2202
20156SOL    HW261910   6.614   0.220  10.116  0.8526  0.4211  0.2331
20157SOL     OW61911   5.794   3.237   1.643 -0.2985  0.3500  0.2591
20157SOL    HW161912   5.720   3.177   1.637 -1.2481  1.4521  0.6807
20157SOL    HW261913   5.781   3.284   1.726  1.4652 -0.1893  0.9006
20158SOL     OW61914   0.657   5.385   9.792  0.7447  0.2762  0.2260
20158SOL    HW161915   0.608   5.463   9.766  1.3904  1.1244  1.4868
20158SOL    HW261916   0.720   5.416   9.856  1.5224 -1.1675  0.1979
20159SOL     OW61917   0.376   7.312   9.107 -0.0251 -0.3245 -0.3448
20159SOL    HW161918   0.353   7.370   9.180  0.7557 -0.5227  0.0766
20159SOL    HW261919   0.397   7.372   9.035 -1.9261 -0.1438 -0.7853
20160SOL     OW61920   7.527   7.953   5.321  0.2397 -0.0419 -0.2682
20160SOL    HW161921   7.440   7.983   5.347 -0.3121 -1.5566 -0.2925
20160SOL    HW261922   7.532   7.972   5.227  0.4199  1.1449 -0.0334
20161SOL     OW61923   0.304   2.994   7.151 -0.2244  0.6395  0.5203
20161SOL    HW161924   0.231   2.932   7.151  0.0128  0.3559  0.4144
20161SOL    HW261925   0.269   3.073   7.109 -0.7701  0.8777  1.3964
20162SOL     OW61926   2.013   1.356  12.464 -0.1012 -0.5899 -0.1274
20162SOL    HW161927   1.935   1.302  12.455 -0.6469  0.1806 -0.1498
20162SOL    HW261928   2.022   1.399  12.379  0.8790 -1.3569 -0.4282
20163SOL     OW61929   3.545   1.705  12.410  0.3976 -0.7231  0.0297
20163SOL    HW161930   3.534   1.624  12.359 -1.0339 -0.1784 -0.5760
20163SOL    HW261931   3.477   1.763  12.377  0.9015  0.4625  1.0153
20164SOL     OW61932   4.781   6.421   7.004 -0.2934 -0.7062 -0.1559
20164SOL    HW161933   4.778   6.492   7.069 -0.0491 -1.8882  1.1903
20164SOL    HW261934   4.775   6.466   6.920  0.2976  0.9578  0.6385
20165SOL     OW61935   6.273   2.749   8.202  0.1306  0.0088  0.2850
20165SOL    HW161936   6.284   2.789   8.288 -2.4766  1.9139 -0.1593
20165SOL    HW261937   6.362   2.747   8.166  1.0239  0.8745  2.2731
20166SOL     OW61938   1.525   4.952   3.076  0.0436 -0.1286  0.0796
20166SOL    HW161939   1.609   4.975   3.115 -0.3101 -1.6633  1.8817
20166SOL    HW261940   1.468   5.026   3.097  0.7355  0.5886 -0.5172
20167SOL     OW61941   3.893   2.782   4.062 -0.2484  0.1991  0.5801
20167SOL    HW161942   3.797   2.787   4.058 -0.2574 -0.3947 -0.0940
20167SOL    HW261943   3.911   2.691   4.084  0.1455  0.6179  2.1271
20168SOL     OW61944   4.346   4.320  11.837 -0.0390  0.0861 -0.7508
20168SOL    HW161945   4.427   4.371  11.835 -0.2717  0.4357 -1.5400
20168SOL    HW261946   4.375   4.229  11.831  0.2887  0.2246 -1.3272
20169SOL     OW61947   7.357   6.126   9.617  0.3062  0.4585  0.1303
20169SOL    HW161948   7.406   6.161   9.692 -1.1487 -1.3711  2.0806
20169SOL    HW261949   7.282   6.184   9.609 -0.2204 -0.0614  1.0170
20170SOL     OW61950   0.274   2.913   9.991  0.0744 -0.9637  0.1797
20170SOL    HW161951   0.278   2.857   9.914 -1.0116 -1.4114  0.4307
20170SOL    HW261952   0.230   2.860  10.057 -4.0947  1.1656 -0.5336
20171SOL     OW61953   6.003   5.857  11.991 -0.0770  0.4962  0.2371
20171SOL    HW161954   5.916   5.877  12.023 -0.9097 -0.5761 -1.2351
20171SOL    HW261955   6.050   5.940  11.994 -1.8598  1.6145 -1.0640
20172SOL     OW61956   3.567   1.092  10.811  0.2113  0.4292  0.6325
20172SOL    HW161957   3.590   1.143  10.734  1.1008 -0.0900  0.5357
20172SOL    HW261958   3.480   1.123  10.836 -0.5148 -0.0448 -1.1385
20173SOL     OW61959   2.207   1.936   7.764 -0.1398 -0.2173  0.1116
20173SOL    HW161960   2.125   1.974   7.732  0.4581  1.1500  0.1471
20173SOL    HW261961   2.269   2.009   7.763 -0.0657  0.0033  4.5120
20174SOL     OW61962   1.904   0.029   8.709 -0.3968 -0.6206  0.1655
20174SOL    HW161963   1.828  -0.010   8.665 -0.0032 -0.8805 -0.2944
20174SOL    HW261964   1.978   0.009   8.652  0.3121 -1.9168  1.4697
20175SOL     OW61965   7.071   6.241   4.882 -0.3937 -0.5893  0.0910
20175SOL    HW161966   6.989   6.192   4.881 -1.9249  1.7496  1.1219
20175SOL    HW261967   7.070   6.287   4.966  1.5978  0.1298 -0.2264
20176SOL     OW61968   3.520   1.046   0.846  0.2496 -0.2186  0.3257
20176SOL    HW161969   3.437   1.093   0.841  0.9882  1.0163 -1.1530
20176SOL    HW261970   3.562   1.078   0.926 -0.2045 -0.0214  0.4893
20177SOL     OW61971   5.531   1.679   2.732  0.2389 -0.3131  0.1555
20177SOL    HW161972   5.603   1.618   2.713 -0.1684 -0.3077 -1.6146
20177SOL    HW261973   5.520   1.729   2.651 -0.9755  0.5120  0.7978
20178SOL     OW61974   2.489   2.787  12.197 -0.0859  0.2073  0.3058
20178SOL    HW161975   2.411   2.804  12.144 -0.0784  0.9740  0.5231
20178SOL    HW261976   2.477   2.698  12.228 -1.2268  0.5436  0.9076
20179SOL     OW61977   3.718   5.480   5.753 -0.4912  0.6202  0.0312
20179SOL    HW161978   3.658   5.424   5.803 -2.1534  1.8143 -0.5320
20179SOL    HW261979   3.715   5.564   5.798 -0.1563  1.0208 -0.6895
20180SOL     OW61980   2.391   2.034   8.618 -0.6314 -0.1492 -0.2444
20180SOL    HW161981   2.414   2.090   8.692 -0.4568 -0.7317  0.1461
20180SOL    HW261982   2.296   2.023   8.625 -0.5020 -0.9765  0.4638
20181SOL     OW61983   1.072   2.938   8.610 -0.0523  0.1728  0.6292
20181SOL    HW161984   1.063   2.898   8.524  1.4101  0.7865  0.1553
20181SOL    HW261985   1.015   3.014   8.608 -2.1659 -1.3092  1.2227
20182SOL     OW61986   7.926   1.109  11.539 -0.1121  0.2622  0.1073
20182SOL    HW161987   7.878   1.037  11.580 -0.1452 -0.3003 -0.9019
20182SOL    HW261988   7.887   1.188  11.576 -1.2247 -0.2061 -0.0347
20183SOL     OW61989   7.122   1.241   4.693  0.0451 -0.0891 -0.3073
20183SOL    HW161990   7.100   1.331   4.670  0.2386  0.1234  0.3265
20183SOL    HW261991   7.132   1.242   4.788  0.9928 -0.5744 -0.3974
20184SOL     OW61992   6.002   0.010   6.032 -0.8599  0.3850 -0.2250
20184SOL    HW161993   5.941   0.067   6.079 -0.6836 -0.8917  1.6903
20184SOL    HW261994   6.083   0.061   6.028 -1.2550  1.0234 -0.2887
20185SOL     OW61995   0.805   4.335  11.063  0.5737 -0.1813  0.1055
20185SOL    HW161996   0.764   4.253  11.037 -0.1699 -0.5572  2.3063
20185SOL    HW261997   0.754   4.365  11.138  0.1721  2.8653 -1.2402
20186SOL     OW61998   3.039   2.273   9.580 -0.5932  0.0023  0.3289
20186SOL    HW161999   3.105   2.205   9.568  0.7570  1.6035 -2.2889
20186SOL    HW262000   3.088   2.349   9.611 -1.4392  0.7738 -0.1625
20187SOL     OW62001   5.327   4.115   0.977  0.2857 -0.0197 -0.2046
20187SOL    HW162002   5.322   4.176   1.050 -1.0215 -0.5254  0.1426
20187SOL    HW262003   5.305   4.030   1.014 -0.8652 -0.2134 -1.2640
20188SOL     OW62004   7.550   6.311   7.661  0.3816 -0.4018 -0.3296
20188SOL    HW162005   7.464   6.306   7.618 -1.0488 -1.5592  2.4159
20188SOL    HW262006   7.568   6.405   7.667 -0.6803 -0.1337 -0.9295
20189SOL     OW62007   5.528   0.097   2.489  0.6098 -0.2519  0.1403
20189SOL    HW162008   5.527   0.192   2.478 -1.2264  0.1304  2.6870
20189SOL    HW262009   5.439   0.070   2.467 -0.0007 -0.7800  2.8499
20190SOL     OW62010   0.651   1.731   2.301 -0.0898 -0.1294  0.1713
20190SOL    HW162011   0.666   1.760   2.391  0.5566  0.7738 -0.2071
20190SOL    HW262012   0.723   1.669   2.284 -1.0626 -1.4551  0.7454
20191SOL     OW62013   0.055   1.528  12.424 -0.3670  0.1292 -0.1326
20191SOL    HW162014   0.082   1.610  12.467 -1.4127 -0.5110  1.8710
20191SOL    HW262015  -0.040   1.524  12.438 -0.3398 -1.3906 -0.2714
20192SOL     OW62016   2.486   3.619   1.529 -0.1929  0.1868  0.2945
20192SOL    HW162017   2.454   3.531   1.507  0.3093  0.4399 -1.6962
20192SOL    HW262018   2.567   3.604   1.577  0.1725 -0.4660 -0.4960
20193SOL     OW62019   3.291   4.441   0.988 -0.2885 -0.3880 -0.5098
20193SOL    HW162020   3.332   4.492   0.918  0.6285 -2.7654 -1.8150
20193SOL    HW262021   3.216   4.399   0.946 -0.0321 -1.4446  0.0640
20194SOL     OW62022   7.834   2.915   8.017 -0.7322 -0.0542  0.6926
20194SOL    HW162023   7.877   2.978   8.076  0.0025  2.7050 -2.4893
20194SOL    HW262024   7.748   2.953   8.001 -0.5628 -0.2326 -0.7044
20195SOL     OW62025   5.690   5.585   0.543 -0.8648 -0.4486 -0.9186
20195SOL    HW162026   5.752   5.578   0.615 -2.6721 -3.7321  0.5495
20195SOL    HW262027   5.699   5.675   0.512  1.1140  0.6558  2.3528
20196SOL     OW62028   6.319   3.752   9.142  0.6987 -0.1246  0.4609
20196SOL    HW162029   6.360   3.837   9.159 -0.6597  1.0396 -1.6022
20196SOL    HW262030   6.229   3.774   9.117  0.6630 -2.0669 -1.3698
20197SOL     OW62031   0.756   4.284   4.816 -0.0837  0.1264 -0.2682
20197SOL    HW162032   0.831   4.270   4.874 -1.0421  0.7202  1.1655
20197SOL    HW262033   0.720   4.368   4.844 -1.6585 -0.4483 -0.4884
20198SOL     OW62034   1.281   0.496   0.078  0.5654  0.8674 -0.0297
20198SOL    HW162035   1.314   0.493  -0.012 -0.4066  0.0745 -0.3823
20198SOL    HW262036   1.192   0.529   0.070 -0.0682 -0.6118  0.4451
20199SOL     OW62037   4.258   7.827   3.366  0.1716  0.3656 -0.3960
20199SOL    HW162038   4.340   7.844   3.320  1.2514 -1.0186  0.9091
20199SOL    HW262039   4.220   7.752   3.321  0.0810  0.4214 -0.4148
20200SOL     OW62040   6.631   7.568   4.825 -0.0972  0.4956  0.3621
20200SOL    HW162041   6.629   7.499   4.891 -0.9033 -0.2333 -0.4032
20200SOL    HW262042   6.545   7.564   4.783 -0.3274  2.2738  0.5999
20201SOL     OW62043   7.361   7.561   3.390 -0.1046  0.2398  0.4895
20201SOL    HW162044   7.325   7.579   3.477  0.3820  0.8562  0.5765
20201SOL    HW262045   7.328   7.475   3.367 -0.0660 -0.0176  1.3805
20202SOL     OW62046   1.420   3.511   1.209  0.2316 -0.4730 -0.0431
20202SOL    HW162047   1.351   3.459   1.251 -1.1796  1.2787 -0.0863
20202SOL    HW262048   1.502   3.477   1.246 -0.8223 -0.3145  2.6616
20203SOL     OW62049   4.403   6.418   5.235  0.1580 -0.1429  0.4301
20203SOL    HW162050   4.411   6.324   5.223 -0.7564 -0.4073  1.6894
20203SOL    HW262051   4.365   6.450   5.153  0.7451 -0.8105 -0.1177
20204SOL     OW62052   1.100   2.741   6.018 -0.4248  0.6349 -0.4563
20204SOL    HW162053   1.047   2.701   6.087 -1.5824 -0.2312 -1.8029
20204SOL    HW262054   1.165   2.674   5.997  0.9429  1.4967  0.8295
20205SOL     OW62055   2.337   0.549   9.179  0.3745  0.2336 -0.2561
20205SOL    HW162056   2.414   0.534   9.234  0.6699 -0.4660 -0.8442
20205SOL    HW262057   2.340   0.641   9.157  0.5840  0.3915  0.4061
20206SOL     OW62058   2.566   5.404   8.612 -0.7012 -0.5724 -0.5018
20206SOL    HW162059   2.526   5.422   8.697 -0.9974  0.5586 -0.8563
20206SOL    HW262060   2.644   5.461   8.610 -0.9071 -0.3035 -1.1300
20207SOL     OW62061   4.311   0.908   8.287 -0.1877 -0.1080  0.6571
20207SOL    HW162062   4.237   0.865   8.246  0.5789  0.4204 -1.3993
20207SOL    HW262063   4.378   0.840   8.295 -0.4018 -0.2551  1.2271
20208SOL     OW62064   2.976   6.716   0.854  0.0701  0.3585  0.5568
20208SOL    HW162065   3.042   6.692   0.789 -0.5335 -0.4134  0.1971
20208SOL    HW262066   3.025   6.731   0.935  0.5486 -1.9680  0.7645
20209SOL     OW62067   5.923   3.326  12.366 -0.4556  0.1714  0.3885
20209SOL    HW162068   5.879   3.410  12.378 -1.4312 -0.3043  0.3067
20209SOL    HW262069   5.870   3.281  12.300  0.6947 -0.0767 -0.3844
20210SOL     OW62070   1.419   1.488  10.467 -0.2765  0.4226  0.3880
20210SOL    HW162071   1.460   1.536  10.395 -2.9870  0.5638 -1.2101
20210SOL    HW262072   1.329   1.473  10.437 -0.6462 -2.2175  2.5045
20211SOL     OW62073   2.355   4.126   7.702 -0.1506 -0.4312  0.1564
20211SOL    HW162074   2.300   4.050   7.718 -0.0145 -0.7755 -0.9842
20211SOL    HW262075   2.442   4.091   7.682 -0.0430  0.0271 -0.2121
20212SOL     OW62076   4.794   3.544   1.669  0.5666  0.2414 -0.2542
20212SOL    HW162077   4.882   3.518   1.696  0.4170  0.5575  0.5452
20212SOL    HW262078   4.800   3.551   1.574  1.3363  0.0039 -0.2307
20213SOL     OW62079   1.606   5.311   2.373  0.4926  0.0034 -0.1593
20213SOL    HW162080   1.644   5.276   2.292  1.8779 -1.5230  1.0774
20213SOL    HW262081   1.520   5.270   2.379 -0.0291  0.8953 -1.3364
20214SOL     OW62082   6.737   3.072   9.495 -0.2923 -0.2766 -1.1221
20214SOL    HW162083   6.642   3.081   9.505 -0.0138  1.2634  0.7408
20214SOL    HW262084   6.751   2.978   9.480 -2.1400 -0.4070 -2.3589
20215SOL     OW62085   3.313   0.737   1.362  0.8284 -0.0213 -0.1057
20215SOL    HW162086   3.296   0.656   1.314  3.4752 -0.8788  0.2334
20215SOL    HW262087   3.378   0.713   1.427  1.1727  2.2566  0.4904
20216SOL     OW62088   1.227   4.465   5.137 -0.4822  0.0039  0.4396
20216SOL    HW162089   1.180   4.466   5.220  0.1982  1.7354  0.8478
20216SOL    HW262090   1.319   4.479   5.161 -0.0325 -1.1554 -0.4996
20217SOL     OW62091   4.803   3.672  11.505 -0.0424 -0.1557  0.4542
20217SOL    HW162092   4.786   3.608  11.435 -0.5370 -0.4679  0.8514
20217SOL    HW262093   4.723   3.671  11.558  0.1355  0.4478  0.7361
20218SOL     OW62094   6.940   6.764   3.959  0.1635  0.3094 -0.6146
20218SOL    HW162095   6.996   6.807   3.894  0.5299 -1.4459 -1.5211
20218SOL    HW262096   7.000   6.742   4.030  0.4988 -0.8083 -1.2136
20219SOL     OW62097   2.627   1.024   4.138  0.3707  0.4366  0.4714
20219SOL    HW162098   2.543   0.978   4.149  1.4743 -2.1858 -1.1619
20219SOL    HW262099   2.611   1.085   4.066  0.1528 -0.9703 -0.7213
20220SOL     OW62100   5.532   6.164   1.424 -0.0106  0.7033 -0.0831
20220SOL    HW162101   5.443   6.184   1.395 -0.7970 -0.5067  1.3509
20220SOL    HW262102   5.537   6.202   1.512  0.3457 -0.5277  0.4497
20221SOL     OW62103   4.580   3.603   4.871  0.0392 -0.0527 -0.4415
20221SOL    HW162104   4.494   3.577   4.905  0.0126 -0.1866 -0.6108
20221SOL    HW262105   4.580   3.573   4.780  0.3088 -0.1584 -0.4078
20222SOL     OW62106   7.607   2.842  10.156  0.1071 -0.1072 -0.4205
20222SOL    HW162107   7.518   2.823  10.126  0.3834 -0.9173 -0.7441
20222SOL    HW262108   7.620   2.782  10.230 -0.6890  2.0732  1.6260
20223SOL     OW62109   1.031   2.550  11.724 -0.1700 -0.0221  0.7240
20223SOL    HW162110   0.996   2.465  11.750 -1.4092  0.1004 -0.3882
20223SOL    HW262111   1.021   2.552  11.628  0.7060  0.9997  0.6296
20224SOL     OW62112   1.461   0.140   9.742  0.2006  0.3677 -0.0514
20224SOL    HW162113   1.489   0.119   9.831 -1.6840 -1.5204  0.1790
20224SOL    HW262114   1.538   0.123   9.688  0.6654 -0.9167  0.9543
20225SOL     OW62115   1.455   2.926   5.845  0.0375  0.4008  0.0364
20225SOL    HW162116   1.381   2.929   5.784 -0.4343 -0.4214  0.5536
20225SOL    HW262117   1.453   2.837   5.881  0.1808  0.9330  1.4177
20226SOL     OW62118   0.975   2.385   9.968 -0.0028  0.6764  0.1842
20226SOL    HW162119   1.026   2.347  10.039 -0.6250  0.2402  0.4111
20226SOL    HW262120   1.034   2.446   9.926  1.7581 -1.9852 -1.4908
20227SOL     OW62121   7.245   6.464   9.364  0.5677 -0.2536 -0.9398
20227SOL    HW162122   7.282   6.490   9.280  1.1567 -1.4261 -1.0692
20227SOL    HW262123   7.168   6.413   9.341  0.3800 -0.0614 -0.7433
20228SOL     OW62124   5.552   4.075   7.755  0.2635  0.6330  0.3490
20228SOL    HW162125   5.579   3.996   7.802 -1.0385  0.1570  0.3532
20228SOL    HW262126   5.520   4.134   7.823 -1.6479 -0.0673  0.1473
20229SOL     OW62127   4.156   4.005   8.904  0.4545  0.0843  0.0706
20229SOL    HW162128   4.105   4.007   8.823  0.5931  1.0084  0.0026
20229SOL    HW262129   4.160   4.096   8.933  0.9974 -0.1460  0.7506
20230SOL     OW62130   0.741   7.410  11.210  0.3040  0.2646  0.4264
20230SOL    HW162131   0.647   7.420  11.199  0.0424 -0.4894  1.7644
20230SOL    HW262132   0.767   7.344  11.146  0.2819  1.8748 -1.2974
20231SOL     OW62133   5.204   3.038   0.724 -0.3923 -0.7869  0.5778
20231SOL    HW162134   5.234   3.129   0.723 -0.5296 -0.7300 -0.7004
20231SOL    HW262135   5.276   2.990   0.764  0.9103 -0.4671 -1.2417
20232SOL     OW62136   6.981   2.683  10.419  0.3283  0.3802 -0.4936
20232SOL    HW162137   6.898   2.703  10.377 -0.3042  1.2965  1.0989
20232SOL    HW262138   6.986   2.587  10.418 -2.1525  0.0928  1.8131
20233SOL     OW62139   5.058   1.149   0.023  0.1782  0.2784  0.0527
20233SOL    HW162140   5.105   1.143   0.106  0.4365  1.3225 -0.0044
20233SOL    HW262141   5.014   1.234   0.026 -1.0670 -0.3217 -0.2373
20234SOL     OW62142   1.079   7.433   8.311  0.2535  0.4661 -0.0547
20234SOL    HW162143   1.073   7.363   8.376 -0.0926 -1.3018 -1.8835
20234SOL    HW262144   1.172   7.452   8.304  0.3939 -0.1380  0.1311
20235SOL     OW62145   7.546   0.638   1.790 -0.2034 -0.2185 -0.1616
20235SOL    HW162146   7.596   0.709   1.749 -0.5801  0.6266  0.7938
20235SOL    HW262147   7.509   0.590   1.716  0.2337  0.4543 -0.8389
20236SOL     OW62148   2.457   5.899   6.892 -0.0648  0.1442  0.1247
20236SOL    HW162149   2.402   5.872   6.819 -1.2846  0.8544  0.7293
20236SOL    HW262150   2.431   5.842   6.964  3.0506 -2.4273 -0.5952
20237SOL     OW62151   6.897   0.221   5.289  0.2185  0.3098  0.1440
20237SOL    HW162152   6.866   0.134   5.264 -0.0553  0.5891 -0.5231
20237SOL    HW262153   6.863   0.279   5.221  3.0821  0.5163 -1.2935
20238SOL     OW62154   7.684   2.924   4.233 -0.0670 -0.9740 -0.4555
20238SOL    HW162155   7.692   3.019   4.243 -0.3832 -1.0132  0.2530
20238SOL    HW262156   7.775   2.893   4.238  0.0107 -0.7372 -0.3114
20239SOL     OW62157   5.828   0.663  10.553 -0.3416  0.1650  0.4116
20239SOL    HW162158   5.889   0.690  10.485 -0.7119  1.8319  0.6836
20239SOL    HW262159   5.758   0.617  10.507  0.5925 -0.8462 -0.0186
20240SOL     OW62160   6.497   4.311   9.029  0.1949 -0.3462  0.5784
20240SOL    HW162161   6.472   4.367   8.956  2.5066  1.0235  0.7177
20240SOL    HW262162   6.446   4.232   9.017 -1.1408  0.7058 -1.2408
20241SOL     OW62163   1.183   2.638   2.762  0.1246  0.6309  0.3149
20241SOL    HW162164   1.251   2.699   2.790  1.3152 -1.6589  2.7573
20241SOL    HW262165   1.221   2.593   2.686  1.2191 -0.3205  1.3905
20242SOL     OW62166   5.645   5.397   4.752  0.0923 -0.1436  0.4493
20242SOL    HW162167   5.600   5.466   4.704  2.3221 -0.1431 -1.8687
20242SOL    HW262168   5.630   5.317   4.700  1.5563 -0.3833  0.3387
20243SOL     OW62169   6.552   1.661  11.875 -0.4891  0.3826 -1.2829
20243SOL    HW162170   6.554   1.675  11.969  1.2518 -0.9056 -1.0705
20243SOL    HW262171   6.513   1.741  11.839  1.1757  2.0202  0.3603
20244SOL     OW62172   2.307   5.452   5.790  0.3916  0.2569 -0.1584
20244SOL    HW162173   2.293   5.474   5.882 -2.0019  1.2627 -0.7059
20244SOL    HW262174   2.353   5.367   5.793 -0.9110 -0.4601  1.9525
20245SOL     OW62175   5.751   5.393   6.520  0.6441  0.3822 -0.7930
20245SOL    HW162176   5.743   5.465   6.583  0.6131  0.9465 -1.4212
20245SOL    HW262177   5.661   5.361   6.509  0.8203 -0.5692  0.3984
20246SOL     OW62178   5.916   2.454   5.369 -0.2717  0.7001 -0.3810
20246SOL    HW162179   5.927   2.377   5.424  1.9801  0.0909 -1.5730
20246SOL    HW262180   5.823   2.475   5.376 -0.4059 -0.3364  2.2783
20247SOL     OW62181   7.968   5.030   2.476 -0.1196 -0.0705  0.5217
20247SOL    HW162182   8.045   4.982   2.507  0.2632  0.9402  1.1710
20247SOL    HW262183   8.002   5.114   2.446 -0.8750  0.1002  0.1064
20248SOL     OW62184   3.170   4.068   4.130  0.7799 -0.2658 -0.0656
20248SOL    HW162185   3.162   4.072   4.034  0.1555  0.9447  0.0195
20248SOL    HW262186   3.120   4.143   4.161  3.3789  1.1222  1.1035
20249SOL     OW62187   6.107   6.427  10.505  0.3657  0.6380 -0.1309
20249SOL    HW162188   6.158   6.403  10.428 -1.1326 -2.8115 -0.2076
20249SOL    HW262189   6.017   6.431  10.474 -0.0931  0.6294  1.1471
20250SOL     OW62190   2.421   0.190   3.979  0.4560 -0.4679  0.2103
20250SOL    HW162191   2.505   0.206   4.023 -0.6291 -0.1305  2.2998
20250SOL    HW262192   2.360   0.168   4.050 -0.9247 -2.1378 -1.3782
20251SOL     OW62193   7.575   3.800   0.224 -0.7418  0.0526 -0.8910
20251SOL    HW162194   7.553   3.708   0.239 -0.0767 -0.0436 -0.5120
20251SOL    HW262195   7.554   3.844   0.307  1.3005 -0.1929 -0.1845
20252SOL     OW62196   4.991   1.097   5.875  0.3656 -0.4418 -0.0394
20252SOL    HW162197   5.066   1.093   5.934 -0.1359  0.2435  0.6687
20252SOL    HW262198   5.022   1.056   5.794  2.0433  1.2956 -0.3521
20253SOL     OW62199   6.855   4.977  10.845  0.0384  0.1737 -0.4643
20253SOL    HW162200   6.944   5.011  10.854 -0.2885  0.8451  0.3541
20253SOL    HW262201   6.806   5.018  10.917 -0.5814 -1.3536  0.0206
20254SOL     OW62202   2.838   2.724   3.313 -0.4606  0.2824  0.6517
20254SOL    HW162203   2.896   2.762   3.379  2.4050 -0.0282 -1.4988
20254SOL    HW262204   2.866   2.633   3.305 -0.5839  0.3595 -1.0912
20255SOL     OW62205   0.553   0.405   8.036  0.0209 -0.0613  0.2028
20255SOL    HW162206   0.621   0.364   7.983 -1.0643 -0.3959 -0.9738
20255SOL    HW262207   0.497   0.332   8.063 -0.6004  0.3551  0.0565
20256SOL     OW62208   7.398   2.994   1.080  0.3347  0.5818 -0.1217
20256SOL    HW162209   7.366   3.033   1.161  0.6243 -0.2703  0.4078
20256SOL    HW262210   7.328   2.936   1.051  0.3943  0.5817 -0.2707
20257SOL     OW62211   7.644   1.124   8.432  0.0177 -0.6334 -0.0036
20257SOL    HW162212   7.654   1.213   8.399 -0.0238 -1.5544 -2.7569
20257SOL    HW262213   7.685   1.125   8.518  1.0811  1.7407 -0.4699
20258SOL     OW62214   5.256   1.426   2.124  0.0786  0.1432  0.5438
20258SOL    HW162215   5.315   1.397   2.056 -1.0346  1.1044 -0.8861
20258SOL    HW262216   5.171   1.387   2.101 -0.6631  1.7026  0.4669
20259SOL     OW62217   7.763   7.715   3.207 -0.6721  0.5756  0.2307
20259SOL    HW162218   7.720   7.639   3.168 -0.2481  0.6165 -0.3247
20259SOL    HW262219   7.838   7.732   3.150 -0.4826  1.1075  0.6324
20260SOL     OW62220   4.954   3.225  11.070 -0.1946  0.2652 -0.5634
20260SOL    HW162221   4.996   3.195  10.989 -1.3941 -0.1878 -1.0407
20260SOL    HW262222   4.861   3.209  11.056 -0.3992 -0.2076  1.0691
20261SOL     OW62223   2.293   5.373   3.403  0.4077  0.3763  0.0895
20261SOL    HW162224   2.264   5.397   3.315 -0.5003 -1.6092 -0.2176
20261SOL    HW262225   2.382   5.340   3.390  1.0897  2.0436  0.2868
20262SOL     OW62226   2.880   1.397   3.929 -0.5802  0.2659 -0.0630
20262SOL    HW162227   2.889   1.307   3.959  0.5185  0.2206 -0.4807
20262SOL    HW262228   2.785   1.410   3.920 -1.0016  0.2481  3.1939
20263SOL     OW62229   3.351   5.043   4.346 -0.6198 -0.2089  0.9434
20263SOL    HW162230   3.349   5.062   4.440  0.7744  0.1102  0.9247
20263SOL    HW262231   3.388   5.122   4.307  0.9261 -1.1828  0.3766
20264SOL     OW62232   3.944   6.326   6.750  0.6499  0.9631 -0.5699
20264SOL    HW162233   3.851   6.306   6.736  1.0411 -0.3462 -1.4080
20264SOL    HW262234   3.956   6.412   6.709  0.1481  0.4371 -1.8828
20265SOL     OW62235   3.655   5.868   5.509  0.3379  0.2736 -0.2649
20265SOL    HW162236   3.747   5.849   5.490  0.3778  1.6488 -1.5893
20265SOL    HW262237   3.649   5.963   5.505 -0.7096  0.3484  2.0356
20266SOL     OW62238   6.576   3.031   9.859  0.3646 -0.0197  0.6482
20266SOL    HW162239   6.552   3.119   9.888  2.9928  1.3448 -0.9327
20266SOL    HW262240   6.551   3.028   9.767  2.6973  0.1242 -0.0389
20267SOL     OW62241   0.592   3.177   6.884 -0.2664 -0.2957  0.7320
20267SOL    HW162242   0.665   3.154   6.941  1.5694  1.2849 -0.8048
20267SOL    HW262243   0.558   3.094   6.852  1.0452 -1.0733  1.2993
20268SOL     OW62244   0.651   5.390  11.020  0.3587 -0.5351 -0.7756
20268SOL    HW162245   0.732   5.439  11.035  0.8566 -1.8982  1.4350
20268SOL    HW262246   0.679   5.305  10.987 -0.4311  0.0899 -3.2852
20269SOL     OW62247   6.718   1.791   6.010  0.3735 -0.0528 -0.3207
20269SOL    HW162248   6.714   1.701   6.042  3.8271 -0.4686 -0.6137
20269SOL    HW262249   6.658   1.793   5.936 -3.2179 -0.7200  2.2884
20270SOL     OW62250   3.992   5.985   6.229  0.7965  0.0819  0.4456
20270SOL    HW162251   4.037   5.937   6.299  0.1054 -0.3063  0.6258
20270SOL    HW262252   4.051   5.977   6.154  2.0216  1.3238  1.2161
20271SOL     OW62253   2.255   2.598   8.119  0.0852  0.1688 -0.8193
20271SOL    HW162254   2.175   2.547   8.130 -0.0634  0.4526 -0.5645
20271SOL    HW262255   2.225   2.685   8.093  0.3080  0.2894 -0.6820
20272SOL     OW62256   6.467   3.510   2.044 -0.1258 -0.0724 -0.1944
20272SOL    HW162257   6.383   3.513   2.091 -0.8510 -1.7693 -1.2905
20272SOL    HW262258   6.533   3.519   2.113 -1.2017  0.6935  0.7654
20273SOL     OW62259   7.680   6.946   5.412  0.1109 -0.3627 -0.6490
20273SOL    HW162260   7.755   6.926   5.355  0.6259  1.1203 -0.5240
20273SOL    HW262261   7.700   7.032   5.449 -1.0733 -0.5033  0.3752
20274SOL     OW62262   3.689   0.672   9.267 -0.1675 -0.4756  0.0841
20274SOL    HW162263   3.647   0.745   9.222 -0.6874 -0.9206 -0.1713
20274SOL    HW262264   3.759   0.644   9.209  1.5568  1.2884  1.2294
20275SOL     OW62265   6.105   2.141   2.869 -0.2494  0.2211  0.2639
20275SOL    HW162266   6.053   2.082   2.813  0.9043 -1.2723  0.7076
20275SOL    HW262267   6.194   2.106   2.864  0.2600  1.2871  1.4350
20276SOL     OW62268   2.321   2.031   2.605 -0.4610  0.5750  0.4849
20276SOL    HW162269   2.328   2.024   2.510  1.3676  0.9760  0.5628
20276SOL    HW262270   2.237   1.989   2.625 -0.0737 -1.1464 -1.1326
20277SOL     OW62271   4.823   0.621   5.307 -0.0933 -0.0334  0.2180
20277SOL    HW162272   4.744   0.672   5.293 -0.0874  0.1297  0.7682
20277SOL    HW262273   4.853   0.598   5.218  1.0423  2.6251 -0.1801
20278SOL     OW62274   7.377   4.717  10.439 -0.3715 -0.2590  0.0826
20278SOL    HW162275   7.365   4.812  10.443 -2.8301 -0.3858 -1.5918
20278SOL    HW262276   7.299   4.682  10.483 -0.2903 -1.4636 -0.7002
20279SOL     OW62277   4.363   2.247   8.464  0.3167 -0.2267  0.0971
20279SOL    HW162278   4.413   2.314   8.512  0.2652  1.1156 -1.6184
20279SOL    HW262279   4.292   2.224   8.523  2.2674 -1.3899  2.1655
20280SOL     OW62280   5.387   0.621  10.363 -0.4016 -0.1932  0.3311
20280SOL    HW162281   5.407   0.676  10.439  2.3077 -0.8374  0.2015
20280SOL    HW262282   5.445   0.653  10.294 -0.8141 -1.3955 -0.6111
20281SOL     OW62283   1.638   6.440   4.239 -0.2025 -0.2105 -0.3145
20281SOL    HW162284   1.649   6.349   4.267  2.8416 -0.3423 -1.5375
20281SOL    HW262285   1.644   6.437   4.143  0.0154  1.2774 -0.3762
20282SOL     OW62286   1.108   1.649   9.862 -0.4007 -0.2437  0.0546
20282SOL    HW162287   1.036   1.586   9.847 -0.2189 -1.1107  2.4277
20282SOL    HW262288   1.085   1.692   9.944  1.3188  0.1729  0.3414
20283SOL     OW62289   1.335   2.172   3.284 -0.6653 -0.0984 -0.0272
20283SOL    HW162290   1.421   2.212   3.300 -1.2548  0.7143  1.2746
20283SOL    HW262291   1.355   2.089   3.240  0.8629 -0.4206  1.1757
20284SOL     OW62292   0.491   6.985   0.950 -0.3121  0.0246 -0.0354
20284SOL    HW162293   0.396   6.987   0.962 -0.0709  1.5235  2.3228
20284SOL    HW262294   0.521   7.069   0.984  1.8362 -0.2575 -1.0983
20285SOL     OW62295   7.083   7.918   6.454  0.2038  0.1843 -1.0155
20285SOL    HW162296   7.138   7.969   6.394 -1.0002  0.8276 -1.6085
20285SOL    HW262297   7.047   7.983   6.514  0.3282 -0.2778 -0.4277
20286SOL     OW62298   7.656   0.722   3.472 -0.0011 -0.6625 -0.2045
20286SOL    HW162299   7.635   0.814   3.487  0.9179 -0.4893  0.0706
20286SOL    HW262300   7.572   0.682   3.447 -0.6809 -0.0250  0.9340
20287SOL     OW62301   6.000   0.421   5.703 -0.6696 -0.1976  0.1244
20287SOL    HW162302   6.069   0.372   5.658 -1.0820  0.0971 -0.8705
20287SOL    HW262303   5.986   0.374   5.785 -1.7674 -2.4032 -1.2203
20288SOL     OW62304   1.844   5.160   1.692  0.1064  0.0912  0.2835
20288SOL    HW162305   1.845   5.199   1.780  0.8622  1.2520 -0.2098
20288SOL    HW262306   1.774   5.206   1.647  0.7137  0.5893 -0.1718
20289SOL     OW62307   7.966   2.438   6.169  0.7190  0.1275 -0.1403
20289SOL    HW162308   7.934   2.515   6.123 -1.9647 -0.8910 -0.1236
20289SOL    HW262309   7.923   2.440   6.254 -0.2542 -1.8746 -0.5083
20290SOL     OW62310   6.581   5.733   5.447 -0.0525  0.2525  0.2054
20290SOL    HW162311   6.566   5.826   5.429 -1.8593 -0.1060 -0.3147
20290SOL    HW262312   6.652   5.709   5.387  1.6496  1.6518  1.5466
20291SOL     OW62313   4.460   3.846   2.769 -0.1600 -0.3104  0.2538
20291SOL    HW162314   4.526   3.835   2.837 -0.3654 -0.5273  0.4207
20291SOL    HW262315   4.428   3.757   2.752  0.4773 -0.3695 -0.7185
20292SOL     OW62316   5.036   7.123   6.979 -0.3507 -0.4216  0.0072
20292SOL    HW162317   4.996   7.162   6.901 -0.4591  0.6660  0.5886
20292SOL    HW262318   5.050   7.031   6.956  0.8420  0.1577 -1.7803
20293SOL     OW62319   0.395   2.650   1.022 -0.2284 -0.1213 -0.2491
20293SOL    HW162320   0.335   2.606   0.962 -0.1787  0.3521 -0.6527
20293SOL    HW262321   0.467   2.680   0.966  0.1286 -0.2314  0.1475
20294SOL     OW62322   0.774   3.104   1.170  0.1218 -0.4968  0.5352
20294SOL    HW162323   0.780   3.044   1.244  0.1177 -1.7456 -0.4497
20294SOL    HW262324   0.692   3.151   1.184  0.8237  0.3581  2.0826
20295SOL     OW62325   2.863   2.178   6.370  0.6472 -0.6553  0.0712
20295SOL    HW162326   2.771   2.168   6.344  0.7344 -0.4446 -0.3160
20295SOL    HW262327   2.910   2.190   6.288  1.1428 -1.6612  0.1969
20296SOL     OW62328   0.269   0.329   6.108 -0.6116 -0.1574 -0.1451
20296SOL    HW162329   0.204   0.261   6.091  0.1723 -0.7691 -0.7976
20296SOL    HW262330   0.349   0.281   6.129 -0.1984  0.5703 -0.0291
20297SOL     OW62331   7.195   2.660   6.878 -0.0183  0.0966 -0.1993
20297SOL    HW162332   7.252   2.584   6.887  1.4923  0.9993 -1.5611
20297SOL    HW262333   7.117   2.639   6.930  1.7982 -0.9249  2.2947
20298SOL     OW62334   7.334   0.548   6.360  0.9101 -0.1064  0.3339
20298SOL    HW162335   7.271   0.512   6.297  1.3312 -0.8808  0.3345
20298SOL    HW262336   7.325   0.643   6.352 -1.7940 -0.1373  1.8530
20299SOL     OW62337   0.049   0.994  10.614 -0.2079 -0.1244 -0.3628
20299SOL    HW162338   0.010   0.972  10.698 -2.3286 -3.1401 -1.9467
20299SOL    HW262339   0.107   0.920  10.595 -0.2991  0.1493 -1.8199
20300SOL     OW62340   4.390   5.679   4.273 -0.2693  0.4295 -0.1086
20300SOL    HW162341   4.299   5.691   4.300  0.1449  1.9134  0.7364
20300SOL    HW262342   4.441   5.701   4.351  0.8305 -0.0466 -0.6722
20301SOL     OW62343   1.956   3.916   2.374 -0.2437  0.2366  0.0690
20301SOL    HW162344   2.009   3.978   2.325 -0.2718  1.0297  1.0023
20301SOL    HW262345   2.020   3.865   2.424 -0.3011  0.6024  0.5232
20302SOL     OW62346   5.582   6.385   3.395  0.2559 -0.2211 -0.0247
20302SOL    HW162347   5.515   6.397   3.461 -0.1506  0.6691 -0.5785
20302SOL    HW262348   5.562   6.300   3.356 -1.4577  0.6390 -1.1566
20303SOL     OW62349   1.484   5.978   8.373  0.3159 -0.0313 -0.0708
20303SOL    HW162350   1.531   6.000   8.293  2.8646 -4.6172 -0.2312
20303SOL    HW262351   1.394   5.964   8.345  0.3532  1.8746 -1.3103
20304SOL     OW62352   3.256   1.291   6.928 -0.7942 -0.0582  0.2023
20304SOL    HW162353   3.330   1.248   6.971 -1.4077 -0.8331  0.5142
20304SOL    HW262354   3.276   1.384   6.932  0.4091 -0.2882 -0.1852
20305SOL     OW62355   2.900   5.983  11.263  0.3259 -0.1378  0.4281
20305SOL    HW162356   2.855   5.976  11.179  0.6536  0.5807  0.1803
20305SOL    HW262357   2.926   6.075  11.268  1.2365 -0.4089  0.8376
20306SOL     OW62358   5.412   5.778   4.991  0.0158  0.4032  0.0076
20306SOL    HW162359   5.447   5.839   4.926  0.3097  0.0026 -0.2080
20306SOL    HW262360   5.322   5.809   5.006 -0.2092  0.2205 -0.9335
20307SOL     OW62361   4.911   5.051   9.556  0.3669  0.5581  0.4538
20307SOL    HW162362   4.819   5.047   9.583  0.6915  0.1741  1.6038
20307SOL    HW262363   4.935   4.959   9.540  0.6448  0.6159  0.5313
20308SOL     OW62364   7.429   7.213   0.618  0.1370  0.3080  0.0201
20308SOL    HW162365   7.417   7.190   0.525  0.3701  1.6348 -0.3531
20308SOL    HW262366   7.382   7.296   0.628  1.6700  1.1430  0.6234
20309SOL     OW62367   7.973   1.293  11.299  0.8432  0.5815 -0.2321
20309SOL    HW162368   7.990   1.352  11.372  0.9855 -0.6235  0.7535
20309SOL    HW262369   8.058   1.252  11.281  0.3752 -0.8033  0.4965
20310SOL     OW62370   5.497   1.707  10.984  0.3600  0.0507  0.5497
20310SOL    HW162371   5.589   1.711  10.957 -0.1397  0.1610 -1.2592
20310SOL    HW262372   5.447   1.720  10.903 -1.2632  1.1321  1.6474
20311SOL     OW62373   7.010   0.927   1.785  0.3206 -0.4195 -0.0284
20311SOL    HW162374   7.011   0.841   1.742 -1.3458 -0.3238 -0.3253
20311SOL    HW262375   6.956   0.982   1.728  1.2278  0.7966  0.2434
20312SOL     OW62376   5.320   5.873   6.899 -0.0267 -0.0316 -0.0958
20312SOL    HW162377   5.343   5.831   6.982 -0.6496  0.0997  0.1544
20312SOL    HW262378   5.256   5.940   6.924 -0.7142 -0.4243 -0.7568
20313SOL     OW62379   6.423   7.637   3.632  0.1013  0.1857 -0.1973
20313SOL    HW162380   6.392   7.608   3.546  2.1972  0.5818 -1.1604
20313SOL    HW262381   6.360   7.703   3.660 -1.6630 -1.2840 -0.5206
20314SOL     OW62382   0.634   2.743   6.589  0.2969 -0.6191 -0.3286
20314SOL    HW162383   0.727   2.741   6.568  1.0684 -0.7104  2.6092
20314SOL    HW262384   0.606   2.832   6.569  1.2265 -0.3465 -0.4403
20315SOL     OW62385   1.856   2.729   6.328 -0.1926 -0.1981  0.0045
20315SOL    HW162386   1.794   2.766   6.392  0.7355 -0.6006  1.1628
20315SOL    HW262387   1.894   2.806   6.285 -0.5735  0.0921  0.1767
20316SOL     OW62388   5.410   2.837  12.179 -0.5006 -0.2279  0.0105
20316SOL    HW162389   5.338   2.900  12.166 -0.1178  0.2479  0.1542
20316SOL    HW262390   5.397   2.771  12.111  0.2640  1.1136 -1.5205
20317SOL     OW62391   0.546   1.108   8.500  0.3893  0.4543 -0.3607
20317SOL    HW162392   0.489   1.097   8.576 -2.0112  3.3557 -1.5429
20317SOL    HW262393   0.487   1.108   8.425  2.1621  1.6510 -1.8505
20318SOL     OW62394   2.543   4.217   5.532  0.0168 -0.2353  0.0876
20318SOL    HW162395   2.619   4.256   5.488 -0.0035 -0.6115 -0.2821
20318SOL    HW262396   2.480   4.202   5.462  1.0133 -3.4077 -0.2683
20319SOL     OW62397   4.318   1.733   9.820 -0.0233  0.2266 -0.0842
20319SOL    HW162398   4.243   1.777   9.858  0.6095  0.3772  1.0358
20319SOL    HW262399   4.282   1.682   9.748 -1.3478 -0.4421  0.9989
20320SOL     OW62400   6.163   7.881   5.381  0.4207 -0.3739 -0.0154
20320SOL    HW162401   6.255   7.873   5.357  0.2050 -1.7286 -0.5332
20320SOL    HW262402   6.119   7.907   5.300  0.3425  0.3262  0.2439
20321SOL     OW62403   7.570   0.552   5.294 -0.2998  0.2822  0.0298
20321SOL    HW162404   7.645   0.499   5.319  1.2647  1.3530 -2.0602
20321SOL    HW262405   7.521   0.497   5.233  0.9964  0.9201 -1.6694
20322SOL     OW62406   5.479   0.773  10.571 -0.1481  0.4636  0.1762
20322SOL    HW162407   5.480   0.705  10.639  0.4100 -1.6528 -1.7983
20322SOL    HW262408   5.547   0.835  10.598  1.9093 -1.6930  0.3308
20323SOL     OW62409   7.579   3.670  10.003  0.3961  0.2671 -0.0153
20323SOL    HW162410   7.640   3.653  10.075  0.0850 -0.1070  0.1566
20323SOL    HW262411   7.578   3.766   9.996  0.0464  0.3293  0.8023
20324SOL     OW62412   3.412   4.917   0.673  0.0558  0.2990 -0.6259
20324SOL    HW162413   3.412   4.882   0.762  1.0171  0.5077 -0.5271
20324SOL    HW262414   3.505   4.917   0.648  0.0772  2.4587 -0.7451
20325SOL     OW62415   1.528   2.480   3.714  0.0646 -0.7110 -0.3063
20325SOL    HW162416   1.470   2.407   3.693  0.6360 -1.2813  0.0661
20325SOL    HW262417   1.608   2.439   3.746  0.6474  0.0651 -0.7307
20326SOL     OW62418   7.041   2.571   7.666 -0.0548 -0.0913  0.1034
20326SOL    HW162419   7.101   2.590   7.594 -0.4359 -0.7036 -0.3774
20326SOL    HW262420   7.039   2.652   7.717  2.2205 -0.4617  0.8953
20327SOL     OW62421   2.481   7.642   1.587 -0.1733  0.2130  0.0347
20327SOL    HW162422   2.435   7.574   1.538 -0.7828  0.1156  0.7191
20327SOL    HW262423   2.449   7.724   1.550  1.6515  0.1703 -1.7923
20328SOL     OW62424   5.662   1.654  12.230  0.0511  0.0543  0.2224
20328SOL    HW162425   5.604   1.722  12.264 -0.5808  0.3701 -1.3938
20328SOL    HW262426   5.706   1.619  12.307 -0.7832  1.2113  1.2598
20329SOL     OW62427   1.880   5.008   0.915  0.1039  0.0182 -0.4072
20329SOL    HW162428   1.870   5.103   0.908 -0.4253 -0.0931 -1.3117
20329SOL    HW262429   1.870   4.990   1.009  1.1242  0.9420 -0.1012
20330SOL     OW62430   5.821   5.500  11.845  0.1979  0.3705  0.2347
20330SOL    HW162431   5.740   5.551  11.842 -0.5864 -0.8507 -1.9441
20330SOL    HW262432   5.854   5.512  11.934 -1.3832  2.3900  0.6298
20331SOL     OW62433   7.485   4.356  10.692 -0.1445  0.6053  0.2144
20331SOL    HW162434   7.417   4.327  10.631 -0.6463  0.7980  0.6731
20331SOL    HW262435   7.438   4.405  10.759  0.4576  0.7877  0.5110
20332SOL     OW62436   1.235   2.727   0.758  0.5402  0.5153 -0.0112
20332SOL    HW162437   1.211   2.722   0.665 -1.2759  0.2655  0.4356
20332SOL    HW262438   1.204   2.644   0.795  2.7126 -0.1057  0.5403
20333SOL     OW62439   6.445   1.594   7.736  0.2980  0.6286  0.1336
20333SOL    HW162440   6.494   1.514   7.757 -0.9204  0.1922  1.5021
20333SOL    HW262441   6.383   1.604   7.809  0.1190  2.5859 -0.2297
20334SOL     OW62442   2.652   2.984   1.148 -0.1795  0.3404 -0.0295
20334SOL    HW162443   2.722   3.047   1.132  0.3473 -0.3377 -0.4482
20334SOL    HW262444   2.573   3.027   1.114  0.2477  0.5913 -0.7344
20335SOL     OW62445   4.794   0.220   5.495  0.5425 -0.1358  0.1136
20335SOL    HW162446   4.859   0.287   5.474 -0.0443  0.6492  0.6869
20335SOL    HW262447   4.810   0.199   5.587 -0.6002  0.7869  0.5526
20336SOL     OW62448   5.601   4.176   7.342  0.3517  0.0868 -0.2012
20336SOL    HW162449   5.624   4.193   7.250 -1.5684 -0.3184 -0.8066
20336SOL    HW262450   5.565   4.259   7.373 -0.9743 -0.3652 -0.4905
20337SOL     OW62451   7.470   7.556   4.465  0.1900 -0.4635  0.3335
20337SOL    HW162452   7.518   7.636   4.487 -0.6311 -0.1550  1.0804
20337SOL    HW262453   7.396   7.556   4.526 -1.7392 -0.0348 -1.8705
20338SOL     OW62454   4.512   6.336   7.076  0.1171 -0.0099 -0.4106
20338SOL    HW162455   4.603   6.352   7.050  0.1754  1.9450  0.7933
20338SOL    HW262456   4.464   6.334   6.993  1.2129 -0.8557 -1.0521
20339SOL     OW62457   1.328   5.943  12.422  0.7224  0.0869  0.5587
20339SOL    HW162458   1.393   6.002  12.460 -0.0389  0.3566  1.5035
20339SOL    HW262459   1.244   5.985  12.441  0.1897 -1.0584  0.8402
20340SOL     OW62460   3.727   4.134  11.418  0.2970 -0.0511  0.3008
20340SOL    HW162461   3.766   4.197  11.480 -0.8415 -0.3177  1.3305
20340SOL    HW262462   3.672   4.078  11.473  0.2508 -1.1070 -0.7975
20341SOL     OW62463   3.135   0.963  10.895  0.0902  0.6029  0.3641
20341SOL    HW162464   3.180   1.031  10.945  0.4547 -0.0170  0.8902
20341SOL    HW262465   3.175   0.968  10.808  2.1945 -0.8417  1.1913
20342SOL     OW62466   1.226   2.056   2.952 -0.1151 -0.2616 -0.4490
20342SOL    HW162467   1.194   1.967   2.965 -0.5079 -0.4541 -2.5189
20342SOL    HW262468   1.301   2.047   2.893 -1.2311  0.8865 -2.1382
20343SOL     OW62469   3.621   6.892   8.979  0.0718 -0.0705  0.1081
20343SOL    HW162470   3.639   6.977   9.019 -3.5242  0.6791  0.4527
20343SOL    HW262471   3.612   6.911   8.886 -1.8596  0.2070  0.3221
20344SOL     OW62472   6.091   1.461   6.444 -0.0946 -0.1815  0.9964
20344SOL    HW162473   6.089   1.519   6.521 -1.6779 -0.5992  1.3056
20344SOL    HW262474   6.160   1.398   6.464  2.3480  2.0545  0.2377
20345SOL     OW62475   2.628   0.531   8.485  0.0741 -0.7535  0.3472
20345SOL    HW162476   2.550   0.546   8.538  0.4564 -2.9573  1.6735
20345SOL    HW262477   2.598   0.473   8.414 -0.3710  1.9372 -1.8336
20346SOL     OW62478   5.304   7.337   1.251 -0.9888 -0.0194 -0.0466
20346SOL    HW162479   5.260   7.326   1.167  0.7636  2.6122 -1.4415
20346SOL    HW262480   5.266   7.416   1.289 -2.2364 -1.5137  2.0974
20347SOL     OW62481   5.836   3.694   1.601  0.0286 -0.2770  0.3430
20347SOL    HW162482   5.756   3.697   1.654 -0.0013  0.6918  0.2692
20347SOL    HW262483   5.903   3.732   1.657  0.2231 -0.1959  0.0549
20348SOL     OW62484   3.520   7.884   0.110 -0.7366 -0.2836  0.8258
20348SOL    HW162485   3.523   7.794   0.142 -1.0994 -0.8479 -0.6259
20348SOL    HW262486   3.428   7.910   0.121 -0.6172 -0.0691  1.3082
20349SOL     OW62487   3.002   1.525  10.488  0.5031 -0.6687 -0.3923
20349SOL    HW162488   2.941   1.595  10.509 -1.0171 -1.3251 -2.2589
20349SOL    HW262489   3.089   1.562  10.504 -0.3152  0.7150  1.1450
20350SOL     OW62490   1.918   3.085  11.759  0.7938  0.1567  0.1931
20350SOL    HW162491   1.848   3.080  11.694  0.7808 -0.0943  0.2218
20350SOL    HW262492   1.895   3.160  11.813  0.2920 -0.1910  0.4808
20351SOL     OW62493   1.458   1.462   1.369  0.0496  0.4073  0.3767
20351SOL    HW162494   1.427   1.407   1.297  0.1508  0.2856  0.4273
20351SOL    HW262495   1.544   1.427   1.392 -0.6814 -0.6228  1.6736
20352SOL     OW62496   7.370   3.885   7.943  0.7091 -0.3685  0.4871
20352SOL    HW162497   7.283   3.882   7.902  0.6313 -2.5375  0.6574
20352SOL    HW262498   7.355   3.855   8.032  1.7791 -2.2070  0.1104
20353SOL     OW62499   6.181   1.662   1.060 -0.0289 -0.4062 -0.1524
20353SOL    HW162500   6.216   1.685   1.146 -1.5592 -0.0941  0.4368
20353SOL    HW262501   6.169   1.567   1.064 -0.1080 -0.3910 -0.0031
20354SOL     OW62502   3.426   1.085   9.275 -0.3597  0.1660 -0.0722
20354SOL    HW162503   3.472   1.124   9.349  1.6804  0.2379 -1.3114
20354SOL    HW262504   3.349   1.141   9.263 -0.5308  0.3782  1.7171
20355SOL     OW62505   6.221   1.476  10.205 -0.0357 -0.0596  0.5403
20355SOL    HW162506   6.161   1.446  10.273 -0.6634  1.5220  0.7433
20355SOL    HW262507   6.257   1.558  10.239 -1.3258  1.4636 -1.4778
20356SOL     OW62508   6.919   1.639  11.568 -0.1921  0.6021  0.3139
20356SOL    HW162509   6.934   1.636  11.473 -2.6109  1.5877 -0.1783
20356SOL    HW262510   6.975   1.711  11.598 -0.9419  1.6930 -0.7676
20357SOL     OW62511   2.874   1.487   7.222 -0.3182 -0.2035  0.2982
20357SOL    HW162512   2.943   1.550   7.201 -0.9422  0.4038  0.0380
20357SOL    HW262513   2.796   1.541   7.236 -1.1194 -0.9909 -0.9759
20358SOL     OW62514   2.958   2.583   2.263  0.0907 -0.1230  0.4311
20358SOL    HW162515   2.926   2.493   2.275 -1.3030  0.4265  1.0328
20358SOL    HW262516   2.882   2.631   2.230  0.3836  1.1717  1.5797
20359SOL     OW62517   1.331   0.493   7.830 -0.0417 -0.1686 -0.6382
20359SOL    HW162518   1.414   0.533   7.854 -0.3820  1.9651 -2.6396
20359SOL    HW262519   1.355   0.411   7.787  1.0187  0.3059 -0.9676
20360SOL     OW62520   3.038   0.403   4.727  0.1550 -0.2146 -0.3287
20360SOL    HW162521   3.124   0.437   4.704  0.0243  0.8369  0.6879
20360SOL    HW262522   3.047   0.308   4.718  1.1093 -0.0618 -1.2173
20361SOL     OW62523   5.936   3.126  10.957  0.2766  0.1720  0.6053
20361SOL    HW162524   6.007   3.171  10.912 -0.7323  0.4724 -0.7342
20361SOL    HW262525   5.969   3.037  10.972  0.3399 -0.2150 -1.5534
20362SOL     OW62526   3.765   6.119  11.331  0.1155  0.6064 -0.1063
20362SOL    HW162527   3.733   6.104  11.242  0.0182  1.9263 -0.3245
20362SOL    HW262528   3.846   6.169  11.319  0.4905  0.1705  0.5370
20363SOL     OW62529   2.061   0.588   9.143 -0.1548  0.3271  0.0657
20363SOL    HW162530   2.010   0.512   9.118  0.0055  0.3371 -0.2889
20363SOL    HW262531   2.149   0.554   9.159 -0.3215  0.2688  0.9151
20364SOL     OW62532   5.651   7.015   5.559 -0.1095 -0.5738  0.0744
20364SOL    HW162533   5.612   7.077   5.620  1.1064  1.1272 -0.7977
20364SOL    HW262534   5.718   6.970   5.610 -0.3396 -0.4731  0.4698
20365SOL     OW62535   4.717   3.332   2.301  0.4163  0.4950  0.4275
20365SOL    HW162536   4.788   3.289   2.253 -0.1607 -1.2741  1.0969
20365SOL    HW262537   4.750   3.420   2.318  1.7765  0.2441 -0.7182
20366SOL     OW62538   2.389   4.554   5.980  0.2397 -0.0137 -0.0111
20366SOL    HW162539   2.466   4.577   6.031 -0.6765  0.0099  1.4055
20366SOL    HW262540   2.360   4.470   6.016 -0.0472 -0.3328 -0.9510
20367SOL     OW62541   1.931   2.707  12.415 -0.8329  0.0034 -0.1015
20367SOL    HW162542   1.894   2.664  12.338  0.4197  0.1194 -0.7957
20367SOL    HW262543   2.011   2.749  12.383  0.0789 -0.5180  1.4014
20368SOL     OW62544   5.876   2.891   6.471 -0.4558 -0.2208 -0.2652
20368SOL    HW162545   5.858   2.884   6.565  0.4778  0.5600 -0.0079
20368SOL    HW262546   5.911   2.980   6.460  1.1237 -0.8939 -1.0384
20369SOL     OW62547   0.154   5.878   6.359 -0.0830 -0.0374 -0.6748
20369SOL    HW162548   0.143   5.794   6.403  0.5234 -0.7323 -1.7913
20369SOL    HW262549   0.065   5.905   6.337 -0.2339 -0.8358 -1.0911
20370SOL     OW62550   3.250   1.211  11.310 -0.1309 -0.3841 -0.6075
20370SOL    HW162551   3.169   1.160  11.309 -1.0224  0.9717 -1.0649
20370SOL    HW262552   3.223   1.298  11.279  0.9883  0.8352  1.5902
20371SOL     OW62553   0.841   7.693   1.267 -0.1252 -0.3663 -0.1486
20371SOL    HW162554   0.931   7.678   1.241  0.1312  0.3917  0.2702
20371SOL    HW262555   0.793   7.700   1.185  0.3067 -0.1540 -0.3868
20372SOL     OW62556   4.892   4.146   3.495 -0.1635 -0.0198  0.4567
20372SOL    HW162557   4.812   4.183   3.532  0.0475 -0.8970  1.8825
20372SOL    HW262558   4.937   4.107   3.570 -0.0238 -2.5151 -0.7993
20373SOL     OW62559   6.177   0.873   7.759  0.2940  0.2979 -0.2875
20373SOL    HW162560   6.204   0.861   7.668 -0.0894  0.6994 -0.4537
20373SOL    HW262561   6.109   0.940   7.756 -2.2528 -2.1116 -0.1191
20374SOL     OW62562   4.334   0.412   6.967  0.9085  0.1661 -0.2556
20374SOL    HW162563   4.259   0.460   7.004  0.5259 -0.7747  0.2373
20374SOL    HW262564   4.406   0.475   6.969  0.5044  0.6286  0.6872
20375SOL     OW62565   2.463   0.112   0.650 -0.2493  0.1737 -0.3648
20375SOL    HW162566   2.500   0.062   0.723 -1.7216  0.2633  0.4907
20375SOL    HW262567   2.470   0.054   0.574  1.2056  0.0396 -0.1458
20376SOL     OW62568   6.482   2.854  10.302  0.2986  0.1819  0.2249
20376SOL    HW162569   6.542   2.866  10.376 -0.0355  0.8624  0.3995
20376SOL    HW262570   6.499   2.930  10.246 -1.9915  1.7118  1.4209
20377SOL     OW62571   6.712   7.797   2.747 -0.7127 -0.0461 -0.0954
20377SOL    HW162572   6.619   7.771   2.745 -0.4685 -0.9431 -1.7242
20377SOL    HW262573   6.759   7.719   2.718  0.6546  0.1177  1.5484
20378SOL     OW62574   0.008   3.512   0.569  0.0140 -0.0072  0.0681
20378SOL    HW162575   0.067   3.568   0.620 -0.1303 -0.2492  0.5072
20378SOL    HW262576  -0.061   3.572   0.539 -1.6364 -0.3711  2.8100
20379SOL     OW62577   3.805   4.870  11.332 -0.6182  0.0536  0.7192
20379SOL    HW162578   3.875   4.865  11.398 -0.6919  1.4001  0.9255
20379SOL    HW262579   3.782   4.779  11.315  1.3670 -0.4573  0.4502
20380SOL     OW62580   4.629   1.484   4.603 -0.0162  0.2654  0.3539
20380SOL    HW162581   4.621   1.473   4.698  2.7297 -2.3935  0.4350
20380SOL    HW262582   4.542   1.460   4.570 -1.7029  3.2657  2.1767
20381SOL     OW62583   6.733   3.015  11.636  0.0598  0.4094  0.4211
20381SOL    HW162584   6.710   3.107  11.624 -0.8673  0.3440  1.4689
20381SOL    HW262585   6.749   3.006  11.730 -1.7114 -0.8447  0.6719
20382SOL     OW62586   1.813   0.325   5.638 -0.6729  0.1821  0.1923
20382SOL    HW162587   1.908   0.331   5.650 -0.5608  2.0090 -1.2023
20382SOL    HW262588   1.802   0.257   5.572 -0.5138 -1.3570  1.6764
20383SOL     OW62589   6.605   3.264   0.836  0.5540 -0.1749 -0.1037
20383SOL    HW162590   6.593   3.244   0.929 -0.3801  0.6901 -0.0113
20383SOL    HW262591   6.565   3.190   0.791 -3.9196  1.6952  0.2251
20384SOL     OW62592   1.088   2.930   4.067 -0.0778 -0.4877 -0.0711
20384SOL    HW162593   1.153   2.981   4.115  0.7604 -0.9009 -0.7492
20384SOL    HW262594   1.103   2.839   4.095 -1.8866 -0.3823  1.5107
20385SOL     OW62595   2.829   4.997   4.449 -0.3090  0.6763  0.0034
20385SOL    HW162596   2.773   5.052   4.503  0.9757  1.0766  0.9853
20385SOL    HW262597   2.902   4.972   4.507  0.6638  0.3910 -1.2823
20386SOL     OW62598   6.343   1.823   6.129  0.0477  0.1855 -0.2074
20386SOL    HW162599   6.428   1.805   6.089 -1.5760 -3.2472 -2.5854
20386SOL    HW262600   6.338   1.766   6.205  0.0140  0.7397  0.2178
20387SOL     OW62601   6.501   4.613   6.725 -0.2144 -0.0635  0.3668
20387SOL    HW162602   6.491   4.635   6.632  1.6035 -1.7998 -0.3353
20387SOL    HW262603   6.550   4.686   6.762 -0.9462  0.6439 -0.0467
20388SOL     OW62604   7.293   2.955   1.527  0.1775 -0.1099  0.2876
20388SOL    HW162605   7.366   3.017   1.532 -1.1948  1.5847  0.2881
20388SOL    HW262606   7.328   2.881   1.477  1.6562  0.9912 -0.3838
20389SOL     OW62607   7.519   3.190  11.278 -0.3261  0.2717 -0.3545
20389SOL    HW162608   7.464   3.112  11.282  0.2153 -0.0551  1.1257
20389SOL    HW262609   7.538   3.211  11.369  0.7325  1.2831 -0.7843
20390SOL     OW62610   1.755   7.771   6.110 -0.0946  0.3023  0.0182
20390SOL    HW162611   1.662   7.789   6.098 -0.4931 -1.2190  0.5888
20390SOL    HW262612   1.799   7.853   6.088 -1.7019  1.6551  1.5949
20391SOL     OW62613   0.707   2.333   7.568  1.2214 -0.0874  0.4707
20391SOL    HW162614   0.655   2.309   7.491  1.7836  0.1393  0.0194
20391SOL    HW262615   0.659   2.407   7.606  0.8744 -0.2789  0.4181
20392SOL     OW62616   4.406   2.730   6.495  0.0491 -0.1397 -0.4564
20392SOL    HW162617   4.399   2.651   6.441  2.3857 -0.1857 -0.7888
20392SOL    HW262618   4.356   2.710   6.574  1.4216 -2.4094 -0.0723
20393SOL     OW62619   5.138   1.826  10.285 -0.1442 -0.3068  0.2962
20393SOL    HW162620   5.082   1.902  10.275  0.8733  0.3944 -0.3109
20393SOL    HW262621   5.196   1.848  10.359 -2.1155 -1.9859  2.5155
20394SOL     OW62622   5.514   6.961   0.650 -0.7295 -0.8048 -0.2373
20394SOL    HW162623   5.473   6.886   0.608  1.0475 -2.1129  0.2463
20394SOL    HW262624   5.589   6.924   0.697  0.8834  1.4121 -0.9120
20395SOL     OW62625   1.538   5.731   8.304 -0.3142 -0.3098  0.2798
20395SOL    HW162626   1.543   5.814   8.352 -0.4632  0.4299 -0.9243
20395SOL    HW262627   1.446   5.726   8.277 -0.3501 -0.9823  0.5205
20396SOL     OW62628   3.214   1.808   8.266  0.3675 -0.2044 -0.4270
20396SOL    HW162629   3.275   1.799   8.340 -0.1614  2.3477  0.3912
20396SOL    HW262630   3.128   1.788   8.303  0.1471  0.7096 -0.4349
20397SOL     OW62631   2.815   3.702   8.489 -0.6544  0.0501 -0.0632
20397SOL    HW162632   2.727   3.718   8.455 -0.7752 -0.9118 -0.2361
20397SOL    HW262633   2.867   3.777   8.458 -0.9626 -0.3649 -1.6581
20398SOL     OW62634   0.716   1.279   7.390 -0.4857 -0.3392  0.1972
20398SOL    HW162635   0.698   1.186   7.406  0.0892 -0.8080 -1.6783
20398SOL    HW262636   0.636   1.312   7.348  0.5244 -0.8528 -2.2420
20399SOL     OW62637   2.661   3.802  10.250 -0.0404  0.1154  0.6384
20399SOL    HW162638   2.633   3.743  10.180  1.4217 -3.2209  2.6166
20399SOL    HW262639   2.751   3.825  10.227  0.1489 -0.2923  0.9499
20400SOL     OW62640   5.590   5.508   0.269  0.6167 -0.1252  0.3303
20400SOL    HW162641   5.579   5.415   0.250 -0.6678 -0.3112  1.8586
20400SOL    HW262642   5.654   5.511   0.340 -0.3635  0.0322  1.2363
20401SOL     OW62643   0.009   0.301   3.289 -0.5741  0.2156 -0.8023
20401SOL    HW162644   0.103   0.312   3.300 -0.5795 -1.0065  0.7556
20401SOL    HW262645  -0.028   0.387   3.306  0.0834  0.1565  1.0864
20402SOL     OW62646   0.274   6.110   5.601  0.1620 -0.1687  0.1547
20402SOL    HW162647   0.251   6.116   5.694 -0.4052  1.3817 -0.0539
20402SOL    HW262648   0.367   6.087   5.600  0.1661 -0.2093  1.0909
20403SOL     OW62649   2.763   7.678   9.556  0.4391 -0.2212 -0.3136
20403SOL    HW162650   2.804   7.753   9.512  0.0889  0.1512 -0.0154
20403SOL    HW262651   2.729   7.714   9.638 -0.8402 -0.4165 -0.7259
20404SOL     OW62652   5.435   7.758   2.898 -0.0754  0.4648  0.1977
20404SOL    HW162653   5.359   7.702   2.882  0.1825  0.3398 -0.6583
20404SOL    HW262654   5.434   7.821   2.826  2.3530 -1.4356 -1.7086
20405SOL     OW62655   0.678   4.455   5.405  0.2015  0.4155  0.0808
20405SOL    HW162656   0.587   4.429   5.422 -0.3327  1.4586 -1.0296
20405SOL    HW262657   0.700   4.415   5.321  0.1683  1.5305 -0.4814
20406SOL     OW62658   6.156   4.061   5.751  0.4728  0.2776 -0.2091
20406SOL    HW162659   6.137   4.154   5.761  0.1829  0.0175  2.5604
20406SOL    HW262660   6.096   4.032   5.682 -0.0532  1.9692 -0.5212
20407SOL     OW62661   3.015   1.287   7.431 -0.0861  0.0656  0.1919
20407SOL    HW162662   2.998   1.240   7.349  0.2915  0.9007 -0.3796
20407SOL    HW262663   3.097   1.334   7.414 -0.9539  1.7061  0.3972
20408SOL     OW62664   7.396   2.659   0.310  0.0934 -0.4543 -0.3086
20408SOL    HW162665   7.363   2.584   0.359  1.3399 -0.8566 -0.0475
20408SOL    HW262666   7.364   2.645   0.221 -1.2340 -0.3123  0.1267
20409SOL     OW62667   3.163   3.715   2.947 -0.4230  0.1485 -0.1042
20409SOL    HW162668   3.231   3.666   2.994 -1.8695 -0.8751  1.0636
20409SOL    HW262669   3.209   3.763   2.879  1.4455 -0.5127  0.6406
20410SOL     OW62670   2.132   5.605   0.021 -0.4203  0.3225  0.5780
20410SOL    HW162671   2.215   5.648   0.042 -1.0034  1.2963  0.9676
20410SOL    HW262672   2.137   5.520   0.065  0.2435  0.5074  0.8669
20411SOL     OW62673   2.885   7.193   4.295 -0.3814 -0.1920 -0.1856
20411SOL    HW162674   2.875   7.145   4.377  0.8426  0.0238  0.1036
20411SOL    HW262675   2.866   7.128   4.227 -0.3709 -0.6450  0.2357
20412SOL     OW62676   3.604   5.143   6.909  0.1057  0.4298 -0.2601
20412SOL    HW162677   3.644   5.156   6.995  0.1090 -0.2350 -0.1579
20412SOL    HW262678   3.667   5.182   6.847  2.0510 -2.5052 -0.3154
20413SOL     OW62679   4.439   7.085   6.147  0.1157  0.2522  1.1181
20413SOL    HW162680   4.478   7.169   6.120  0.3189 -0.2694 -0.3142
20413SOL    HW262681   4.347   7.106   6.161 -0.7381  0.0941 -2.9585
20414SOL     OW62682   3.240   0.906   7.435 -0.0146  0.4575 -0.1833
20414SOL    HW162683   3.217   0.969   7.504 -0.2545  1.2110 -0.9426
20414SOL    HW262684   3.255   0.959   7.357  0.9071 -0.3241 -0.5692
20415SOL     OW62685   7.550   2.201   2.879 -0.3984  0.8588 -0.1088
20415SOL    HW162686   7.615   2.165   2.939 -0.3954  1.9062  0.5351
20415SOL    HW262687   7.600   2.256   2.819 -0.8075  2.8462  1.2891
20416SOL     OW62688   6.053   6.654   6.477  0.5019 -0.2217  0.0708
20416SOL    HW162689   6.140   6.634   6.443  0.7944 -0.6487  1.0423
20416SOL    HW262690   6.001   6.576   6.457  1.0635 -1.1029  1.8824
20417SOL     OW62691   1.119   7.844  11.086  0.0044  0.0212 -0.2337
20417SOL    HW162692   1.100   7.775  11.149  0.3830  0.3759  0.2840
20417SOL    HW262693   1.087   7.924  11.128  0.2058  0.2525 -0.5159
20418SOL     OW62694   4.441   6.528   2.774  0.3083  0.4565 -0.6457
20418SOL    HW162695   4.434   6.447   2.825  1.8875  0.5925 -0.1504
20418SOL    HW262696   4.525   6.521   2.729  1.3842  2.5748  0.8444
20419SOL     OW62697   2.465   3.317   7.366 -0.1203 -0.2775  0.3452
20419SOL    HW162698   2.417   3.287   7.443 -4.0210  0.4274 -1.5862
20419SOL    HW262699   2.455   3.247   7.301 -1.2136  1.1263 -1.0875
20420SOL     OW62700   0.805   0.283   6.778 -0.4578 -0.1347 -0.0775
20420SOL    HW162701   0.867   0.355   6.768 -1.1708  0.6145  0.8012
20420SOL    HW262702   0.722   0.318   6.746 -1.2247  0.0717  2.0325
20421SOL     OW62703   2.859   6.707   6.789 -0.2735 -0.3652 -0.0817
20421SOL    HW162704   2.929   6.723   6.726  0.6402 -2.7829  0.2203
20421SOL    HW262705   2.881   6.623   6.829 -1.2527  0.6680  2.9179
20422SOL     OW62706   2.478   3.120   0.614 -0.1921 -0.6653  0.4914
20422SOL    HW162707   2.437   3.206   0.623  1.0189 -0.2289  2.5082
20422SOL    HW262708   2.434   3.080   0.539  0.5745  2.4814 -1.8810
20423SOL     OW62709   4.131   6.945   3.625  0.1642  0.0562 -0.0713
20423SOL    HW162710   4.180   6.864   3.639  0.2153  0.0355 -0.3701
20423SOL    HW262711   4.105   6.973   3.713 -2.1255 -1.6783 -0.1235
20424SOL     OW62712   0.181   7.811  11.665 -0.3787 -0.0066 -0.2477
20424SOL    HW162713   0.217   7.738  11.614 -0.7215 -0.6226  0.3740
20424SOL    HW262714   0.252   7.835  11.724 -0.5294 -0.3573  0.0809
20425SOL     OW62715   4.436   1.367   5.199  0.0166  0.5320  0.8843
20425SOL    HW162716   4.382   1.294   5.169  0.0187  1.5062 -1.8604
20425SOL    HW262717   4.519   1.327   5.225 -0.7927 -0.6369  1.7368
20426SOL     OW62718   1.423   6.450   6.081 -0.3153  0.2395 -0.2612
20426SOL    HW162719   1.500   6.497   6.115  0.9377 -2.4055  0.8621
20426SOL    HW262720   1.457   6.399   6.007 -1.4916  0.5713 -1.0650
20427SOL     OW62721   2.618   4.662   2.922 -0.1935 -0.1937 -0.1276
20427SOL    HW162722   2.709   4.685   2.902 -0.2381 -0.0668 -0.1915
20427SOL    HW262723   2.567   4.732   2.880 -0.3176 -0.2412 -0.0555
20428SOL     OW62724   2.493   6.907   5.667 -0.2838  0.3543  0.3540
20428SOL    HW162725   2.462   6.858   5.744 -0.9427 -2.3534 -1.5044
20428SOL    HW262726   2.585   6.884   5.658 -0.2447  0.5515  0.2251
20429SOL     OW62727   4.090   1.597   4.107  0.4351 -0.0805  0.2146
20429SOL    HW162728   4.129   1.668   4.057 -0.4407  1.0981  1.1189
20429SOL    HW262729   4.050   1.540   4.041  1.5814 -0.0144 -0.5560
20430SOL     OW62730   1.417   7.509   1.161 -0.5435 -0.2579  0.2354
20430SOL    HW162731   1.433   7.526   1.253 -0.8003 -1.9121  0.6147
20430SOL    HW262732   1.371   7.425   1.159 -0.7830 -0.1307 -1.3784
20431SOL     OW62733   4.274   5.242   2.399 -0.0381  0.1600 -0.0164
20431SOL    HW162734   4.227   5.176   2.450 -0.7073 -0.4309 -1.3541
20431SOL    HW262735   4.326   5.289   2.464 -1.3853 -0.0943  1.3029
20432SOL     OW62736   4.313   1.061   1.006 -0.6017 -0.5542 -0.1705
20432SOL    HW162737   4.354   0.981   1.038  2.6215  0.9472 -0.1250
20432SOL    HW262738   4.277   1.103   1.084 -0.4192 -0.9676  0.1393
20433SOL     OW62739   0.597   6.847   4.434  0.4606 -0.5896 -0.0309
20433SOL    HW162740   0.524   6.794   4.464 -0.1618  1.0398  1.5415
20433SOL    HW262741   0.586   6.852   4.339 -1.8208  0.0220  0.1936
20434SOL     OW62742   3.619   2.855   4.321 -0.0463  0.1801 -0.0960
20434SOL    HW162743   3.614   2.763   4.347  0.2505  0.1336 -0.1926
20434SOL    HW262744   3.665   2.853   4.237  0.2736  0.4448  0.0726
20435SOL     OW62745   1.771   3.392   6.389 -0.4600 -0.3866  0.0244
20435SOL    HW162746   1.801   3.303   6.407  2.1350  0.5117  0.4886
20435SOL    HW262747   1.675   3.386   6.392 -0.3807 -3.2771 -0.6640
20436SOL     OW62748   0.632   7.243  10.147  0.5804  0.7239 -0.2769
20436SOL    HW162749   0.723   7.269  10.132  0.8605  0.5247  0.9945
20436SOL    HW262750   0.636   7.184  10.222 -0.2495 -1.6274 -1.9584
20437SOL     OW62751   6.432   1.685   8.565  0.1007 -0.7353  0.1221
20437SOL    HW162752   6.438   1.659   8.657  2.5481 -0.0253  0.2355
20437SOL    HW262753   6.446   1.780   8.566 -0.5532 -0.6121 -0.9546
20438SOL     OW62754   1.726   6.463   0.263  0.4461  0.4380  0.5963
20438SOL    HW162755   1.673   6.521   0.208 -0.7124 -0.7124  0.4675
20438SOL    HW262756   1.816   6.493   0.249 -0.0078  1.3966 -0.4287
20439SOL     OW62757   1.475   1.643  11.410 -0.1038 -0.1892 -0.0220
20439SOL    HW162758   1.522   1.692  11.343 -0.1428 -0.3865 -0.1923
20439SOL    HW262759   1.466   1.555  11.374 -0.4042 -0.2108  0.1063
20440SOL     OW62760   2.897   5.549   5.602  0.0639  0.1386  0.2084
20440SOL    HW162761   2.978   5.599   5.592 -0.6415  1.2596 -0.0751
20440SOL    HW262762   2.898   5.488   5.529 -0.2285  1.4266 -0.9153
20441SOL     OW62763   6.707   0.365   0.003 -0.0362  0.3649 -0.0275
20441SOL    HW162764   6.687   0.453   0.037  0.2391  0.2850  0.3441
20441SOL    HW262765   6.703   0.375  -0.092  1.2600  1.0976 -0.0380
20442SOL     OW62766   2.052   7.950   3.037 -0.2605 -0.0641 -0.0551
20442SOL    HW162767   2.037   8.040   3.008 -0.6313 -0.2408 -0.4310
20442SOL    HW262768   1.985   7.936   3.105 -0.2015 -0.0564  0.0047
20443SOL     OW62769   4.083   2.790   4.832 -0.4000  0.1072  0.0976
20443SOL    HW162770   4.061   2.782   4.739 -1.5428  0.3840  0.3276
20443SOL    HW262771   4.165   2.840   4.833 -1.0542  1.2423 -0.7197
20444SOL     OW62772   7.323   0.749  10.314 -0.1830 -0.1559 -0.0021
20444SOL    HW162773   7.267   0.820  10.284 -0.3197 -0.2174  0.1059
20444SOL    HW262774   7.281   0.717  10.394  0.4043  0.2823  0.4967
20445SOL     OW62775   2.250   4.575  12.169  0.3440  0.2184 -0.4016
20445SOL    HW162776   2.261   4.619  12.253 -1.4313  0.3541 -0.2100
20445SOL    HW262777   2.230   4.485  12.191 -0.1873  0.2659 -0.6747
20446SOL     OW62778   4.814   2.426   4.354  0.5781 -0.0279 -0.4039
20446SOL    HW162779   4.777   2.455   4.437  2.3915  1.6475 -0.1068
20446SOL    HW262780   4.894   2.381   4.378 -1.1613 -3.8059 -1.0194
20447SOL     OW62781   6.686   0.283   3.902 -0.5310 -0.2058 -0.0072
20447SOL    HW162782   6.631   0.342   3.850  1.1084  2.1816  0.7425
20447SOL    HW262783   6.646   0.282   3.988 -1.5169 -1.6461 -0.4552
20448SOL     OW62784   5.761   2.239   8.018  0.5730 -0.1450 -0.0671
20448SOL    HW162785   5.852   2.245   8.049  0.4094 -1.8648  0.8101
20448SOL    HW262786   5.708   2.268   8.092  0.3578  0.1595 -0.3346
20449SOL     OW62787   6.224   7.764   3.237 -0.4099  0.6064  0.4127
20449SOL    HW162788   6.142   7.767   3.285 -0.3651  2.1083  0.4435
20449SOL    HW262789   6.225   7.845   3.186  1.9159  1.6651  1.9452
20450SOL     OW62790   3.526   1.884   3.494 -0.1914  0.0896  0.5828
20450SOL    HW162791   3.575   1.882   3.576  0.9129  0.6116 -0.0350
20450SOL    HW262792   3.548   1.801   3.451 -1.1228 -0.3858  0.9926
20451SOL     OW62793   5.363   5.266   0.381 -0.2591 -0.0083 -0.2299
20451SOL    HW162794   5.447   5.292   0.418 -2.0219  4.1881  1.4913
20451SOL    HW262795   5.332   5.196   0.438  0.7357  0.5670  1.0763
20452SOL     OW62796   4.684   6.340   9.255  0.2499  0.9730 -0.0209
20452SOL    HW162797   4.615   6.390   9.211 -0.9430 -0.7188 -0.1492
20452SOL    HW262798   4.639   6.264   9.292  2.2042 -0.8811 -1.2139
20453SOL     OW62799   0.757   4.498  10.844 -0.3486 -0.2908  0.0187
20453SOL    HW162800   0.804   4.448  10.777 -1.9660 -0.3746 -1.1234
20453SOL    HW262801   0.766   4.446  10.924  2.0841  0.0870  0.0750
20454SOL     OW62802   1.588   5.402   9.560  0.5524  0.2388  0.5223
20454SOL    HW162803   1.564   5.353   9.639  0.7960 -1.0416 -0.1620
20454SOL    HW262804   1.675   5.370   9.538  0.8899  1.3039  0.2786
20455SOL     OW62805   5.029   0.259   1.302  0.4068  0.2947 -0.0097
20455SOL    HW162806   4.962   0.223   1.243 -0.3810  1.2941  0.2522
20455SOL    HW262807   5.100   0.287   1.244 -0.3105  1.1609 -0.4982
20456SOL     OW62808   1.515   7.967   2.845 -0.2139  0.0342 -0.3654
20456SOL    HW162809   1.499   7.890   2.791  1.0747 -0.8287  0.4400
20456SOL    HW262810   1.602   7.954   2.881 -0.3601  1.4089  0.5683
20457SOL     OW62811   2.616   0.746   3.233  0.5515  0.0286  0.4503
20457SOL    HW162812   2.641   0.776   3.146 -1.7666  0.5996 -0.0856
20457SOL    HW262813   2.597   0.652   3.221  0.4543  0.0555  0.3937
20458SOL     OW62814   2.749   0.579  11.899 -0.1230 -0.3556  0.0186
20458SOL    HW162815   2.804   0.650  11.931 -0.1375 -0.5565  0.5038
20458SOL    HW262816   2.770   0.572  11.806 -0.5330  0.6512 -0.1633
20459SOL     OW62817   7.360   6.958   6.590 -0.2643 -0.0324 -0.0108
20459SOL    HW162818   7.265   6.956   6.586 -0.2482  0.2012 -0.5371
20459SOL    HW262819   7.381   6.930   6.679 -0.8586  0.8890  0.4283
20460SOL     OW62820   5.802   3.276   2.609  0.1898  0.2659 -0.1996
20460SOL    HW162821   5.874   3.337   2.594  0.0846  0.5000  0.2463
20460SOL    HW262822   5.787   3.278   2.703 -1.3998  1.3889 -0.4384
20461SOL     OW62823   1.382   7.837   4.546 -0.1988  0.0715 -0.0380
20461SOL    HW162824   1.468   7.820   4.585  1.3590 -0.1751 -3.2824
20461SOL    HW262825   1.347   7.909   4.598  2.5078  0.9930  0.7155
20462SOL     OW62826   1.875   6.046   3.266  0.3577 -0.9870 -0.3612
20462SOL    HW162827   1.946   5.984   3.252  0.9564 -0.0129 -1.9203
20462SOL    HW262828   1.897   6.121   3.211  0.5794  1.4138  2.7342
20463SOL     OW62829   3.247   5.895   1.784 -0.0597 -0.6534 -0.1729
20463SOL    HW162830   3.238   5.866   1.875  0.3135  3.0837  1.2349
20463SOL    HW262831   3.338   5.924   1.777 -0.7659  1.5529 -0.8701
20464SOL     OW62832   6.405   1.054  10.990  0.6094 -0.0264 -0.4410
20464SOL    HW162833   6.359   1.089  11.066  0.2568 -1.7665  0.1904
20464SOL    HW262834   6.336   1.045  10.923 -0.1172 -2.7624  0.5486
20465SOL     OW62835   6.949   0.517   9.504 -0.4813  0.4467  0.0977
20465SOL    HW162836   7.000   0.462   9.565  0.7844 -0.4557 -1.6773
20465SOL    HW262837   6.858   0.503   9.529 -0.0181 -0.0089  1.6654
20466SOL     OW62838   3.841   7.208   9.225 -0.0763  0.3828 -0.2476
20466SOL    HW162839   3.909   7.187   9.161  0.1948 -1.0759  0.4608
20466SOL    HW262840   3.877   7.178   9.309 -1.7776 -0.9916  0.0635
20467SOL     OW62841   1.306   7.260   3.497  0.5434 -0.0310  0.7597
20467SOL    HW162842   1.273   7.302   3.576 -3.4685 -1.0985 -0.1523
20467SOL    HW262843   1.357   7.328   3.453  0.5290  1.4528  2.8765
20468SOL     OW62844   5.002   5.893   7.241  0.2889 -0.2455  0.3256
20468SOL    HW162845   5.067   5.941   7.190 -0.7091 -0.8197 -1.5535
20468SOL    HW262846   5.004   5.805   7.205 -1.9715 -0.1117 -0.2347
20469SOL     OW62847   1.740   3.148  11.355  0.9088  0.3354  0.0011
20469SOL    HW162848   1.679   3.195  11.413 -0.7752  0.5106 -1.7995
20469SOL    HW262849   1.736   3.057  11.385  0.2470  0.4606  0.3133
20470SOL     OW62850   6.271   5.300   9.828 -0.5588 -0.3484  0.1777
20470SOL    HW162851   6.351   5.352   9.826  0.1733 -1.4510 -0.4900
20470SOL    HW262852   6.200   5.364   9.823  0.2752  0.6324  0.5128
20471SOL     OW62853   4.599   4.324   2.441 -0.3733 -0.3997  0.4769
20471SOL    HW162854   4.572   4.359   2.356  2.7687  0.8710 -0.1238
20471SOL    HW262855   4.606   4.229   2.427 -2.7304 -0.5953  0.2542
20472SOL     OW62856   1.074   7.752   7.634 -0.4678  0.0987  0.4636
20472SOL    HW162857   1.023   7.671   7.634 -0.5135  0.1261  0.0516
20472SOL    HW262858   1.144   7.736   7.698 -1.0487  0.1034  1.1141
20473SOL     OW62859   2.356   6.516  11.954 -0.4418 -0.0669 -0.2968
20473SOL    HW162860   2.342   6.611  11.958  1.4992  0.2380  1.2399
20473SOL    HW262861   2.450   6.506  11.965 -0.8573 -2.2287  2.7269
20474SOL     OW62862   1.110   3.465   4.704  0.0389 -0.4946  0.4050
20474SOL    HW162863   1.075   3.382   4.735  0.7023 -1.3639 -1.0678
20474SOL    HW262864   1.063   3.483   4.623  0.8596 -0.1205  0.0002
20475SOL     OW62865   0.951   1.091  10.110  0.0882  0.0234 -0.3269
20475SOL    HW162866   0.860   1.098  10.079  0.0729  0.0735 -0.2705
20475SOL    HW262867   0.962   0.998  10.130 -0.8026  0.4152  2.2905
20476SOL     OW62868   5.915   7.155  11.645 -0.6614  0.5003 -0.6681
20476SOL    HW162869   5.985   7.103  11.605 -0.0487  1.3434 -0.7100
20476SOL    HW262870   5.850   7.090  11.674  0.2778 -0.3117 -0.3530
20477SOL     OW62871   5.763   5.470   1.453 -0.1610  0.2651  0.2869
20477SOL    HW162872   5.776   5.461   1.359 -1.7663 -1.3707  0.1536
20477SOL    HW262873   5.798   5.556   1.475  2.3569 -0.2127 -1.3792
20478SOL     OW62874   0.430   3.955  10.082 -0.2078  0.1268  0.2085
20478SOL    HW162875   0.447   3.862  10.097  0.9189  0.5363  1.6407
20478SOL    HW262876   0.380   3.983  10.158 -1.4812  0.4932 -0.7195
20479SOL     OW62877   6.828   7.137  11.156 -0.0995  0.0388  0.1528
20479SOL    HW162878   6.815   7.117  11.249  1.6757  1.0112  0.6509
20479SOL    HW262879   6.741   7.160  11.125 -0.7725 -0.5072  1.5253
20480SOL     OW62880   1.722   4.861   2.433  0.4005  0.2700  0.3015
20480SOL    HW162881   1.750   4.872   2.343  0.9160 -1.2510  0.2322
20480SOL    HW262882   1.673   4.778   2.433 -1.2313  1.1945  1.0664
20481SOL     OW62883   1.412   3.720   8.446 -0.5095 -0.5480  0.0315
20481SOL    HW162884   1.421   3.664   8.369  1.1226 -0.2404 -0.0425
20481SOL    HW262885   1.449   3.804   8.418 -2.2237  0.3564  0.3725
20482SOL     OW62886   2.732   5.248  11.862  0.4862 -0.0828 -0.2543
20482SOL    HW162887   2.703   5.274  11.774 -1.2699  1.7247  0.7506
20482SOL    HW262888   2.827   5.261  11.861  0.3715  0.9308 -1.5904
20483SOL     OW62889   5.109   7.231   3.566  0.1047  0.0974 -0.1891
20483SOL    HW162890   5.123   7.257   3.475  0.1264  2.8445  0.5109
20483SOL    HW262891   5.131   7.137   3.568 -1.1408 -0.3878 -3.2316
20484SOL     OW62892   7.968   1.678   4.591 -0.6826 -0.2238  0.0928
20484SOL    HW162893   7.919   1.614   4.642  0.2321  0.1066  1.4693
20484SOL    HW262894   7.918   1.759   4.601 -1.1457 -0.4179 -0.5675
20485SOL     OW62895   2.548   3.983   8.893 -0.0815 -0.0455  0.3123
20485SOL    HW162896   2.617   4.029   8.845 -1.6334  2.0008 -0.0842
20485SOL    HW262897   2.567   3.890   8.880  2.5359  0.4459  0.1866
20486SOL     OW62898   5.819   5.784   5.976 -0.2327 -0.1380 -0.5518
20486SOL    HW162899   5.848   5.712   5.920  0.2556 -1.4080  1.2158
20486SOL    HW262900   5.732   5.807   5.943  0.4462 -0.1118 -2.4389
20487SOL     OW62901   2.145   5.927   2.668  0.4368 -0.2651 -0.2364
20487SOL    HW162902   2.112   5.870   2.599  0.5874 -0.5239 -0.0983
20487SOL    HW262903   2.080   5.921   2.738  1.3185 -1.6721  0.4979
20488SOL     OW62904   5.398   1.788   5.730 -0.2730  0.1830  0.4195
20488SOL    HW162905   5.479   1.821   5.690  0.1693  0.8006  1.7633
20488SOL    HW262906   5.335   1.859   5.720 -1.3060 -1.0032 -2.3542
20489SOL     OW62907   3.499   0.530   4.105  0.0059 -0.1005  0.0400
20489SOL    HW162908   3.468   0.591   4.038 -0.5705 -0.2285  0.1843
20489SOL    HW262909   3.419   0.495   4.145  0.3200 -1.2805 -0.3311
20490SOL     OW62910   0.740   5.509   3.310  0.1659 -0.0632 -0.0206
20490SOL    HW162911   0.777   5.498   3.223 -2.0041 -0.1212 -0.9868
20490SOL    HW262912   0.659   5.458   3.310 -0.5752  1.0006  1.5697
20491SOL     OW62913   2.490   3.338  10.027  0.9088  0.0044 -0.2928
20491SOL    HW162914   2.548   3.324   9.952  2.4906  1.6531  0.5562
20491SOL    HW262915   2.537   3.299  10.101 -0.6123 -1.5647 -0.0929
20492SOL     OW62916   5.503   2.335   2.810 -0.1994 -0.0983 -0.3173
20492SOL    HW162917   5.489   2.421   2.849  0.6868  0.2975 -0.8495
20492SOL    HW262918   5.415   2.300   2.798 -0.5395  0.2741  0.8975
20493SOL     OW62919   0.617   7.731   8.616  0.8632  0.2596  0.2247
20493SOL    HW162920   0.674   7.707   8.543  0.6724  1.5406 -0.3758
20493SOL    HW262921   0.588   7.647   8.652  2.5519 -0.4209  0.1144
20494SOL     OW62922   4.995   2.592   0.192 -0.6151  0.8048 -0.0066
20494SOL    HW162923   4.936   2.553   0.256  0.8960  1.5539  1.9343
20494SOL    HW262924   4.970   2.684   0.190 -0.6595  0.7845 -0.5311
20495SOL     OW62925   0.583   3.140   4.467  0.3000  0.2177 -0.2234
20495SOL    HW162926   0.510   3.081   4.448 -0.6252  1.5160 -0.9189
20495SOL    HW262927   0.644   3.128   4.395 -1.0293  1.7848 -1.7120
20496SOL     OW62928   0.447   0.581   1.691  0.3290 -0.2578  0.1645
20496SOL    HW162929   0.388   0.506   1.694 -0.6176  0.3537 -1.8212
20496SOL    HW262930   0.410   0.644   1.753 -0.3839 -0.3877 -0.1226
20497SOL     OW62931   3.111   6.457   3.139  0.1414  0.4639  0.5042
20497SOL    HW162932   3.151   6.433   3.222  1.1572  0.3859  0.0016
20497SOL    HW262933   3.120   6.552   3.133  1.2226  0.3398 -0.0830
20498SOL     OW62934   7.093   5.150  10.525  0.2792 -0.2825 -0.5320
20498SOL    HW162935   7.024   5.085  10.513  0.7357 -0.6654 -1.1272
20498SOL    HW262936   7.046   5.233  10.537 -0.2797 -0.4960 -1.1754
20499SOL     OW62937   2.638   6.332   9.822 -0.2187 -0.1987 -0.3043
20499SOL    HW162938   2.649   6.383   9.902 -1.6684 -0.3187  0.0062
20499SOL    HW262939   2.716   6.350   9.770  0.5282  0.2427  0.9370
20500SOL     OW62940   2.587   6.644   8.083 -0.2576 -0.0021 -0.1328
20500SOL    HW162941   2.496   6.664   8.058 -0.1799  0.2955 -0.1802
20500SOL    HW262942   2.626   6.608   8.003 -1.0767 -2.7489  0.5690
20501SOL     OW62943   1.192   0.296   7.379  0.1445  0.5167  0.1766
20501SOL    HW162944   1.151   0.297   7.292 -1.2755  1.9574  0.8230
20501SOL    HW262945   1.256   0.368   7.376  1.7530 -0.8503 -0.3633
20502SOL     OW62946   3.948   3.366   3.963  0.5014 -0.4345 -0.1923
20502SOL    HW162947   3.917   3.281   3.994 -1.6458  0.0816 -0.7525
20502SOL    HW262948   3.993   3.346   3.881  1.5479 -1.1915  0.5367
20503SOL     OW62949   7.645   4.345   9.098 -0.2503  0.2152  0.3412
20503SOL    HW162950   7.667   4.418   9.040  1.5059 -0.4872  0.0662
20503SOL    HW262951   7.632   4.386   9.184 -1.9425  1.1446 -0.2885
20504SOL     OW62952   3.605   0.967   9.699 -0.5050  0.8811  0.4385
20504SOL    HW162953   3.559   0.893   9.659  0.5986  0.3250  0.1690
20504SOL    HW262954   3.637   0.933   9.783 -2.8449  2.0507  1.9194
20505SOL     OW62955   0.247   6.553   0.720 -0.1762 -0.6934  0.0019
20505SOL    HW162956   0.157   6.578   0.743 -0.4077 -1.7520  0.3149
20505SOL    HW262957   0.239   6.464   0.685  1.1469 -2.3324  3.4499
20506SOL     OW62958   2.571   2.537   8.995  0.2533 -0.1062  0.5128
20506SOL    HW162959   2.559   2.443   9.003  0.1421 -0.2444 -0.9623
20506SOL    HW262960   2.661   2.553   9.023 -0.0463 -0.5009  1.7371
20507SOL     OW62961   5.296   2.922   2.512  0.4982  0.4797 -0.3669
20507SOL    HW162962   5.291   3.014   2.538 -0.5290  0.1799  0.5282
20507SOL    HW262963   5.218   2.908   2.459  0.1196 -0.1286  0.3365
20508SOL     OW62964   1.061   6.187   4.353 -0.5975 -0.1293 -0.5903
20508SOL    HW162965   1.074   6.280   4.374 -3.2507  0.2594 -0.4004
20508SOL    HW262966   1.065   6.184   4.257 -1.7307  0.4285 -0.6719
20509SOL     OW62967   1.198   4.075  12.078  0.2303  0.1495 -0.1799
20509SOL    HW162968   1.279   4.058  12.031  0.3677  0.2827  0.0060
20509SOL    HW262969   1.176   3.992  12.120 -0.2487 -0.1498 -1.0208
20510SOL     OW62970   3.895   6.940  11.144  0.9582  0.6825 -0.3565
20510SOL    HW162971   3.886   7.034  11.161  1.4121  0.7202 -0.3006
20510SOL    HW262972   3.990   6.927  11.134  0.8187  0.4507 -1.6316
20511SOL     OW62973   3.012   7.882   5.170 -0.0999  0.1696 -0.0873
20511SOL    HW162974   2.943   7.934   5.211 -0.6534 -1.2432  0.8644
20511SOL    HW262975   3.018   7.804   5.225  1.1153 -0.4942 -1.1221
20512SOL     OW62976   6.757   1.992   0.395  0.6139  0.5042  0.4890
20512SOL    HW162977   6.747   1.957   0.306 -0.4585 -2.3147  1.6265
20512SOL    HW262978   6.822   1.935   0.436 -1.3984 -0.4364  2.5216
20513SOL     OW62979   4.846   0.036   7.367 -0.0376  1.2184 -0.4189
20513SOL    HW162980   4.751   0.039   7.379 -0.0097  1.7302 -0.2931
20513SOL    HW262981   4.880   0.023   7.456 -0.0573 -0.9904 -0.6853
20514SOL     OW62982   0.526   7.873   1.413  0.1727 -0.2632  0.1109
20514SOL    HW162983   0.584   7.919   1.354  2.2618  0.1449  2.3323
20514SOL    HW262984   0.575   7.796   1.442 -0.7665 -0.4731  1.2744
20515SOL     OW62985   3.321   7.530   6.891 -0.0499 -0.1502  0.0044
20515SOL    HW162986   3.277   7.477   6.957  3.9456 -2.5219  1.1646
20515SOL    HW262987   3.384   7.583   6.941  0.1481  1.2443 -1.6236
20516SOL     OW62988   3.056   0.754  12.316 -0.5989 -0.0810  0.1584
20516SOL    HW162989   3.008   0.802  12.385 -0.6674 -0.6314  0.4986
20516SOL    HW262990   3.141   0.797  12.313 -1.0104  0.7408 -0.2702
20517SOL     OW62991   6.441   5.841   3.987  0.2349  0.2077 -0.3525
20517SOL    HW162992   6.468   5.931   3.970  0.0455  0.5481  1.0691
20517SOL    HW262993   6.510   5.805   4.042 -0.1520 -0.2203 -0.1385
20518SOL     OW62994   6.333   7.364   1.889  0.4510  0.2281 -0.0054
20518SOL    HW162995   6.352   7.447   1.933  1.1526  1.2858 -2.1531
20518SOL    HW262996   6.267   7.322   1.944  1.3302  1.3837  2.0578
20519SOL     OW62997   6.700   7.685  12.365  0.3620 -0.4034  0.0332
20519SOL    HW162998   6.734   7.609  12.318  2.4722  1.5218 -1.8038
20519SOL    HW262999   6.607   7.689  12.342  0.1894 -2.4248  0.2501
20520SOL     OW63000   3.830   4.333   2.956 -0.0986  0.5127  0.8310
20520SOL    HW163001   3.876   4.267   3.008  1.0787  0.6625  0.0101
20520SOL    HW263002   3.765   4.283   2.906  0.9712 -0.0900  0.0034
20521SOL     OW63003   0.214   6.076   1.559  0.0109 -0.0375 -0.9215
20521SOL    HW163004   0.188   6.000   1.508  0.4224  0.0448 -1.2579
20521SOL    HW263005   0.300   6.101   1.524  0.0356  0.3697 -0.5841
20522SOL     OW63006   6.580   7.808   4.242 -0.2355 -0.6049 -0.0157
20522SOL    HW163007   6.612   7.718   4.250 -0.7210 -0.7867 -0.1061
20522SOL    HW263008   6.642   7.850   4.182 -0.4587 -1.1030 -0.6068
20523SOL     OW63009   7.309   1.779  10.880 -0.2652  0.3922  0.1874
20523SOL    HW163010   7.396   1.811  10.858 -0.7223  1.6343  0.1541
20523SOL    HW263011   7.325   1.707  10.942  0.7597  0.8237  0.4429
20524SOL     OW63012   6.337   6.109   4.851 -0.4389 -0.2103  0.3133
20524SOL    HW163013   6.417   6.061   4.871 -0.4565 -0.8817 -1.1079
20524SOL    HW263014   6.270   6.067   4.905 -0.5811 -2.2594 -1.3406
20525SOL     OW63015   4.471   3.650   7.513  0.1964 -0.2791  0.4279
20525SOL    HW163016   4.439   3.607   7.593  0.2277 -0.7758  0.1745
20525SOL    HW263017   4.398   3.644   7.452  0.4247 -0.5446  0.1770
20526SOL     OW63018   5.982   5.502   1.201  0.3685 -0.6051  0.2489
20526SOL    HW163019   5.978   5.406   1.201 -1.8675 -0.5568 -0.0849
20526SOL    HW263020   5.986   5.526   1.109 -2.9545 -0.3668  0.0498
20527SOL     OW63021   6.491   6.263   2.122 -0.4190  0.0911  0.5514
20527SOL    HW163022   6.435   6.222   2.189 -0.8514 -0.9682 -0.4283
20527SOL    HW263023   6.457   6.352   2.115  0.3233  0.5809  2.4930
20528SOL     OW63024   2.482   2.684   5.371  0.1847  0.2189 -0.0721
20528SOL    HW163025   2.399   2.685   5.420  0.0356  2.2626 -0.2530
20528SOL    HW263026   2.461   2.639   5.290 -0.1781 -1.1268  0.7322
20529SOL     OW63027   7.623   5.204   1.625  0.2575 -0.1600 -0.2720
20529SOL    HW163028   7.633   5.182   1.717  0.6462  0.2921 -0.2013
20529SOL    HW263029   7.654   5.127   1.578  1.2976  0.0973 -0.0279
20530SOL     OW63030   7.641   1.035  11.485 -0.0282 -0.6334 -0.5807
20530SOL    HW163031   7.668   0.973  11.417  3.1473  1.8509 -1.8167
20530SOL    HW263032   7.590   1.101  11.438  0.4353  0.0389 -0.1467
20531SOL     OW63033   7.036   6.583   2.653  0.3421 -0.5933  0.4054
20531SOL    HW163034   7.120   6.606   2.613  0.1878  1.5250  1.1757
20531SOL    HW263035   6.987   6.664   2.654 -1.4032 -1.6089  0.7862
20532SOL     OW63036   7.864   4.610   1.212 -0.0953 -0.0214  0.0660
20532SOL    HW163037   7.880   4.605   1.118  0.9611  0.5960  0.2098
20532SOL    HW263038   7.773   4.579   1.222 -0.4948  0.6752 -1.2333
20533SOL     OW63039   0.836   2.719   3.009 -0.1558  0.2679 -0.1475
20533SOL    HW163040   0.761   2.728   2.950  0.6529 -0.2939 -1.2934
20533SOL    HW263041   0.882   2.641   2.978 -1.2132 -1.7908  2.9660
20534SOL     OW63042   5.784   7.108   2.338 -0.2135 -0.0270  0.4359
20534SOL    HW163043   5.766   7.138   2.249  2.0757  0.2311  0.0108
20534SOL    HW263044   5.705   7.059   2.363 -0.0475 -2.1422 -2.6142
20535SOL     OW63045   2.086   5.815   7.429 -0.8573 -0.0153 -0.3802
20535SOL    HW163046   2.155   5.869   7.466 -0.1825  0.7682 -2.6005
20535SOL    HW263047   2.114   5.725   7.444  0.1001  0.2933 -0.3051
20536SOL     OW63048   4.394   6.293  10.151 -0.1675 -0.2241 -0.2696
20536SOL    HW163049   4.437   6.366  10.106 -0.7411 -0.1281 -0.6691
20536SOL    HW263050   4.461   6.259  10.211  0.2944  0.2511 -0.5088
20537SOL     OW63051   0.922   1.485   3.720  0.4356  0.3443  0.0114
20537SOL    HW163052   0.904   1.496   3.627  0.5401  0.3104 -0.0132
20537SOL    HW263053   0.882   1.562   3.761 -1.8416 -0.8934  0.2439
20538SOL     OW63054   0.730   4.344  11.317 -0.5444 -0.0638  0.0891
20538SOL    HW163055   0.730   4.251  11.295 -1.0354 -0.1121  0.2914
20538SOL    HW263056   0.754   4.347  11.409 -0.6318  0.0059  0.1099
20539SOL     OW63057   3.299   4.775   4.989  0.1643 -0.8861  0.0898
20539SOL    HW163058   3.241   4.835   4.941  0.9021  0.9953  1.4315
20539SOL    HW263059   3.365   4.750   4.924  0.4751  0.6655 -0.2335
20540SOL     OW63060   1.191   7.967  12.330  0.5528 -0.0197  0.1966
20540SOL    HW163061   1.146   7.943  12.249  0.2410 -0.3055  0.4510
20540SOL    HW263062   1.136   8.036  12.369  1.3937  1.0758 -0.4849
20541SOL     OW63063   1.540   7.298   4.788 -0.1493  0.0102 -0.6100
20541SOL    HW163064   1.598   7.231   4.824 -1.3879 -0.0836  1.3542
20541SOL    HW263065   1.454   7.254   4.781 -0.6866  1.0181 -0.4934
20542SOL     OW63066   1.409   2.119  10.395  0.2088  0.2724  0.2688
20542SOL    HW163067   1.332   2.125  10.451 -0.8534  0.8540 -1.2007
20542SOL    HW263068   1.405   2.031  10.357  1.1701 -0.2875  1.3905
20543SOL     OW63069   3.405   0.189  11.751  0.1819 -0.3224 -0.4342
20543SOL    HW163070   3.447   0.199  11.836 -0.0058 -2.2368 -0.0598
20543SOL    HW263071   3.380   0.278  11.725  0.1563  0.2831  1.5364
20544SOL     OW63072   5.274   6.403   6.619  0.6893 -0.2846 -0.0566
20544SOL    HW163073   5.336   6.336   6.589 -0.6398 -1.8324  0.5471
20544SOL    HW263074   5.310   6.485   6.584  3.4881 -0.9873  0.8937
20545SOL     OW63075   1.824   6.422   9.169 -0.0250  0.3511 -0.0705
20545SOL    HW163076   1.760   6.489   9.146  0.5798  0.7278 -0.6629
20545SOL    HW263077   1.840   6.436   9.262 -2.4655 -1.1749  0.6902
20546SOL     OW63078   4.880   5.933   1.032 -0.1751  0.2051  0.3759
20546SOL    HW163079   4.960   5.896   1.070  0.7337  1.7422  0.0435
20546SOL    HW263080   4.901   5.945   0.940 -1.9502 -2.3795 -0.4728
20547SOL     OW63081   3.217   0.884   5.412 -0.3309  0.7628 -0.3199
20547SOL    HW163082   3.214   0.961   5.356 -1.0220  1.0221  0.0609
20547SOL    HW263083   3.290   0.900   5.472 -0.7936  1.3650  0.0920
20548SOL     OW63084   1.097   4.339  12.032 -0.2047  0.0884  0.2263
20548SOL    HW163085   1.084   4.395  12.108 -1.8571 -0.2557  0.2363
20548SOL    HW263086   1.116   4.252  12.069 -3.4595 -0.6604  0.3690
20549SOL     OW63087   0.785   7.940   9.339 -0.5593 -0.3410 -0.5494
20549SOL    HW163088   0.808   7.950   9.246 -0.3369  0.2496 -0.4389
20549SOL    HW263089   0.866   7.960   9.386 -0.9866  0.6324 -0.1933
20550SOL     OW63090   2.149   5.621   9.441  0.1272 -0.4489  0.4421
20550SOL    HW163091   2.119   5.608   9.351  0.9220  1.1364 -0.1002
20550SOL    HW263092   2.244   5.609   9.436  0.0913 -1.1112  1.2362
20551SOL     OW63093   5.011   0.895  11.858  0.3678  0.4317  0.1402
20551SOL    HW163094   5.075   0.826  11.840  0.0020  0.2532 -0.4936
20551SOL    HW263095   4.928   0.861  11.825 -0.2193  0.3477  1.6499
20552SOL     OW63096   1.541   3.353   2.049 -0.2385 -0.0897  0.7672
20552SOL    HW163097   1.537   3.415   2.121 -1.2746 -0.8959  1.4153
20552SOL    HW263098   1.482   3.282   2.073  1.3542 -1.6583  0.3341
20553SOL     OW63099   0.258   1.694  11.709 -0.4327  0.4392 -0.5333
20553SOL    HW163100   0.262   1.693  11.613  2.1810  0.4607 -0.5056
20553SOL    HW263101   0.272   1.786  11.733  0.6978  0.1770 -0.1354
20554SOL     OW63102   1.659   4.699   7.018  0.1836  0.2567  0.6363
20554SOL    HW163103   1.695   4.656   6.941 -1.3711 -1.0216  0.5733
20554SOL    HW263104   1.618   4.628   7.068 -0.7519  1.3890  1.5230
20555SOL     OW63105   5.844   6.310   4.290 -0.3229 -0.1031 -0.0314
20555SOL    HW163106   5.754   6.342   4.295 -0.9280 -1.7519  0.3922
20555SOL    HW263107   5.897   6.389   4.276 -1.7978  0.9258 -0.0722
20556SOL     OW63108   5.438   7.384  12.089  0.1938  0.2791 -0.3144
20556SOL    HW163109   5.366   7.437  12.122  1.0292  3.3343 -2.8568
20556SOL    HW263110   5.400   7.335  12.015  0.3509  0.6749 -0.6615
20557SOL     OW63111   6.832   2.735   3.432 -1.0023 -0.3680  0.1781
20557SOL    HW163112   6.857   2.664   3.374 -2.0366  0.0555 -0.8301
20557SOL    HW263113   6.833   2.813   3.376 -0.4490  0.3217  1.1214
20558SOL     OW63114   0.048   4.771   6.948  0.7037  0.6493 -0.2694
20558SOL    HW163115   0.110   4.805   7.014  0.7507  0.4972 -0.2354
20558SOL    HW263116  -0.006   4.708   6.996 -0.3656  1.7489  0.0336
20559SOL     OW63117   2.204   5.540  12.081  0.0256  0.2777 -0.4279
20559SOL    HW163118   2.143   5.569  12.149 -0.9926 -0.3494 -1.0456
20559SOL    HW263119   2.170   5.454  12.054  2.4231 -1.1532  0.7167
20560SOL     OW63120   4.106   5.928   7.657  0.3537 -0.2298  0.0095
20560SOL    HW163121   4.068   5.994   7.715  0.9007  0.4075 -0.3496
20560SOL    HW263122   4.049   5.927   7.580  0.0937 -0.5005  0.2008
20561SOL     OW63123   3.830   6.852   0.971 -0.2362  0.5309  0.3124
20561SOL    HW163124   3.836   6.792   1.045  1.1559  1.9884  1.4640
20561SOL    HW263125   3.745   6.834   0.932 -0.8338 -0.5748  2.0288
20562SOL     OW63126   7.246   2.949  12.099  0.3132 -0.1009  0.2080
20562SOL    HW163127   7.273   3.009  12.168 -2.4832  1.6341 -0.0446
20562SOL    HW263128   7.230   3.005  12.023  0.0934 -1.5295 -0.8384
20563SOL     OW63129   4.784   4.700   0.264  0.3158 -0.2163 -0.0200
20563SOL    HW163130   4.859   4.666   0.314  0.9400  1.2081  0.0858
20563SOL    HW263131   4.718   4.632   0.271  0.5118 -0.2538  2.4700
20564SOL     OW63132   2.599   5.054   8.741 -0.1201 -0.1638 -0.0280
20564SOL    HW163133   2.683   5.017   8.715  1.7769  1.6455  2.9445
20564SOL    HW263134   2.577   5.116   8.671  0.7368 -1.0105 -1.0763
20565SOL     OW63135   0.415   7.021  10.632  0.2540  0.1451  0.0902
20565SOL    HW163136   0.389   7.079  10.560  0.4709  0.0134 -0.0953
20565SOL    HW263137   0.434   6.937  10.590  1.2094  0.3003  0.1873
20566SOL     OW63138   3.936   4.139  10.791  0.2151  0.1752  0.5520
20566SOL    HW163139   3.912   4.173  10.705  0.7191 -0.8831 -0.0323
20566SOL    HW263140   4.016   4.185  10.815  0.5539 -0.1426  0.0481
20567SOL     OW63141   3.198   6.789   7.870  0.0125  0.2086 -0.2363
20567SOL    HW163142   3.122   6.750   7.914  0.7795 -0.8918  0.1515
20567SOL    HW263143   3.224   6.861   7.928  0.0218 -0.1977  0.2750
20568SOL     OW63144   2.470   5.066   3.894 -0.4917  0.0327 -0.0880
20568SOL    HW163145   2.448   5.136   3.833 -1.1267  0.8442  1.0389
20568SOL    HW263146   2.505   4.996   3.839 -0.4356  0.9869 -1.3012
20569SOL     OW63147   2.778   5.876   1.532 -0.2234 -0.3571  0.1011
20569SOL    HW163148   2.865   5.912   1.553  0.1533 -1.1672 -0.0426
20569SOL    HW263149   2.797   5.796   1.483 -1.0680 -0.0275 -0.7894
20570SOL     OW63150   4.839   3.015   8.656  0.0512  0.0726 -0.1404
20570SOL    HW163151   4.892   2.961   8.715 -1.7586 -1.5369  0.1106
20570SOL    HW263152   4.814   3.090   8.710  1.7657  0.6981 -0.1698
20571SOL     OW63153   1.100   7.500   4.183  0.1643 -0.3847 -0.5187
20571SOL    HW163154   1.174   7.502   4.244  0.7386 -1.3840 -1.1454
20571SOL    HW263155   1.102   7.411   4.146 -0.4439  0.0450 -1.6315
20572SOL     OW63156   3.534   4.485  12.008  0.3458 -0.0508 -0.4309
20572SOL    HW163157   3.458   4.535  11.978  1.0597  2.4500  1.5191
20572SOL    HW263158   3.605   4.511  11.949 -0.1112 -1.9889 -1.9285
20573SOL     OW63159   4.860   7.721   9.695 -0.2295 -0.0587 -0.0181
20573SOL    HW163160   4.813   7.791   9.739  1.7664  0.0752  2.1081
20573SOL    HW263161   4.834   7.642   9.741  2.2791  0.1462  1.9588
20574SOL     OW63162   6.972   6.955  10.809  0.5029  0.3122 -0.1646
20574SOL    HW163163   7.040   6.979  10.746  0.3747 -0.4196 -0.5886
20574SOL    HW263164   6.893   7.001  10.778  0.3716 -0.2726 -0.7042
20575SOL     OW63165   1.676   4.478  11.793 -0.5801  0.0632  0.0480
20575SOL    HW163166   1.726   4.555  11.767  0.4760 -0.4084  0.6368
20575SOL    HW263167   1.649   4.496  11.883  0.3822 -0.5926  0.4805
20576SOL     OW63168   1.374   1.076  11.181 -0.1104  0.5221 -0.6378
20576SOL    HW163169   1.410   1.162  11.205  2.0777 -0.4449 -0.1802
20576SOL    HW263170   1.322   1.050  11.257 -1.0045  1.5287 -0.8866
20577SOL     OW63171   3.238   3.409   4.313 -0.5531 -0.4021  0.0345
20577SOL    HW163172   3.236   3.315   4.330 -2.2497  0.0681  3.1980
20577SOL    HW263173   3.164   3.425   4.255  0.8160 -1.1385 -2.0416
20578SOL     OW63174   1.744   5.157  11.324 -0.0051 -0.0926  0.1061
20578SOL    HW163175   1.770   5.197  11.241  2.0541 -0.9044  0.3020
20578SOL    HW263176   1.767   5.222  11.390 -0.2011 -0.0698  0.1517
20579SOL     OW63177   2.796   6.502   6.992  0.1148  0.1532  0.2910
20579SOL    HW163178   2.870   6.446   7.015 -1.2264 -1.6216  0.5520
20579SOL    HW263179   2.761   6.462   6.912 -0.6539  0.8642  0.2660
20580SOL     OW63180   1.145   4.307   7.576  0.5405 -0.1817 -0.0959
20580SOL    HW163181   1.123   4.248   7.648 -1.3606  1.3296  0.6148
20580SOL    HW263182   1.108   4.265   7.498 -2.1164  0.6893  0.6100
20581SOL     OW63183   2.194   3.209  12.149  0.7066 -0.4338 -0.2101
20581SOL    HW163184   2.255   3.201  12.076 -0.2349 -1.2370 -0.9508
20581SOL    HW263185   2.130   3.139  12.134  0.0736 -0.1431  0.9855
20582SOL     OW63186   6.510   0.189   9.628 -0.5313  0.0130  0.5342
20582SOL    HW163187   6.510   0.206   9.534 -1.6959  1.1215  0.7152
20582SOL    HW263188   6.418   0.173   9.650 -0.7786  2.7939  1.9662
20583SOL     OW63189   3.175   1.548  11.273 -0.1090 -0.3434  0.1990
20583SOL    HW163190   3.126   1.593  11.341 -1.0623 -0.0368 -0.6723
20583SOL    HW263191   3.264   1.542  11.308 -0.6247 -0.4081  1.5596
20584SOL     OW63192   5.469   0.111  11.503  0.0408  0.1573 -0.0495
20584SOL    HW163193   5.394   0.087  11.557  0.1466 -0.2477 -0.0791
20584SOL    HW263194   5.545   0.075  11.549  0.3099  1.2417  0.3872
20585SOL     OW63195   6.225   6.531  11.465  0.2680  0.4802  0.0563
20585SOL    HW163196   6.172   6.532  11.545 -0.6446  0.4873 -0.5366
20585SOL    HW263197   6.161   6.533  11.394  0.8366 -3.0206 -0.7599
20586SOL     OW63198   3.817   2.507   8.320  0.0357  0.1610 -0.1544
20586SOL    HW163199   3.871   2.536   8.247 -0.4019  1.9973  0.2107
20586SOL    HW263200   3.879   2.483   8.388  0.4423 -1.3551 -1.0080
20587SOL     OW63201   7.737   5.538  11.492  0.2548 -0.4000  0.3045
20587SOL    HW163202   7.814   5.579  11.453  0.1229 -0.5700 -0.1478
20587SOL    HW263203   7.728   5.579  11.578  1.4035 -1.0577  0.7639
20588SOL     OW63204   6.638   3.599  12.152  0.4836 -0.6568 -0.0984
20588SOL    HW163205   6.640   3.521  12.207  2.5235 -0.0819  0.7339
20588SOL    HW263206   6.685   3.573  12.072 -1.2861 -1.0744 -1.0588
20589SOL     OW63207   1.301   3.504   7.855 -0.2877  0.0204 -0.0864
20589SOL    HW163208   1.258   3.551   7.926  1.4321  0.1821  0.9025
20589SOL    HW263209   1.279   3.554   7.776  0.0231  1.4739  0.7081
20590SOL     OW63210   4.511   5.982   2.883  0.3541  0.8814 -0.5444
20590SOL    HW163211   4.501   5.998   2.977  0.0054 -0.6190 -0.3123
20590SOL    HW263212   4.591   5.930   2.875  0.0552  0.4801 -1.0147
20591SOL     OW63213   5.878   6.409  10.353  0.2511 -0.2442  0.7499
20591SOL    HW163214   5.811   6.391  10.420 -0.3672 -0.5420  0.0643
20591SOL    HW263215   5.843   6.484  10.304 -0.9161 -2.0139 -1.3062
20592SOL     OW63216   5.517   5.876   4.356 -0.5692 -0.0888 -0.0364
20592SOL    HW163217   5.543   5.786   4.377  1.6715  0.6783  0.8149
20592SOL    HW263218   5.510   5.878   4.261 -0.9602 -1.2213 -0.0396
20593SOL     OW63219   5.987   0.002   4.023 -0.7931 -0.1477 -0.0639
20593SOL    HW163220   5.952  -0.087   4.015 -0.4048 -0.2427 -0.8248
20593SOL    HW263221   5.927   0.046   4.082 -1.9582 -0.4330 -0.9886
20594SOL     OW63222   1.170   5.076  10.044 -0.3376  0.3173  0.2974
20594SOL    HW163223   1.103   5.099   9.980 -1.2354 -0.9956  0.7368
20594SOL    HW263224   1.203   5.161  10.075  0.1109  0.9859 -1.8533
20595SOL     OW63225   2.445   4.663   1.148  0.0463 -0.1590  0.2694
20595SOL    HW163226   2.394   4.594   1.106  0.4910  0.9990 -2.3290
20595SOL    HW263227   2.379   4.714   1.196 -0.8365 -0.3187 -0.7278
20596SOL     OW63228   3.504   7.743   2.923 -0.3289 -0.4918 -0.4068
20596SOL    HW163229   3.591   7.765   2.890 -1.2917 -0.5756 -3.3256
20596SOL    HW263230   3.485   7.811   2.987  1.2371  0.5107 -0.9362
20597SOL     OW63231   6.586   4.434   2.571  0.1023 -0.3104 -0.4022
20597SOL    HW163232   6.576   4.464   2.662  1.6063 -0.4400 -0.1724
20597SOL    HW263233   6.497   4.437   2.536 -0.5695 -0.5612  1.1619
20598SOL     OW63234   1.916   4.718  10.767  0.1044 -0.1197 -0.3080
20598SOL    HW163235   1.881   4.700  10.679 -1.0130 -0.0633  0.1052
20598SOL    HW263236   2.000   4.672  10.769 -0.4228 -1.1710 -0.9741
20599SOL     OW63237   2.889   1.725   2.663  0.2036  0.2669 -0.1702
20599SOL    HW163238   2.930   1.810   2.678  0.8264  0.2154 -1.5227
20599SOL    HW263239   2.796   1.741   2.678  0.4694  0.8279  1.0409
20600SOL     OW63240   3.846   7.756   3.827 -0.1482  0.0064  0.1333
20600SOL    HW163241   3.830   7.754   3.921  1.8805 -0.2696  0.5008
20600SOL    HW263242   3.859   7.849   3.807  0.7921 -0.0634  0.3899
20601SOL     OW63243   5.339   4.100   8.161 -0.0246  0.5813 -0.1221
20601SOL    HW163244   5.349   4.134   8.250 -0.7990  1.9424 -0.5309
20601SOL    HW263245   5.294   4.017   8.172  1.0582  0.0896  0.8380
20602SOL     OW63246   4.822   1.789  11.122 -0.5110 -0.3227  0.3884
20602SOL    HW163247   4.917   1.774  11.122 -0.3426  0.6670 -0.0555
20602SOL    HW263248   4.810   1.866  11.066 -1.6337 -0.7693 -0.0172
20603SOL     OW63249   7.880   7.958   3.733 -0.7096  0.6543  0.5087
20603SOL    HW163250   7.806   7.976   3.675 -0.4150  1.4408  0.3614
20603SOL    HW263251   7.874   7.864   3.752 -1.3877  0.5924  0.0137
20604SOL     OW63252   3.897   6.122   7.660 -0.2181  0.0128  0.0075
20604SOL    HW163253   3.944   6.198   7.625 -0.1512 -0.6534 -1.4227
20604SOL    HW263254   3.808   6.152   7.673  0.3440  1.0120  1.7972
20605SOL     OW63255   1.728   3.322  10.854  0.1474 -0.2285  0.2655
20605SOL    HW163256   1.766   3.265  10.921  1.4057  1.2419  0.8827
20605SOL    HW263257   1.658   3.368  10.900 -0.5320 -0.8870 -0.0931
20606SOL     OW63258   7.019   1.843   4.627  0.4584 -0.4776 -0.3596
20606SOL    HW163259   7.084   1.863   4.695 -0.0721 -0.9934  0.3186
20606SOL    HW263260   6.978   1.762   4.656  0.7267 -1.1164 -1.6977
20607SOL     OW63261   2.508   1.044   9.013  0.8959 -0.0620 -0.1203
20607SOL    HW163262   2.552   1.085   9.088  1.3769  1.0896 -1.0038
20607SOL    HW263263   2.445   1.110   8.983 -1.4352 -1.6193  1.0362
20608SOL     OW63264   2.370   3.017   9.348 -0.0583 -0.0836 -0.0004
20608SOL    HW163265   2.412   3.022   9.434  1.4956  1.6171 -0.7893
20608SOL    HW263266   2.416   2.947   9.303 -0.8130 -0.9151  0.4778
20609SOL     OW63267   2.377   7.315   3.013  0.2041  0.0244  0.4758
20609SOL    HW163268   2.452   7.261   3.038 -0.4080 -0.7562  0.6784
20609SOL    HW263269   2.357   7.289   2.923 -1.0804 -1.2886  1.0981
20610SOL     OW63270   2.438   4.959   6.653  0.5123 -0.5189  0.3859
20610SOL    HW163271   2.356   4.942   6.700 -0.0734 -0.5212 -0.6037
20610SOL    HW263272   2.433   4.904   6.575 -0.3240  2.2588 -1.6675
20611SOL     OW63273   1.946   6.581   8.600  0.0265 -0.3824 -0.2319
20611SOL    HW163274   2.003   6.510   8.632 -0.6630  0.0874  2.3172
20611SOL    HW263275   1.860   6.560   8.637 -0.5529  0.9329 -0.7842
20612SOL     OW63276   2.029   5.047   4.753 -0.4437 -0.0680 -0.4556
20612SOL    HW163277   2.070   4.974   4.707 -2.5506 -0.3174 -2.0853
20612SOL    HW263278   2.050   5.124   4.699  2.6280  0.8479  1.7780
20613SOL     OW63279   6.297   6.430   5.410 -0.5863  0.0479  0.1521
20613SOL    HW163280   6.263   6.383   5.486  0.9037 -1.0314  0.1926
20613SOL    HW263281   6.279   6.372   5.336  0.2657 -0.0928  0.0465
20614SOL     OW63282   7.561   7.687   5.470 -0.2795  0.4671  0.4344
20614SOL    HW163283   7.542   7.756   5.406  1.6825  1.1944  0.5566
20614SOL    HW263284   7.640   7.717   5.514  0.4061 -1.6910  0.7749
20615SOL     OW63285   2.303   4.153  11.433  0.4138  0.0148  0.3814
20615SOL    HW163286   2.369   4.181  11.370 -0.6646  0.2798 -0.6873
20615SOL    HW263287   2.294   4.226  11.493  1.5780 -0.3054  0.9726
20616SOL     OW63288   5.113   6.947  11.068  0.6798 -0.2022  0.7797
20616SOL    HW163289   5.209   6.944  11.078  0.8769 -2.2194 -0.9904
20616SOL    HW263290   5.090   7.039  11.083  2.7391  0.1425  2.3028
20617SOL     OW63291   2.247   6.125   5.930 -0.5427  0.8010  0.4823
20617SOL    HW163292   2.182   6.139   5.861 -0.4026 -1.9006 -0.3355
20617SOL    HW263293   2.236   6.032   5.953  1.0749  1.0325  2.3881
20618SOL     OW63294   7.282   7.882   5.677 -0.3600 -0.1782 -0.0925
20618SOL    HW163295   7.205   7.939   5.675 -1.3630 -1.4101  0.9723
20618SOL    HW263296   7.357   7.941   5.677 -1.2647  1.0601 -1.5936
20619SOL     OW63297   5.666   0.604  10.247  0.2185 -0.1109 -0.0586
20619SOL    HW163298   5.661   0.697  10.269 -0.6548 -0.2810  0.5062
20619SOL    HW263299   5.723   0.601  10.170 -0.6389  1.0074 -0.7725
20620SOL     OW63300   2.986   5.919   2.157  0.5244 -0.0870 -0.4893
20620SOL    HW163301   3.069   5.943   2.116  0.8379  1.5963  1.0206
20620SOL    HW263302   3.010   5.873   2.237 -0.0236 -0.4536 -0.5242
20621SOL     OW63303   0.657   7.688   2.386  0.3905 -0.2594 -0.6948
20621SOL    HW163304   0.734   7.744   2.398  1.1614 -1.3263 -0.5908
20621SOL    HW263305   0.655   7.633   2.464 -1.2329  0.6106 -0.0703
20622SOL     OW63306   6.567   3.735   8.832  0.6923 -0.1674 -0.0440
20622SOL    HW163307   6.561   3.785   8.913 -0.9436  0.2187 -0.3578
20622SOL    HW263308   6.613   3.654   8.857 -0.1389 -0.2408  1.3673
20623SOL     OW63309   3.606   1.749   3.003  0.2986 -0.3656  0.2551
20623SOL    HW163310   3.576   1.713   2.919 -0.4777 -0.2471  0.4698
20623SOL    HW263311   3.701   1.757   2.993  0.6621 -3.3555  0.5427
20624SOL     OW63312   5.486   2.376  11.491 -0.3949 -0.3411  0.2631
20624SOL    HW163313   5.512   2.355  11.581  3.0852 -0.8080 -0.7069
20624SOL    HW263314   5.489   2.471  11.487  0.6959 -0.3651  0.3364
20625SOL     OW63315   2.872   2.140  10.017 -0.2534  0.0832 -0.5022
20625SOL    HW163316   2.797   2.082  10.003  0.4475 -0.8580 -0.4862
20625SOL    HW263317   2.844   2.224   9.982 -1.7495  0.0689  0.5848
20626SOL     OW63318   1.771   3.971   8.271  0.1273  0.3723  0.4753
20626SOL    HW163319   1.829   3.998   8.342 -0.8576 -0.5745  1.6964
20626SOL    HW263320   1.704   4.040   8.269  0.9290  1.1554 -0.5385
20627SOL     OW63321   3.575   5.737   6.219 -0.4254  0.6116  0.0061
20627SOL    HW163322   3.482   5.719   6.206 -0.9590  2.4514  0.9820
20627SOL    HW263323   3.577   5.813   6.276  1.6838  1.3214 -0.9143
20628SOL     OW63324   2.623   2.615   6.023  0.5377  0.0385  0.2624
20628SOL    HW163325   2.624   2.660   6.107 -2.8675 -0.0923  0.4981
20628SOL    HW263326   2.664   2.530   6.041  0.5437  0.3005  1.5976
20629SOL     OW63327   4.109   6.013  12.419 -0.0801  0.1089  0.4400
20629SOL    HW163328   4.169   6.081  12.389  0.6835 -0.6579  0.2162
20629SOL    HW263329   4.030   6.025  12.365  0.2667  0.4536  0.0064
20630SOL     OW63330   2.740   0.549   9.833 -0.6644 -0.3908 -0.4391
20630SOL    HW163331   2.707   0.459   9.842  1.2710 -0.9915  2.0559
20630SOL    HW263332   2.682   0.601   9.888  0.2145 -0.8036  0.9522
20631SOL     OW63333   4.044   5.557  12.322 -0.1617 -0.6355 -0.1721
20631SOL    HW163334   3.986   5.484  12.342 -0.6680 -0.6666 -1.6266
20631SOL    HW263335   4.090   5.530  12.243  0.0717  0.3849 -0.3999
20632SOL     OW63336   0.738   6.369   4.837 -0.0570 -0.1223  0.1272
20632SOL    HW163337   0.721   6.277   4.860  0.6406 -0.6406 -1.3421
20632SOL    HW263338   0.813   6.394   4.891  0.4435 -0.7586 -0.2665
20633SOL     OW63339   2.940   4.543   2.390 -0.1700  0.1720 -0.1575
20633SOL    HW163340   3.017   4.506   2.347  1.3043  0.4964  2.0191
20633SOL    HW263341   2.922   4.623   2.341  1.7675  0.8069  0.0579
20634SOL     OW63342   7.190   1.578   1.391 -0.8897 -0.0928 -0.0804
20634SOL    HW163343   7.175   1.660   1.439 -1.3087  0.7415 -1.5603
20634SOL    HW263344   7.162   1.598   1.301 -1.5193 -2.0340 -0.3537
20635SOL     OW63345   3.516   0.396   1.423  0.0662 -0.0143  0.0182
20635SOL    HW163346   3.425   0.417   1.402  0.1531  0.3510  0.0042
20635SOL    HW263347   3.518   0.300   1.427 -0.4538 -0.0112  0.6050
20636SOL     OW63348   3.346   5.245   8.651 -0.2998  0.2123  0.4864
20636SOL    HW163349   3.289   5.174   8.621  0.6307 -1.0410  1.5507
20636SOL    HW263350   3.431   5.203   8.664  0.8588  1.9946 -0.8943
20637SOL     OW63351   7.641   6.352   5.799 -0.5723  0.0904 -0.1327
20637SOL    HW163352   7.634   6.272   5.851 -2.3645  0.7439  0.6906
20637SOL    HW263353   7.717   6.398   5.836  1.0650 -1.5791 -1.2173
20638SOL     OW63354   3.516   0.288   0.189 -0.2078  0.1547 -0.0202
20638SOL    HW163355   3.440   0.275   0.245 -1.1502 -1.9170 -1.6394
20638SOL    HW263356   3.584   0.234   0.229 -0.0646  0.7210  0.5214
20639SOL     OW63357   0.091   7.227  12.273 -0.0345  0.1639 -0.2937
20639SOL    HW163358   0.143   7.249  12.351 -2.7665  0.5658  1.5818
20639SOL    HW263359   0.098   7.303  12.217  1.3561  0.2065 -0.0969
20640SOL     OW63360   1.709   3.532   4.250 -0.1365  0.0678  0.2810
20640SOL    HW163361   1.795   3.504   4.282 -0.2694  0.9463  1.4576
20640SOL    HW263362   1.725   3.560   4.160  0.8910  0.5566  0.6053
20641SOL     OW63363   4.760   1.093   0.814  0.1222  0.7588  0.1405
20641SOL    HW163364   4.682   1.084   0.760  0.4449  1.0159 -0.3701
20641SOL    HW263365   4.728   1.127   0.897 -0.3983  0.1853  0.1794
20642SOL     OW63366   7.879   7.102   1.656  0.2799 -0.4925 -0.7765
20642SOL    HW163367   7.889   7.010   1.679 -1.0710 -0.8017 -1.3476
20642SOL    HW263368   7.894   7.149   1.738 -0.3847 -1.3080 -0.1720
20643SOL     OW63369   6.859   0.544   9.782 -0.1780 -0.2985 -0.0708
20643SOL    HW163370   6.880   0.618   9.725  2.2064 -0.9025 -0.0840
20643SOL    HW263371   6.811   0.484   9.726  1.6689 -0.6512 -1.3964
20644SOL     OW63372   6.665   1.331   2.637  0.6081 -0.1778 -0.0985
20644SOL    HW163373   6.645   1.274   2.563  0.0698 -0.0412 -0.0673
20644SOL    HW263374   6.758   1.352   2.628  0.5794 -0.2847 -0.6487
20645SOL     OW63375   7.482   4.716   6.656  0.5751 -0.1026  0.6081
20645SOL    HW163376   7.417   4.776   6.694  0.1551  0.0216 -0.2787
20645SOL    HW263377   7.431   4.638   6.633  0.5363  0.3488 -0.9452
20646SOL     OW63378   4.853   7.878   5.884 -0.0397 -0.3893  0.9079
20646SOL    HW163379   4.924   7.858   5.823  0.8777 -0.7089  2.0494
20646SOL    HW263380   4.823   7.793   5.914 -0.8009 -0.2482  0.5765
20647SOL     OW63381   5.644   6.939  11.144  0.2458 -0.0418  0.3344
20647SOL    HW163382   5.648   6.999  11.218 -0.7927  2.2012 -1.2952
20647SOL    HW263383   5.692   6.985  11.074 -0.8045 -0.9642 -1.0474
20648SOL     OW63384   6.647   2.576  11.350  0.6156  0.0895  0.0237
20648SOL    HW163385   6.732   2.570  11.395  0.4487 -0.9859  0.2274
20648SOL    HW263386   6.582   2.571  11.420  0.3768 -0.0286 -0.2009
20649SOL     OW63387   2.724   2.589   7.905  0.1213  0.4144  0.4485
20649SOL    HW163388   2.661   2.560   7.971  0.2403  0.5299  0.6174
20649SOL    HW263389   2.807   2.551   7.934 -0.0412 -0.5350 -0.3020
20650SOL     OW63390   5.748   7.634   4.258 -0.1692  0.2311  0.4963
20650SOL    HW163391   5.673   7.692   4.253 -0.8218 -0.5724  0.7609
20650SOL    HW263392   5.824   7.693   4.264 -0.5591  1.0894 -2.0513
20651SOL     OW63393   0.041   5.961   9.460 -0.5248  0.3489 -0.3873
20651SOL    HW163394   0.102   5.966   9.534  0.2593 -1.0716 -0.9044
20651SOL    HW263395   0.004   6.050   9.453 -0.1682  0.6590  1.3089
20652SOL     OW63396   4.812   6.328   1.507  0.3919 -0.3714  0.3432
20652SOL    HW163397   4.822   6.311   1.600 -0.1221  3.5833  1.3298
20652SOL    HW263398   4.899   6.356   1.478  0.4684 -1.2500 -0.3199
20653SOL     OW63399   1.066   3.375   6.978 -0.2171  0.3659 -0.2244
20653SOL    HW163400   1.010   3.452   6.968 -0.2944  0.8024  2.6752
20653SOL    HW263401   1.025   3.325   7.048  3.2808  1.1134  2.6687
20654SOL     OW63402   1.552   4.264   6.812 -0.2178 -0.4366  0.6827
20654SOL    HW163403   1.644   4.290   6.805 -0.2936 -0.6555 -2.5916
20654SOL    HW263404   1.503   4.345   6.801 -0.3951 -0.6461 -0.1562
20655SOL     OW63405   7.003   2.674   1.851 -0.4131  0.4900 -0.1960
20655SOL    HW163406   7.055   2.685   1.932  1.9455  3.5916 -1.8759
20655SOL    HW263407   7.037   2.594   1.812  0.0872  0.1869  0.8160
20656SOL     OW63408   3.655   1.881   1.241  0.1165 -0.0715  0.5275
20656SOL    HW163409   3.576   1.906   1.192  0.1871 -0.7997  0.0305
20656SOL    HW263410   3.699   1.964   1.259 -0.4901  0.2987  0.3392
20657SOL     OW63411   3.147   7.362   5.604  0.6868 -0.2250  0.6609
20657SOL    HW163412   3.088   7.436   5.589  0.7169 -0.2800  0.2540
20657SOL    HW263413   3.137   7.341   5.697  1.3093  0.8361  0.9858
20658SOL     OW63414   4.478   1.038  11.265 -0.8935 -0.4179  0.6419
20658SOL    HW163415   4.386   1.048  11.292 -1.2223  0.4966 -0.7198
20658SOL    HW263416   4.473   1.014  11.173  0.2425 -0.9760  0.7079
20659SOL     OW63417   1.924   0.617   4.077 -0.1136 -0.0067  0.0056
20659SOL    HW163418   1.868   0.695   4.075  1.0530  0.8572 -0.3338
20659SOL    HW263419   1.932   0.591   3.985  0.5392  0.2601 -0.0189
20660SOL     OW63420   2.130   4.130   8.321  0.5578  0.7486 -0.4645
20660SOL    HW163421   2.137   4.221   8.293 -0.4231  0.1473 -2.9629
20660SOL    HW263422   2.172   4.080   8.250  0.0281 -0.8100  0.2781
20661SOL     OW63423   4.906   5.447   8.837 -0.6141  0.1331 -0.0878
20661SOL    HW163424   4.883   5.468   8.927  1.3786 -1.2400  0.8157
20661SOL    HW263425   4.842   5.379   8.811 -2.1800  1.6241 -0.3344
20662SOL     OW63426   3.668   7.903   3.161 -0.2405  0.6223  0.2075
20662SOL    HW163427   3.661   7.972   3.096  0.7747  0.9988  0.4679
20662SOL    HW263428   3.579   7.888   3.191 -0.5300  1.4842 -0.1985
20663SOL     OW63429   0.098   5.979   2.062 -0.3672  0.8401  0.3083
20663SOL    HW163430   0.058   6.057   2.098 -1.2397  0.7591 -0.4698
20663SOL    HW263431   0.126   6.004   1.974 -1.1844  0.1179 -0.1655
20664SOL     OW63432   6.933   0.451   6.977 -0.3743 -0.1247  0.3629
20664SOL    HW163433   7.004   0.485   6.923 -0.4556 -1.7433 -0.8127
20664SOL    HW263434   6.872   0.525   6.986 -0.3102  0.2153 -1.6752
20665SOL     OW63435   4.831   3.179   8.433 -0.4383  0.1712 -0.1768
20665SOL    HW163436   4.845   3.108   8.496 -2.6813  0.6997  1.0095
20665SOL    HW263437   4.855   3.258   8.480  0.1480  0.3938 -0.8269
20666SOL     OW63438   7.082   7.604   8.309  0.3524  0.0281 -0.1231
20666SOL    HW163439   7.038   7.537   8.361 -0.1103 -2.3048 -3.2034
20666SOL    HW263440   7.032   7.684   8.325 -0.7004 -0.9357  1.7278
20667SOL     OW63441   4.785   5.336   7.434 -0.3813 -0.0332 -0.5483
20667SOL    HW163442   4.809   5.246   7.458  0.2998  0.6612  1.6185
20667SOL    HW263443   4.710   5.326   7.376 -0.3635 -2.0024 -0.3040
20668SOL     OW63444   2.904   2.418   8.630 -0.3770 -0.2408  0.0644
20668SOL    HW163445   2.852   2.387   8.556 -2.1365  0.0669  1.1075
20668SOL    HW263446   2.899   2.513   8.626 -0.0476 -0.2096  0.2964
20669SOL     OW63447   6.498   6.615  11.563  0.0269  0.3076 -0.4531
20669SOL    HW163448   6.465   6.699  11.531  0.1610  1.0354  1.2042
20669SOL    HW263449   6.421   6.571  11.600  0.1528  0.1591 -0.3648
20670SOL     OW63450   7.282   3.739   2.734 -0.4826  0.7976  0.5100
20670SOL    HW163451   7.209   3.772   2.683  0.3913  2.1187  0.0530
20670SOL    HW263452   7.274   3.644   2.730 -0.7816  0.8724 -1.6119
20671SOL     OW63453   5.566   3.123  10.731  0.1645 -0.0721  0.1455
20671SOL    HW163454   5.541   3.203  10.778 -0.0136  0.6673 -1.1539
20671SOL    HW263455   5.485   3.091  10.692  0.6325  0.5098 -1.3722
20672SOL     OW63456   2.786   3.539   7.989 -0.1335 -0.4973 -0.2385
20672SOL    HW163457   2.809   3.595   8.063 -0.7053  0.9488 -1.1033
20672SOL    HW263458   2.822   3.453   8.011 -0.2742 -0.0936  1.6815
20673SOL     OW63459   0.292   2.500   0.084  0.5018 -0.1592  0.3863
20673SOL    HW163460   0.229   2.435   0.054 -0.2893  0.0269  1.5719
20673SOL    HW263461   0.375   2.451   0.091 -0.1271 -1.1393  1.4960
20674SOL     OW63462   1.887   0.873   3.376  0.2986  0.1624  0.1231
20674SOL    HW163463   1.874   0.966   3.356  1.6337  0.5561  0.9146
20674SOL    HW263464   1.887   0.830   3.291  0.0776  0.9483 -0.2861
20675SOL     OW63465   3.953   7.392   3.436 -0.1138 -0.1527  0.3108
20675SOL    HW163466   3.912   7.461   3.488  1.5908  1.7610 -0.7784
20675SOL    HW263467   3.880   7.354   3.386 -1.1607  0.5181  1.2713
20676SOL     OW63468   1.496   3.081   9.914 -0.2938  0.0057 -0.0847
20676SOL    HW163469   1.589   3.071   9.930 -0.2589 -0.5819 -0.5895
20676SOL    HW263470   1.454   3.027   9.982 -0.2932  0.8037  0.5553
20677SOL     OW63471   6.322   4.172   7.976  0.1213 -0.3843  0.5897
20677SOL    HW163472   6.280   4.088   7.955 -1.8325  0.6773 -0.0559
20677SOL    HW263473   6.378   4.153   8.051 -0.0694 -2.3196  0.2851
20678SOL     OW63474   1.186   5.850   8.600 -0.1180 -0.0779 -0.0517
20678SOL    HW163475   1.117   5.916   8.600  0.0708  0.1351  0.6203
20678SOL    HW263476   1.169   5.798   8.679  0.2051 -0.3279 -0.1446
20679SOL     OW63477   3.474   0.338   6.693  0.2525 -0.3855  0.5906
20679SOL    HW163478   3.556   0.318   6.740  1.8245 -0.3361 -1.9733
20679SOL    HW263479   3.501   0.352   6.602 -2.4295  1.2236 -0.0635
20680SOL     OW63480   5.144   7.516   1.372  0.0808 -0.1988 -0.5250
20680SOL    HW163481   5.137   7.600   1.326  0.4575 -0.0566 -0.3282
20680SOL    HW263482   5.060   7.506   1.416  0.4579  0.6892  0.4664
20681SOL     OW63483   2.383   4.874   7.797  0.0155 -0.3106 -0.1569
20681SOL    HW163484   2.477   4.873   7.814 -0.0088 -0.6635 -0.0468
20681SOL    HW263485   2.376   4.896   7.704  0.3061 -2.6178 -0.7917
20682SOL     OW63486   1.879   5.110   7.615 -0.3453  0.4520 -0.2046
20682SOL    HW163487   1.974   5.102   7.611 -0.3371  0.4496 -0.0259
20682SOL    HW263488   1.847   5.060   7.540 -0.2003  0.5629 -0.3395
20683SOL     OW63489   3.003   0.773  10.098  0.6013  0.0848 -0.3364
20683SOL    HW163490   2.921   0.808  10.062  1.1852  0.2043 -1.6065
20683SOL    HW263491   3.045   0.730  10.024  0.2499 -2.7870  0.9901
20684SOL     OW63492   3.079   3.650   8.310 -0.0827 -0.1137 -0.4002
20684SOL    HW163493   3.063   3.723   8.370 -0.1962  0.5725 -1.2342
20684SOL    HW263494   3.119   3.582   8.364  0.6757  0.8282  0.2532
20685SOL     OW63495   4.495   2.121   4.403 -0.0042  0.4101  0.0447
20685SOL    HW163496   4.580   2.084   4.381  0.4060  1.2293  0.1862
20685SOL    HW263497   4.484   2.194   4.342 -1.9516 -1.4077 -1.9628
20686SOL     OW63498   6.887   2.636   7.029  0.5583  0.0811 -0.2748
20686SOL    HW163499   6.808   2.686   7.047  0.6479  0.3575 -0.6521
20686SOL    HW263500   6.890   2.571   7.099 -0.8870 -0.9990 -1.1487
20687SOL     OW63501   2.443   7.000  12.126 -0.0102  0.5362 -0.2461
20687SOL    HW163502   2.397   7.009  12.210 -0.0482  0.7084 -0.2840
20687SOL    HW263503   2.524   7.049  12.138 -0.2699  1.0416 -0.4946
20688SOL     OW63504   5.462   6.457   1.285 -0.1869  0.7020  0.2067
20688SOL    HW163505   5.397   6.420   1.345 -0.1178  0.2528  0.0069
20688SOL    HW263506   5.531   6.490   1.343  0.9399 -1.6940  0.3378
20689SOL     OW63507   1.833   7.043   1.230  0.3889  0.1489 -0.4045
20689SOL    HW163508   1.865   7.083   1.149  0.4043 -0.5304 -0.7402
20689SOL    HW263509   1.868   6.954   1.229  1.1672  0.4145  0.8147
20690SOL     OW63510   3.056   3.694   2.247 -0.3234  0.1212  0.2062
20690SOL    HW163511   3.079   3.744   2.169  0.2305 -0.1310  0.1979
20690SOL    HW263512   3.027   3.759   2.310  0.9772  0.5379  0.4075
20691SOL     OW63513   0.323   5.959   4.495  0.4080  0.3218 -0.0754
20691SOL    HW163514   0.277   5.974   4.578 -2.2879 -0.9237 -1.2283
20691SOL    HW263515   0.297   5.871   4.469  1.4922  0.5429 -2.0619
20692SOL     OW63516   5.411   5.266   8.285 -0.1571  0.4016 -0.1094
20692SOL    HW163517   5.364   5.347   8.267  0.3086  0.3662 -1.6226
20692SOL    HW263518   5.371   5.202   8.226 -0.1585 -0.3441  0.6847
20693SOL     OW63519   6.182   5.264   1.068 -0.2215 -0.5796 -0.6003
20693SOL    HW163520   6.233   5.183   1.067 -1.8550 -1.6585 -0.3714
20693SOL    HW263521   6.101   5.240   1.112 -1.0865  0.9824 -1.2896
20694SOL     OW63522   5.432   4.152   5.704  0.4753  0.0842 -0.6564
20694SOL    HW163523   5.428   4.172   5.611  0.5541  1.1308 -0.4465
20694SOL    HW263524   5.400   4.231   5.748 -1.7921 -1.1910  0.1702
20695SOL     OW63525   2.761   2.465   4.598 -0.0575 -0.5794 -0.2432
20695SOL    HW163526   2.815   2.527   4.646 -1.0474  0.0190  0.1218
20695SOL    HW263527   2.808   2.451   4.515  0.1499  0.7054 -0.3597
20696SOL     OW63528   1.241   1.625  10.743  0.1455 -0.2944 -0.2678
20696SOL    HW163529   1.255   1.595  10.832 -1.8546 -2.1888 -0.4752
20696SOL    HW263530   1.300   1.572  10.690  0.1949 -0.3142 -0.1921
20697SOL     OW63531   2.359   5.106   4.148  0.4089 -0.3486 -0.2672
20697SOL    HW163532   2.390   5.088   4.059 -2.1786  0.6349 -1.4720
20697SOL    HW263533   2.373   5.200   4.160  2.0208 -0.7038  0.9675
20698SOL     OW63534   6.562   0.433   4.803 -0.3269 -0.3616 -0.2181
20698SOL    HW163535   6.530   0.349   4.771 -0.4835 -0.8828  1.2319
20698SOL    HW263536   6.485   0.490   4.801 -0.2097 -0.2281 -1.2475
20699SOL     OW63537   7.091   0.489   5.607 -0.1012 -0.1823  0.1676
20699SOL    HW163538   7.031   0.496   5.682  1.6341 -1.0618  1.7278
20699SOL    HW263539   7.058   0.554   5.545 -1.2353  1.0812  1.9667
20700SOL     OW63540   2.220   1.635   7.857 -0.0976 -0.1064  0.2949
20700SOL    HW163541   2.242   1.719   7.817 -0.0286  0.1728  0.9113
20700SOL    HW263542   2.177   1.586   7.787  2.6102 -0.7706 -1.0628
20701SOL     OW63543   5.837   1.035   4.558  0.0004  0.3568 -0.5220
20701SOL    HW163544   5.792   0.999   4.634 -0.7346  2.4259  0.1044
20701SOL    HW263545   5.921   1.066   4.592  0.3729 -0.2157 -0.9143
20702SOL     OW63546   0.947   6.230   5.178 -0.0268 -0.0257  0.3018
20702SOL    HW163547   0.964   6.148   5.226 -2.1148 -0.5093  0.3190
20702SOL    HW263548   0.853   6.229   5.163 -0.2887  2.9179  1.2300
20703SOL     OW63549   4.044   2.510   6.220 -0.1087  0.0568 -0.1778
20703SOL    HW163550   4.068   2.587   6.272 -0.0985 -0.1827  0.1702
20703SOL    HW263551   3.955   2.528   6.190 -0.2646  0.0127  0.2604
20704SOL     OW63552   4.066   5.803   2.250 -0.0640 -0.3773 -0.0249
20704SOL    HW163553   4.063   5.895   2.276 -0.9870  0.1759 -1.9023
20704SOL    HW263554   4.108   5.759   2.323  1.6557  1.7378  0.3793
20705SOL     OW63555   0.417   6.930  11.265 -0.4757  0.7344  0.0178
20705SOL    HW163556   0.469   6.893  11.194  0.1019 -0.0764  0.8452
20705SOL    HW263557   0.464   7.008  11.293  0.1026  0.2206  0.5013
20706SOL     OW63558   3.109   4.755   8.015  0.2666  0.1775  0.4506
20706SOL    HW163559   3.123   4.700   7.937  0.1459  0.2097  0.4072
20706SOL    HW263560   3.151   4.705   8.086  0.0667 -0.0224  0.4299
20707SOL     OW63561   7.452   4.867   3.182 -0.1501  0.4463 -0.2968
20707SOL    HW163562   7.541   4.882   3.150  0.7006  1.8021  2.3707
20707SOL    HW263563   7.402   4.941   3.147  0.2927  0.8594 -0.0660
20708SOL     OW63564   1.864   0.346  12.415 -0.0839 -0.0056 -0.2822
20708SOL    HW163565   1.855   0.302  12.330  0.1097 -1.5996  0.4732
20708SOL    HW263566   1.775   0.375  12.437 -0.6851 -2.0305  0.1768
20709SOL     OW63567   5.000   2.999   5.033 -0.1891  0.2337  0.5753
20709SOL    HW163568   5.000   3.042   5.118  1.0816 -0.4450  0.9435
20709SOL    HW263569   5.091   3.001   5.005 -0.2983 -1.0905  0.0338
20710SOL     OW63570   5.927   1.616   7.275  0.8569 -0.3320 -0.7690
20710SOL    HW163571   5.941   1.704   7.239  2.8768 -0.0920  0.4449
20710SOL    HW263572   6.015   1.580   7.284  0.2101 -1.5964  0.9083
20711SOL     OW63573   3.590   5.130   8.600 -0.1664  0.1296  0.0997
20711SOL    HW163574   3.589   5.105   8.693  0.3227 -0.8003 -0.1357
20711SOL    HW263575   3.634   5.058   8.556 -3.1190 -0.9863 -1.3098
20712SOL     OW63576   0.035   7.157  11.130  0.0222  0.2594 -0.5573
20712SOL    HW163577  -0.009   7.181  11.049  1.3198  2.1088 -0.7874
20712SOL    HW263578   0.091   7.083  11.106 -0.5781 -0.0485 -1.0248
20713SOL     OW63579   0.276   5.423   8.950 -0.0227 -0.3318  0.0612
20713SOL    HW163580   0.306   5.484   8.882 -0.9054  0.0774  0.0237
20713SOL    HW263581   0.205   5.470   8.995 -0.3363 -1.1129  0.3996
20714SOL     OW63582   7.148   5.671  10.778 -0.1583  0.1903  0.2101
20714SOL    HW163583   7.092   5.674  10.855  1.3557  1.4199  1.3439
20714SOL    HW263584   7.137   5.757  10.738 -0.1613 -0.0768 -0.3647
20715SOL     OW63585   1.991   3.685   6.783 -0.2901 -0.0547 -0.1325
20715SOL    HW163586   2.006   3.755   6.719  0.8542 -0.7206 -0.6213
20715SOL    HW263587   1.916   3.637   6.747  0.1329 -0.2239 -0.8204
20716SOL     OW63588   0.815   3.438   1.356  0.0035  0.3841  0.1715
20716SOL    HW163589   0.722   3.413   1.354 -0.5802  2.2080  1.5515
20716SOL    HW263590   0.830   3.476   1.269 -0.6557  0.4315  0.0671
20717SOL     OW63591   0.293   7.828   7.627 -0.0063  0.4365  0.0276
20717SOL    HW163592   0.275   7.735   7.619 -0.1088  0.4125  0.5459
20717SOL    HW263593   0.388   7.834   7.626  0.1117  0.0562  2.8114
20718SOL     OW63594   1.710   1.818   7.663  0.8068 -0.0573 -0.6042
20718SOL    HW163595   1.743   1.731   7.685 -0.0627 -0.4302 -0.7410
20718SOL    HW263596   1.691   1.814   7.570 -0.7981 -0.2639 -0.2971
20719SOL     OW63597   6.937   7.857   4.879 -0.1238 -0.0420  0.5895
20719SOL    HW163598   6.898   7.771   4.868  0.0295 -0.0292 -0.1623
20719SOL    HW263599   7.031   7.844   4.862 -0.1327  0.3080  0.2492
20720SOL     OW63600   1.602   6.887   4.203  0.2577 -0.2317 -0.0821
20720SOL    HW163601   1.574   6.797   4.218  0.1274 -0.1911 -0.0784
20720SOL    HW263602   1.658   6.882   4.125  0.0997 -0.2874 -0.1925
20721SOL     OW63603   0.057   2.264   3.179  0.2666  0.1641 -0.2261
20721SOL    HW163604   0.140   2.272   3.225  0.1194 -0.9463  0.2622
20721SOL    HW263605   0.015   2.188   3.219 -0.3914 -0.0955 -1.3826
20722SOL     OW63606   5.709   6.303  10.149  0.6019 -0.0478  0.2097
20722SOL    HW163607   5.662   6.268  10.225  0.1499  1.1569  0.4986
20722SOL    HW263608   5.777   6.359  10.186  1.2874 -0.5567 -0.2492
20723SOL     OW63609   1.183   0.505  10.691  0.1817 -0.2989  0.0809
20723SOL    HW163610   1.128   0.429  10.704  0.2806 -0.4556 -0.3794
20723SOL    HW263611   1.270   0.469  10.671  0.0365 -0.0884 -0.9949
20724SOL     OW63612   3.866   6.282   0.879  0.1786 -0.3673 -0.1535
20724SOL    HW163613   3.902   6.245   0.798  0.0681  0.5873 -0.6594
20724SOL    HW263614   3.939   6.331   0.918 -0.1816  0.4552 -0.4878
20725SOL     OW63615   7.763   7.468   9.727 -0.3530  0.7022 -0.5390
20725SOL    HW163616   7.694   7.519   9.686  0.0745  0.0747 -2.0962
20725SOL    HW263617   7.777   7.510   9.812 -1.5494  1.7854 -0.8566
20726SOL     OW63618   6.758   3.634   4.386 -0.5682  0.6038  0.0728
20726SOL    HW163619   6.688   3.571   4.405  0.0477 -0.9143 -2.1727
20726SOL    HW263620   6.807   3.641   4.467 -2.1426  0.1261  1.1043
20727SOL     OW63621   5.038   6.177  11.444 -0.0097  1.0356  0.1767
20727SOL    HW163622   5.057   6.266  11.415  0.2973  1.3757  1.3533
20727SOL    HW263623   4.944   6.167  11.431 -0.0758  1.5948  0.1890
20728SOL     OW63624   4.631   1.282  12.007 -0.2597  0.3633 -0.3144
20728SOL    HW163625   4.667   1.218  12.069 -1.2700  1.0787  1.0785
20728SOL    HW263626   4.614   1.360  12.061  1.6019  2.1164 -2.0747
20729SOL     OW63627   3.276   7.127  12.087 -0.2845  0.0484 -0.2148
20729SOL    HW163628   3.282   7.114  11.993  0.0531 -0.1472 -0.1703
20729SOL    HW263629   3.362   7.162  12.111  0.1014 -1.1260  0.2090
20730SOL     OW63630   7.888   1.239  11.990  0.9025 -0.3540  0.2107
20730SOL    HW163631   7.886   1.282  12.076 -1.5391  1.0583 -0.4616
20730SOL    HW263632   7.925   1.152  12.007 -1.2547 -0.8416  3.0738
20731SOL     OW63633   4.466   4.991   3.947 -0.5533  0.1079  0.3371
20731SOL    HW163634   4.537   5.011   3.886 -0.9321  0.6816  0.0724
20731SOL    HW263635   4.415   4.924   3.903  0.9922 -1.9026  1.4312
20732SOL     OW63636   7.544   4.807   2.194  0.1796 -0.4429  0.7514
20732SOL    HW163637   7.503   4.850   2.269 -0.1887 -0.1060  0.3643
20732SOL    HW263638   7.615   4.865   2.169 -1.3601  0.8792 -0.8354
20733SOL     OW63639   0.287   7.042   4.285 -0.0581 -0.4472 -0.7988
20733SOL    HW163640   0.294   7.114   4.347  0.2505 -0.4686 -0.8077
20733SOL    HW263641   0.271   7.085   4.201 -2.0535 -0.4777 -0.4758
20734SOL     OW63642   1.020   7.819   7.357 -0.6312  0.6709 -0.3076
20734SOL    HW163643   1.097   7.854   7.313 -0.2195 -0.4166 -0.4910
20734SOL    HW263644   1.051   7.790   7.442 -0.2452 -1.9817 -1.2581
20735SOL     OW63645   6.261   5.434   7.449 -0.1165  0.3619  0.1971
20735SOL    HW163646   6.175   5.393   7.452 -0.3568  0.8496  0.0350
20735SOL    HW263647   6.321   5.366   7.481 -0.7136  0.4222  1.5007
20736SOL     OW63648   4.944   1.847   2.725  0.3716 -0.6689 -0.3356
20736SOL    HW163649   4.967   1.885   2.810  2.2961  0.2786 -1.2162
20736SOL    HW263650   4.868   1.792   2.743 -0.1882  0.6605  1.7107
20737SOL     OW63651   0.324   0.335   1.683  0.4602  0.5998 -0.3393
20737SOL    HW163652   0.233   0.341   1.655 -0.3243  0.2076  1.8654
20737SOL    HW263653   0.352   0.247   1.658 -0.0205  0.4578 -0.3785
20738SOL     OW63654   5.611   7.525   6.849 -0.1477 -0.2183 -0.3259
20738SOL    HW163655   5.616   7.466   6.774 -0.2585 -0.3075 -0.2639
20738SOL    HW263656   5.611   7.612   6.810 -1.6385 -0.2836 -0.5243
20739SOL     OW63657   0.217   7.470   2.615 -0.0364  0.5998  0.6813
20739SOL    HW163658   0.129   7.440   2.594  0.6053 -1.1497  0.2889
20739SOL    HW263659   0.232   7.439   2.704  0.7182 -0.5226  0.1922
20740SOL     OW63660   1.584   5.979   9.969 -0.1456  0.2150 -0.3301
20740SOL    HW163661   1.653   6.039   9.997  0.3890 -0.8090  0.5823
20740SOL    HW263662   1.586   5.908  10.032 -1.0178 -0.6016 -1.1879
20741SOL     OW63663   6.364   7.026   4.596 -0.2267  0.1493 -0.2872
20741SOL    HW163664   6.295   7.063   4.650 -0.0830  0.6986 -0.4698
20741SOL    HW263665   6.320   6.963   4.538 -0.6050  0.6540 -0.5485
20742SOL     OW63666   2.705   7.439   5.736 -0.3375  0.2961  0.3187
20742SOL    HW163667   2.776   7.498   5.761  0.9797 -1.0145 -0.1581
20742SOL    HW263668   2.689   7.386   5.815  0.4023 -0.5262 -0.0625
20743SOL     OW63669   2.068   7.698   1.625 -0.3044  0.4097 -0.2747
20743SOL    HW163670   2.084   7.771   1.566 -2.5353 -0.9637 -2.7642
20743SOL    HW263671   2.023   7.737   1.700  2.1278  2.1048  0.4292
20744SOL     OW63672   3.488   2.395   1.986  0.3505  0.0403  0.3875
20744SOL    HW163673   3.559   2.459   1.984  0.6372 -0.2199  1.5008
20744SOL    HW263674   3.438   2.417   2.065 -1.1123  0.5327 -0.6431
20745SOL     OW63675   2.085   6.850  12.104  0.3100  0.1597  0.4883
20745SOL    HW163676   2.038   6.774  12.069  1.2996  0.2480 -1.1193
20745SOL    HW263677   2.159   6.813  12.152  0.4307  0.0989  0.2542
20746SOL     OW63678   3.573   5.866   5.074  0.0033  0.0304  0.2944
20746SOL    HW163679   3.570   5.921   4.996 -1.9727 -2.5986 -1.6634
20746SOL    HW263680   3.613   5.784   5.044 -2.5466 -1.7623  1.4446
20747SOL     OW63681   5.117   1.154   8.229  0.1130 -0.1134  0.0469
20747SOL    HW163682   5.022   1.158   8.227  0.0491 -1.5020 -1.3289
20747SOL    HW263683   5.144   1.158   8.137  1.4828  1.6752  0.4641
20748SOL     OW63684   7.899   5.809   2.887  0.4560 -0.1796  0.0563
20748SOL    HW163685   7.978   5.861   2.870  1.8333 -1.7165  1.4564
20748SOL    HW263686   7.927   5.718   2.876 -1.4541 -0.7381 -0.6039
20749SOL     OW63687   0.160   5.103   7.779 -0.3415 -0.2070  0.3238
20749SOL    HW163688   0.073   5.134   7.804  0.4946  1.8198  0.8607
20749SOL    HW263689   0.154   5.091   7.684 -0.6241  2.0533  0.0042
20750SOL     OW63690   6.427   2.070   5.292 -0.2599 -0.3323 -0.1496
20750SOL    HW163691   6.408   2.108   5.206  1.6822  2.2904  0.4669
20750SOL    HW263692   6.365   2.112   5.351 -0.7109 -1.1474 -0.0224
20751SOL     OW63693   3.798   3.322   1.842 -0.0023 -0.2897  0.0610
20751SOL    HW163694   3.865   3.382   1.874  0.2681 -0.9462  0.7682
20751SOL    HW263695   3.843   3.269   1.775 -0.2964  0.4127 -0.7128
20752SOL     OW63696   7.342   2.636  10.789  0.2879 -0.0660  0.4887
20752SOL    HW163697   7.285   2.712  10.778 -0.6130 -0.7021  0.7024
20752SOL    HW263698   7.285   2.566  10.820  0.8901 -1.1622 -0.7568
20753SOL     OW63699   2.069   1.244  10.565  0.1513 -0.0619 -0.6270
20753SOL    HW163700   1.994   1.187  10.550 -1.2140  1.4966  0.0202
20753SOL    HW263701   2.068   1.305  10.492  0.5537  0.2143 -0.4058
20754SOL     OW63702   2.102   4.207   5.365  0.2860  0.8425  0.2854
20754SOL    HW163703   2.193   4.222   5.341  0.2285 -1.6727 -1.9224
20754SOL    HW263704   2.106   4.175   5.455  2.0121 -2.1748 -0.7242
20755SOL     OW63705   1.244   1.530   9.637  0.0289  0.2897 -0.6059
20755SOL    HW163706   1.232   1.594   9.707 -0.2552 -1.3775  0.9647
20755SOL    HW263707   1.337   1.532   9.618  0.2236  0.3428  0.2980
20756SOL     OW63708   6.118   6.428   7.592  0.9860  1.0266  0.1779
20756SOL    HW163709   6.195   6.429   7.647  1.0466  2.6556  0.1009
20756SOL    HW263710   6.124   6.507   7.539  0.2337  0.2142 -1.2088
20757SOL     OW63711   7.274   7.611   9.136 -0.5558  0.4297  0.7204
20757SOL    HW163712   7.203   7.571   9.186 -0.2676 -0.5424  0.3775
20757SOL    HW263713   7.341   7.631   9.201 -0.5981  0.1032  0.8672
20758SOL     OW63714   5.757   2.983   5.803 -0.1096  0.1647 -0.3765
20758SOL    HW163715   5.837   2.931   5.810 -0.2091  0.0427 -0.1147
20758SOL    HW263716   5.767   3.032   5.722  0.4023  0.4428 -0.1485
20759SOL     OW63717   4.284   7.672   5.965 -0.5917  0.0510 -0.7829
20759SOL    HW163718   4.203   7.722   5.960 -0.4612  0.4000  0.2767
20759SOL    HW263719   4.305   7.669   6.059  1.0336  0.6701 -1.0813
20760SOL     OW63720   7.262   7.292  11.051 -0.3413 -0.3055  0.2280
20760SOL    HW163721   7.315   7.224  11.092  0.3015  0.9364  1.5746
20760SOL    HW263722   7.178   7.288  11.096  0.1724  0.6747  1.3548
20761SOL     OW63723   5.063   4.511   1.565 -0.0542 -0.4668  0.3627
20761SOL    HW163724   5.084   4.602   1.587  1.3546 -0.6947  0.0461
20761SOL    HW263725   4.970   4.513   1.541  0.3006  1.1573 -1.0572
20762SOL     OW63726   0.395   6.201   1.289  0.3242 -0.1738 -0.0234
20762SOL    HW163727   0.333   6.197   1.217  0.1704 -0.2953  0.1160
20762SOL    HW263728   0.362   6.272   1.345  0.1541 -0.4271  0.1970
20763SOL     OW63729   7.942   0.922   3.867  0.2900 -0.2173 -0.6095
20763SOL    HW163730   7.935   0.827   3.867  0.1751 -0.2392 -2.3044
20763SOL    HW263731   8.034   0.939   3.887 -0.0222 -0.6000  1.3329
20764SOL     OW63732   4.191   1.037  11.222  0.2162  0.1607  0.0603
20764SOL    HW163733   4.200   0.955  11.173 -1.0719 -0.3074  0.5829
20764SOL    HW263734   4.108   1.029  11.268 -0.3744  2.1460 -0.5804
20765SOL     OW63735   2.787   4.906   4.179  0.2245 -0.4270  0.3173
20765SOL    HW163736   2.849   4.922   4.250  1.5822  0.4229 -0.9836
20765SOL    HW263737   2.707   4.953   4.205  1.0715  0.8181  0.7925
20766SOL     OW63738   7.190   7.315  11.435 -0.3757 -0.0507  0.5425
20766SOL    HW163739   7.215   7.226  11.456  1.6493  0.2877 -0.1980
20766SOL    HW263740   7.143   7.308  11.352 -0.5843 -0.4650  0.6964
20767SOL     OW63741   2.603   7.808   5.216  0.3267  0.3009 -0.1650
20767SOL    HW163742   2.551   7.767   5.285  0.2402  0.3166 -0.2201
20767SOL    HW263743   2.538   7.838   5.152  0.4020  0.3466 -0.2202
20768SOL     OW63744   7.225   7.929  10.499  0.1535 -0.2344  0.0703
20768SOL    HW163745   7.161   7.864  10.528  0.5567 -0.8698 -0.4292
20768SOL    HW263746   7.189   8.013  10.527 -1.6216 -0.4300 -1.4322
20769SOL     OW63747   4.441   6.881  12.290  0.3037  0.0317 -0.6472
20769SOL    HW163748   4.347   6.868  12.277  0.3218 -2.2445  0.8393
20769SOL    HW263749   4.449   6.906  12.382  1.0092  3.2875 -1.4842
20770SOL     OW63750   2.965   1.847  11.255  0.2072  0.2130  0.3105
20770SOL    HW163751   2.929   1.880  11.172 -0.0733 -1.2764 -0.2042
20770SOL    HW263752   3.060   1.850  11.243  0.1719 -1.4337 -0.7185
20771SOL     OW63753   2.147   5.630  11.111 -0.5559  0.6739 -0.0932
20771SOL    HW163754   2.188   5.663  11.031 -0.2419  0.1152 -0.1642
20771SOL    HW263755   2.207   5.563  11.143 -0.6821  0.8913  0.6082
20772SOL     OW63756   2.868   1.310  10.595 -0.1914 -0.3123 -0.1604
20772SOL    HW163757   2.950   1.261  10.608 -0.0983  0.0009  0.4673
20772SOL    HW263758   2.894   1.384  10.539  0.3110  0.6815  1.3347
20773SOL     OW63759   1.222   5.298   2.674  0.0907 -0.6172  0.2655
20773SOL    HW163760   1.133   5.334   2.668 -0.1309 -0.0894  4.1072
20773SOL    HW263761   1.216   5.211   2.635 -1.7687 -0.0758 -0.7477
20774SOL     OW63762   6.252   5.573   0.031 -0.1193  0.2063  0.0274
20774SOL    HW163763   6.212   5.614   0.108  0.1519 -1.5888  1.2008
20774SOL    HW263764   6.235   5.479   0.043  2.0784 -0.3665 -0.8021
20775SOL     OW63765   3.699   0.797   8.586  0.3325 -0.7200  0.4443
20775SOL    HW163766   3.727   0.862   8.521 -3.3899  1.7770  0.9957
20775SOL    HW263767   3.747   0.821   8.666  0.6802 -0.0997  0.0576
20776SOL     OW63768   4.771   4.643   1.748 -0.0920  0.3326 -0.0487
20776SOL    HW163769   4.688   4.692   1.755 -1.6884 -2.2533  0.4483
20776SOL    HW263770   4.785   4.633   1.654 -1.3482 -0.7368 -0.1461
20777SOL     OW63771   7.106   3.980  11.595  0.0528  0.1483  0.4652
20777SOL    HW163772   7.116   3.885  11.587 -0.1520  0.1579  0.1144
20777SOL    HW263773   7.171   4.017  11.535  0.3860  0.2372  0.8701
20778SOL     OW63774   6.273   7.982  11.906 -0.0023  0.3399  0.3581
20778SOL    HW163775   6.336   8.046  11.940  0.0319  0.2925  0.3835
20778SOL    HW263776   6.231   7.945  11.984  1.7695 -1.5183  0.4992
20779SOL     OW63777   0.158   5.476   0.061  0.4933  0.1384 -0.1165
20779SOL    HW163778   0.204   5.552   0.026  0.9251  1.0355  2.1933
20779SOL    HW263779   0.219   5.403   0.048  0.4201  0.3198 -1.6104
20780SOL     OW63780   6.564   0.123   7.156  0.2656  0.5588  0.1109
20780SOL    HW163781   6.532   0.069   7.084  0.8060  0.0748  0.2255
20780SOL    HW263782   6.596   0.203   7.114  1.4411 -0.0992 -0.3117
20781SOL     OW63783   5.294   6.189   0.978  0.0433  0.3260 -0.2379
20781SOL    HW163784   5.267   6.170   1.067 -1.4504 -0.7429 -0.8944
20781SOL    HW263785   5.389   6.175   0.979 -0.0568 -0.4381  0.9894
20782SOL     OW63786   0.213   7.395   1.691 -0.0946 -0.0072 -0.1409
20782SOL    HW163787   0.285   7.379   1.630  0.8974 -0.8076  1.2031
20782SOL    HW263788   0.220   7.488   1.713  1.1759 -0.3005  0.7656
20783SOL     OW63789   0.540   2.701  10.577  0.1796 -0.5113  0.0844
20783SOL    HW163790   0.513   2.787  10.546  2.2625  0.2040  0.0645
20783SOL    HW263791   0.630   2.714  10.607  0.0035 -2.3388  1.5791
20784SOL     OW63792   7.339   4.697   9.472  0.0631 -0.6657 -0.2732
20784SOL    HW163793   7.397   4.763   9.434  0.5910 -0.0005  1.6048
20784SOL    HW263794   7.363   4.694   9.564 -1.2599 -2.1327  0.0590
20785SOL     OW63795   7.336   2.526   4.665  0.1957  0.7068 -0.6894
20785SOL    HW163796   7.244   2.550   4.676  0.9061  2.9193  1.3962
20785SOL    HW263797   7.349   2.452   4.724 -0.2872  0.1775 -1.2330
20786SOL     OW63798   3.972   3.348   5.027 -0.0987 -0.2759 -0.6632
20786SOL    HW163799   3.977   3.312   5.115  0.3067 -0.7127 -0.8610
20786SOL    HW263800   3.920   3.285   4.977 -0.0849 -0.1743 -0.8097
20787SOL     OW63801   7.213   2.678   2.086 -0.0365 -0.4900 -0.1795
20787SOL    HW163802   7.224   2.657   2.179  2.3851 -0.0403 -0.3031
20787SOL    HW263803   7.240   2.770   2.080  1.0706 -0.8799 -1.5049
20788SOL     OW63804   1.622   5.198   1.292  0.4356 -0.4197  0.0072
20788SOL    HW163805   1.625   5.124   1.352 -2.8191 -0.5418  0.2253
20788SOL    HW263806   1.624   5.275   1.348  1.8134 -0.3706 -0.0834
20789SOL     OW63807   1.813   2.302  11.874  0.3631  0.0977  0.3400
20789SOL    HW163808   1.903   2.306  11.843  0.1214 -1.7608 -0.6883
20789SOL    HW263809   1.817   2.250  11.954  0.3926  1.3898  1.2160
20790SOL     OW63810   2.233   1.708   2.012 -0.2831  0.6509  0.2240
20790SOL    HW163811   2.215   1.794   2.050  0.4660  0.7454  0.3796
20790SOL    HW263812   2.314   1.679   2.055 -0.8344 -0.3845  0.5826
20791SOL     OW63813   1.343   0.443  10.171  0.3421 -0.0676 -0.5471
20791SOL    HW163814   1.359   0.408  10.084  0.2564  1.6926 -1.3192
20791SOL    HW263815   1.301   0.528  10.156 -0.4307 -0.0854  1.2324
20792SOL     OW63816   1.122   4.609   2.215 -0.1673 -0.2419  0.1519
20792SOL    HW163817   1.198   4.623   2.158  0.2069 -1.1766  0.4067
20792SOL    HW263818   1.158   4.567   2.293 -0.8108  0.1923  0.6920
20793SOL     OW63819   2.306   3.243   4.232 -0.4541 -0.4744 -0.0734
20793SOL    HW163820   2.286   3.332   4.204 -1.1504 -0.4057  0.6142
20793SOL    HW263821   2.402   3.241   4.237 -0.4260  0.1965 -0.1918
20794SOL     OW63822   4.292   3.576   6.906 -0.8021  0.1963 -0.2681
20794SOL    HW163823   4.316   3.484   6.899 -1.7089  0.0453 -2.0144
20794SOL    HW263824   4.354   3.613   6.969  0.4328 -1.2998 -0.5630
20795SOL     OW63825   2.155   3.974   2.940 -0.2583  0.1731  0.3692
20795SOL    HW163826   2.094   3.981   2.867 -0.7210 -1.2839  0.6016
20795SOL    HW263827   2.239   3.951   2.899 -0.7431 -1.6743  0.3495
20796SOL     OW63828   7.320   4.889   0.312  0.5329 -0.0090  0.0192
20796SOL    HW163829   7.254   4.957   0.306  0.6750  0.1559  0.3096
20796SOL    HW263830   7.311   4.839   0.231  0.9474  0.8280 -0.5501
20797SOL     OW63831   4.588   3.097   8.161  0.1505  0.0564 -0.0573
20797SOL    HW163832   4.504   3.060   8.135 -0.1368 -1.1254  2.2121
20797SOL    HW263833   4.578   3.191   8.150 -1.4210 -0.0764  0.0135
20798SOL     OW63834   3.606   0.871   6.294 -0.1781  0.0784  0.1094
20798SOL    HW163835   3.700   0.872   6.276 -0.3386 -1.7228 -1.1627
20798SOL    HW263836   3.599   0.865   6.389  1.0162 -0.5321  0.1688
20799SOL     OW63837   4.681   1.518   0.411  0.1810  0.6537 -0.1793
20799SOL    HW163838   4.767   1.494   0.377 -0.5733  0.1747 -1.8929
20799SOL    HW263839   4.698   1.552   0.499  1.9763 -0.5432 -0.0045
20800SOL     OW63840   1.728   4.309   5.993 -0.6015  0.2601 -0.0772
20800SOL    HW163841   1.790   4.236   5.994 -1.2218 -0.2849 -0.2241
20800SOL    HW263842   1.647   4.271   5.959 -0.6844  1.2354 -1.0118
20801SOL     OW63843   3.106   2.572  10.916  0.5819 -0.2251 -0.4008
20801SOL    HW163844   3.072   2.627  10.845  2.2426 -0.6531 -1.5977
20801SOL    HW263845   3.117   2.632  10.989  0.6838  0.6625 -1.1172
20802SOL     OW63846   2.788   0.586   2.669  0.4411  0.8315  0.4337
20802SOL    HW163847   2.708   0.565   2.718  0.6238  0.7258  0.6866
20802SOL    HW263848   2.793   0.682   2.671 -0.7492  0.9854 -1.2867
20803SOL     OW63849   1.489   7.571   9.151 -0.4428  0.1561 -0.4444
20803SOL    HW163850   1.417   7.560   9.213  0.5607  0.3846  0.8249
20803SOL    HW263851   1.528   7.484   9.144 -0.8164  0.0389 -1.1053
20804SOL     OW63852   7.002   3.261   9.075 -0.0687 -0.1972 -0.3135
20804SOL    HW163853   6.919   3.278   9.117 -0.4412 -0.7429 -0.8049
20804SOL    HW263854   7.022   3.340   9.025  0.0555  0.1972  0.3490
20805SOL     OW63855   5.239   3.634  11.059 -0.2477 -0.6703  0.6499
20805SOL    HW163856   5.161   3.588  11.089 -0.1598 -0.4476  1.2370
20805SOL    HW263857   5.300   3.629  11.133 -0.5227  1.0500  1.0425
20806SOL     OW63858   1.316   3.626   4.098 -0.2856  0.9213 -0.5254
20806SOL    HW163859   1.266   3.647   4.177  0.1874 -4.8326  1.7970
20806SOL    HW263860   1.408   3.639   4.123 -0.1885  0.7403 -0.7862
20807SOL     OW63861   2.546   6.993  11.774 -0.0124  0.3906 -0.0380
20807SOL    HW163862   2.535   6.998  11.679  1.2670  0.6680 -0.1889
20807SOL    HW263863   2.481   7.054  11.809  0.2647  1.1353 -0.7950
20808SOL     OW63864   7.414   0.559   9.300 -0.1162 -0.2967  0.0438
20808SOL    HW163865   7.344   0.622   9.285 -0.7412 -1.0849 -0.4537
20808SOL    HW263866   7.495   0.609   9.288 -0.5830 -0.0256 -2.4798
20809SOL     OW63867   4.687   7.548   2.995 -0.0039  0.3494  0.0088
20809SOL    HW163868   4.701   7.496   2.916  0.6382 -0.9349  0.9296
20809SOL    HW263869   4.763   7.529   3.050 -0.0687  1.7948  0.6510
20810SOL     OW63870   2.489   7.256   6.514  0.1838  0.2672  0.2949
20810SOL    HW163871   2.469   7.211   6.432  1.0450  0.4609 -0.0379
20810SOL    HW263872   2.585   7.258   6.517  0.1616  0.4001  1.2325
20811SOL     OW63873   4.169   4.093   2.376 -0.4701 -0.1265 -0.2925
20811SOL    HW163874   4.118   4.060   2.302  0.0429  1.0226 -1.1899
20811SOL    HW263875   4.259   4.099   2.344  0.6245 -3.4329  1.6797
20812SOL     OW63876   7.385   4.697  11.174 -0.0486  0.0954 -0.4723
20812SOL    HW163877   7.360   4.775  11.125  1.0633  0.8471  0.1088
20812SOL    HW263878   7.479   4.687  11.156  0.7513  1.2228  2.5460
20813SOL     OW63879   7.185   2.226   9.290 -0.6232  0.7355 -0.4526
20813SOL    HW163880   7.212   2.243   9.200  4.6187  2.4718  1.1256
20813SOL    HW263881   7.112   2.287   9.304  0.3351  2.5677 -2.6952
20814SOL     OW63882   3.981   0.601  12.031 -0.6502 -0.4107 -0.6222
20814SOL    HW163883   3.948   0.514  12.007 -2.5582 -0.1133  0.6320
20814SOL    HW263884   4.032   0.586  12.110 -4.1442 -0.0922  1.9384
20815SOL     OW63885   6.713   4.442   8.624 -0.7054  0.5014 -0.4700
20815SOL    HW163886   6.671   4.474   8.703 -0.6503 -0.4122 -0.0526
20815SOL    HW263887   6.674   4.355   8.609  1.0497 -0.4086 -0.0295
20816SOL     OW63888   5.350   2.375   2.226 -0.0771  0.4627  0.1052
20816SOL    HW163889   5.434   2.333   2.244  0.0741 -0.7419 -2.8111
20816SOL    HW263890   5.287   2.327   2.279  0.6289 -1.0114 -0.3470
20817SOL     OW63891   2.977   4.519   3.386  0.7506  0.2677  0.5510
20817SOL    HW163892   3.029   4.451   3.428  0.5322  1.7173  3.4091
20817SOL    HW263893   3.015   4.528   3.299  3.4038 -0.7066  1.5138
20818SOL     OW63894   2.385   3.844   3.992 -0.3191 -0.2058  0.6621
20818SOL    HW163895   2.389   3.855   3.897 -2.8590  2.0076  0.6897
20818SOL    HW263896   2.389   3.750   4.005  2.0426 -0.5079 -1.4400
20819SOL     OW63897   6.417   0.537   6.834  0.1534  0.7630 -0.0480
20819SOL    HW163898   6.445   0.628   6.824 -1.2402  1.2886  0.6117
20819SOL    HW263899   6.331   0.543   6.875 -0.2629 -0.8365 -0.6304
20820SOL     OW63900   1.322   2.614   7.333  0.3757 -0.5026 -0.1331
20820SOL    HW163901   1.234   2.591   7.363 -0.7367  2.3440 -0.8427
20820SOL    HW263902   1.381   2.558   7.383 -1.8199 -2.3649  0.5122
20821SOL     OW63903   4.626   2.272   9.651 -0.3733  0.0062 -0.2313
20821SOL    HW163904   4.654   2.342   9.710 -0.4909 -0.3961  0.3154
20821SOL    HW263905   4.533   2.260   9.672 -0.4230 -0.1227 -0.5210
20822SOL     OW63906   1.028   7.252   9.202  0.3196 -0.6057  0.0697
20822SOL    HW163907   1.120   7.261   9.180  0.1552  1.6832  0.1279
20822SOL    HW263908   1.020   7.163   9.236  2.2334 -1.2824 -1.1041
20823SOL     OW63909   1.435   0.516   6.428  0.2205  0.7615  0.1404
20823SOL    HW163910   1.449   0.580   6.358 -2.7381  1.4649  0.0343
20823SOL    HW263911   1.360   0.551   6.476  0.5097 -1.0756  2.0430
20824SOL     OW63912   0.923   0.583   6.580 -0.5504 -0.1903  0.1050
20824SOL    HW163913   0.992   0.549   6.637 -1.0121 -1.2986  0.0151
20824SOL    HW263914   0.852   0.607   6.639  0.9430  3.8192  0.5484
20825SOL     OW63915   4.911   5.022  12.303 -0.2531  0.2954 -0.0551
20825SOL    HW163916   4.968   4.974  12.364  0.0832 -0.2434 -0.7774
20825SOL    HW263917   4.826   5.025  12.347 -0.5689 -1.8828 -0.4362
20826SOL     OW63918   4.253   2.100   7.976 -0.2600 -0.3025  0.1401
20826SOL    HW163919   4.305   2.180   7.979  0.5167 -0.8154  0.6044
20826SOL    HW263920   4.198   2.110   7.898  0.0790  0.5202 -0.0031
20827SOL     OW63921   6.856   3.253   5.883  1.1962  0.2113  0.2038
20827SOL    HW163922   6.947   3.283   5.894  1.8219 -0.7428 -1.8639
20827SOL    HW263923   6.848   3.181   5.945  0.9926  1.8711  2.2150
20828SOL     OW63924   4.500   1.558   9.629 -0.7271  0.5754 -0.9902
20828SOL    HW163925   4.563   1.549   9.701 -0.5190 -1.2186 -1.3371
20828SOL    HW263926   4.497   1.652   9.610 -0.0114  0.9570  0.6610
20829SOL     OW63927   3.385   5.641  11.054 -0.1209  0.3305  0.5800
20829SOL    HW163928   3.419   5.723  11.089  0.0579  0.2449  0.6039
20829SOL    HW263929   3.446   5.574  11.083  0.5810  0.3801 -0.7032
20830SOL     OW63930   4.096   4.621   4.331 -0.1667  0.5900 -0.2833
20830SOL    HW163931   4.010   4.628   4.371  0.0767  0.7196  0.2338
20830SOL    HW263932   4.132   4.539   4.364  0.1539  0.8427  0.0043
20831SOL     OW63933   4.500   7.235   2.474 -0.0626  0.2591 -0.5570
20831SOL    HW163934   4.473   7.191   2.393  0.9697 -1.2412 -0.1236
20831SOL    HW263935   4.567   7.178   2.511 -1.0396  0.5144  1.7722
20832SOL     OW63936   3.299   1.104   5.251 -0.4127 -0.0013 -0.2383
20832SOL    HW163937   3.328   1.073   5.165 -0.3987 -1.5606  0.2994
20832SOL    HW263938   3.204   1.096   5.249 -0.3598 -0.7917  0.1545
20833SOL     OW63939   2.939   1.733   9.342  0.4326  0.2633 -0.0121
20833SOL    HW163940   2.886   1.686   9.406  2.7373 -3.3885 -0.4712
20833SOL    HW263941   2.970   1.810   9.389 -1.6356  0.1416  1.6907
20834SOL     OW63942   4.426   6.246   3.241  0.1884  0.1716 -0.3102
20834SOL    HW163943   4.476   6.167   3.259 -0.3773  0.1358  1.2811
20834SOL    HW263944   4.489   6.317   3.253  0.3073  0.0355 -0.1162
20835SOL     OW63945   5.499   5.396   2.280 -0.0156 -0.0788 -0.0847
20835SOL    HW163946   5.520   5.322   2.223  0.6316  0.5648 -0.6834
20835SOL    HW263947   5.573   5.401   2.341 -0.0975  0.0276  0.0066
20836SOL     OW63948   1.557   7.868   2.434  0.2004  0.2857 -0.1975
20836SOL    HW163949   1.572   7.963   2.435 -0.7782  0.4946 -1.6740
20836SOL    HW263950   1.503   7.851   2.510 -0.8492  1.1668 -0.7251
20837SOL     OW63951   2.769   6.833   7.050 -0.1039  0.3846 -0.5860
20837SOL    HW163952   2.725   6.772   6.990  0.3666  0.3843 -0.9291
20837SOL    HW263953   2.763   6.789   7.135  0.6074 -0.3547 -0.9025
20838SOL     OW63954   1.017   6.437   8.660  0.0297 -0.3119  0.5251
20838SOL    HW163955   1.080   6.368   8.681  0.4653 -0.4226 -1.0608
20838SOL    HW263956   0.933   6.391   8.654  0.0516 -0.4282  1.0249
20839SOL     OW63957   7.083   0.886   8.517 -0.0326  0.4846 -0.3675
20839SOL    HW163958   7.158   0.935   8.483  0.7799 -0.7789 -0.4710
20839SOL    HW263959   7.086   0.901   8.612 -0.7237  1.8636 -0.5431
20840SOL     OW63960   5.857   5.079   8.429  0.3985  0.2631 -0.0027
20840SOL    HW163961   5.803   5.145   8.471  0.8618 -0.0031  1.0473
20840SOL    HW263962   5.902   5.126   8.359 -0.2268  0.7686 -0.0722
20841SOL     OW63963   0.389   7.389   6.437 -0.3171 -1.0502 -0.2178
20841SOL    HW163964   0.385   7.309   6.490  1.6013  0.2466  2.1048
20841SOL    HW263965   0.402   7.358   6.348 -0.2266 -3.3226  0.5177
20842SOL     OW63966   0.871   3.036  12.150  0.1658  0.4034  0.1197
20842SOL    HW163967   0.810   3.023  12.077 -0.4508  0.1473  0.6694
20842SOL    HW263968   0.817   3.071  12.221  0.1574 -1.8892  1.3415
20843SOL     OW63969   5.797   5.051   5.967 -0.2896  0.0246 -0.0412
20843SOL    HW163970   5.721   5.049   6.025 -1.0237 -0.1695 -0.9807
20843SOL    HW263971   5.789   4.971   5.915  0.4227  0.1293 -0.3250
20844SOL     OW63972   1.265   2.525   8.007 -0.1242 -0.1916  0.2487
20844SOL    HW163973   1.331   2.584   8.045  0.8350 -1.2627  0.2945
20844SOL    HW263974   1.287   2.522   7.914  0.5627 -1.3615  0.4316
20845SOL     OW63975   3.198   1.326  10.215  0.1238 -0.9243 -0.2578
20845SOL    HW163976   3.105   1.323  10.239  0.2423 -0.7226  0.2347
20845SOL    HW263977   3.198   1.321  10.120 -0.3577 -1.7306 -0.2306
20846SOL     OW63978   3.227   5.515   4.178 -0.1570 -0.0520 -0.4244
20846SOL    HW163979   3.296   5.529   4.113  0.8700 -2.6377  0.0027
20846SOL    HW263980   3.178   5.440   4.146 -1.4224  0.3808  0.4007
20847SOL     OW63981   5.844   5.144   2.857 -0.5119  0.0403 -0.8069
20847SOL    HW163982   5.825   5.206   2.928 -0.1423 -2.3547  1.5384
20847SOL    HW263983   5.937   5.125   2.867 -0.8641 -1.7622 -0.6680
20848SOL     OW63984   0.024   5.977   8.665  0.4542  0.7086  0.0273
20848SOL    HW163985  -0.045   6.044   8.672  1.2746  1.6666 -0.7462
20848SOL    HW263986   0.059   5.989   8.577  2.5248  1.1574  0.8623
20849SOL     OW63987   6.051   7.295   1.585 -0.3347 -0.2690  0.3320
20849SOL    HW163988   6.135   7.258   1.610 -0.4157  0.0616  1.1066
20849SOL    HW263989   5.986   7.235   1.621 -0.4424 -0.1565  0.3258
20850SOL     OW63990   5.728   4.726   4.563  0.3929  0.0450  0.3464
20850SOL    HW163991   5.746   4.799   4.504 -2.4245 -0.5757 -1.4730
20850SOL    HW263992   5.759   4.649   4.515 -0.4844 -0.3117  0.3259
20851SOL     OW63993   7.654   6.293   5.453 -0.3670 -0.0567  0.9603
20851SOL    HW163994   7.686   6.225   5.512 -0.8011  0.3788  1.7163
20851SOL    HW263995   7.584   6.337   5.502  1.8842  2.9689  1.8130
20852SOL     OW63996   6.064   4.248   7.464 -0.0383 -0.2845  0.0013
20852SOL    HW163997   6.023   4.180   7.411  0.5409 -1.2031  0.7172
20852SOL    HW263998   5.999   4.270   7.531  0.3722 -1.3018  0.7573
20853SOL     OW63999   5.221   7.937   2.263  0.2193  0.1695  0.0589
20853SOL    HW164000   5.236   7.844   2.282 -0.1826  0.1170  0.1301
20853SOL    HW264001   5.207   7.977   2.349  0.4015  0.2975  0.0284
20854SOL     OW64002   5.686   6.373   2.587  0.3551 -0.0575  0.2934
20854SOL    HW164003   5.720   6.289   2.557  0.3386  0.2828 -0.6941
20854SOL    HW264004   5.763   6.423   2.614  0.4217 -0.1618  0.2932
20855SOL     OW64005   2.989   2.817   0.464  0.9688  0.2628  0.1191
20855SOL    HW164006   2.951   2.784   0.383 -0.1839  1.2299  0.2419
20855SOL    HW264007   3.056   2.879   0.435  1.9313 -0.8267 -0.0844
20856SOL     OW64008   3.151   6.372   7.251 -0.0202  0.0242  0.0663
20856SOL    HW164009   3.245   6.389   7.247  0.2868 -0.7695  2.4414
20856SOL    HW264010   3.144   6.278   7.265 -1.1915  0.0667 -0.1066
20857SOL     OW64011   1.619   0.665  11.320 -0.1075  0.0481  0.3355
20857SOL    HW164012   1.703   0.644  11.361 -0.6714  0.6085  1.8652
20857SOL    HW264013   1.569   0.584  11.326 -0.8225  0.5823  2.4861
20858SOL     OW64014   6.183   4.264   4.321  0.1968 -0.6299  0.1762
20858SOL    HW164015   6.140   4.183   4.292  1.2321 -2.6583  3.6461
20858SOL    HW264016   6.122   4.303   4.382  0.7744 -0.2252  0.5050
20859SOL     OW64017   1.396   2.713   2.506  1.0971  0.2046  0.0284
20859SOL    HW164018   1.418   2.769   2.580 -2.0666  1.7467 -0.0442
20859SOL    HW264019   1.424   2.763   2.429  1.0784  0.2393  0.0446
20860SOL     OW64020   7.172   5.576  11.681  0.3600 -0.0601  0.2634
20860SOL    HW164021   7.238   5.644  11.687  2.3263 -1.5823 -2.2034
20860SOL    HW264022   7.146   5.575  11.589 -0.1792 -2.1041  0.3811
20861SOL     OW64023   1.524   0.964   8.307  0.5984 -0.0668 -0.2732
20861SOL    HW164024   1.607   1.013   8.303 -0.1339  1.3120  0.5555
20861SOL    HW264025   1.460   1.023   8.268 -0.7608  0.7119  2.8715
20862SOL     OW64026   0.680   4.065  11.285  0.2887  0.4404  0.1510
20862SOL    HW164027   0.607   4.030  11.233  0.6395  0.2894 -0.2480
20862SOL    HW264028   0.678   4.013  11.366  0.2417  0.1151 -0.0535
20863SOL     OW64029   5.536   3.531   8.549 -0.7152 -0.4181 -0.6579
20863SOL    HW164030   5.479   3.458   8.523 -1.5547  0.2020 -0.6141
20863SOL    HW264031   5.507   3.554   8.637 -0.3863 -0.1006 -0.6320
20864SOL     OW64032   2.290   4.864  11.040 -0.1064  0.1353  0.0399
20864SOL    HW164033   2.359   4.883  10.976 -1.1793  0.3935 -1.0747
20864SOL    HW264034   2.211   4.904  11.004 -0.7899  0.1313  1.4524
20865SOL     OW64035   5.365   0.306   6.091 -0.2088  0.0846 -0.1820
20865SOL    HW164036   5.401   0.327   6.177 -0.1610  0.8255 -0.3827
20865SOL    HW264037   5.384   0.382   6.037 -3.3874  1.2105  0.0791
20866SOL     OW64038   0.998   1.470   2.743  0.0204 -0.1619 -0.0658
20866SOL    HW164039   1.025   1.381   2.767 -1.2007 -0.5707 -0.0988
20866SOL    HW264040   0.994   1.517   2.827 -1.1467 -0.6920  0.2078
20867SOL     OW64041   2.153   2.569  11.174 -0.1786 -0.6131  0.5046
20867SOL    HW164042   2.229   2.589  11.120 -0.6705 -0.8156 -0.2834
20867SOL    HW264043   2.143   2.474  11.166  0.6278 -0.8741  2.1662
20868SOL     OW64044   5.864   0.050   8.946  0.0251  0.1152  0.3748
20868SOL    HW164045   5.794   0.063   8.881  0.3114  1.4939  0.3072
20868SOL    HW264046   5.939   0.098   8.910  0.0476  1.3125  1.9259
20869SOL     OW64047   6.985   5.532   1.293  0.0070  0.3453 -0.0807
20869SOL    HW164048   7.062   5.487   1.330 -0.6030  0.7445  1.8061
20869SOL    HW264049   6.989   5.620   1.331 -2.1695 -0.0893  1.3416
20870SOL     OW64050   4.041   7.303   5.087 -0.7134  0.1913 -0.1309
20870SOL    HW164051   3.946   7.297   5.092 -0.7374  0.3921 -0.3478
20870SOL    HW264052   4.065   7.366   5.155 -0.9004  1.6096 -1.3220
20871SOL     OW64053   1.904   5.509  10.670 -0.6066 -0.3134  0.3645
20871SOL    HW164054   1.994   5.478  10.679 -0.4139  0.2178  0.2957
20871SOL    HW264055   1.894   5.575  10.739 -0.8118 -0.0764  0.1111
20872SOL     OW64056   5.104   4.783  12.170 -0.7540  0.1024 -0.5722
20872SOL    HW164057   5.178   4.826  12.212 -1.2306  0.7739 -0.4102
20872SOL    HW264058   5.130   4.774  12.078  0.8731 -2.6204  0.0497
20873SOL     OW64059   7.333   2.550   5.140  0.1000  0.0540 -0.1377
20873SOL    HW164060   7.328   2.457   5.160 -0.8217  0.4503  1.7345
20873SOL    HW264061   7.426   2.571   5.147  0.3644 -0.7646 -0.9289
20874SOL     OW64062   3.006   7.146  11.530  0.0597 -0.0592  0.1191
20874SOL    HW164063   2.993   7.101  11.446  1.4050 -0.3703  0.0486
20874SOL    HW264064   2.925   7.131  11.579 -0.1908 -1.0651 -0.5848
20875SOL     OW64065   5.292   3.080   6.215  0.2973  0.5705  0.0847
20875SOL    HW164066   5.343   3.156   6.242  0.0775  0.2746  1.3721
20875SOL    HW264067   5.248   3.109   6.135  2.9371  0.6315 -1.4865
20876SOL     OW64068   2.565   0.872   0.314 -0.4077 -0.1256  0.1959
20876SOL    HW164069   2.578   0.841   0.404  0.1202  0.0765  0.1945
20876SOL    HW264070   2.483   0.832   0.286  0.2971 -1.6223  0.1543
20877SOL     OW64071   5.127   2.838   7.757  0.8533  0.1246  0.3526
20877SOL    HW164072   5.085   2.840   7.671 -0.5871  0.1639  1.0280
20877SOL    HW264073   5.212   2.799   7.741  0.5102 -0.1110 -1.0484
20878SOL     OW64074   7.612   3.800   6.247 -0.1755  0.1847  0.4977
20878SOL    HW164075   7.669   3.766   6.316  1.0563 -0.3168 -0.7154
20878SOL    HW264076   7.652   3.770   6.165 -2.0049  0.1166 -0.4305
20879SOL     OW64077   6.436   0.403   0.344 -0.0271 -0.1179  0.0347
20879SOL    HW164078   6.430   0.387   0.250  2.5978 -0.2705 -0.1671
20879SOL    HW264079   6.447   0.316   0.383 -1.8069 -0.1337  0.6190
20880SOL     OW64080   2.519   7.066   6.033 -0.2334  0.0512  0.1344
20880SOL    HW164081   2.450   7.010   5.999 -0.6547  0.9457 -0.5438
20880SOL    HW264082   2.598   7.012   6.030  0.1298  0.5268 -3.9271
20881SOL     OW64083   6.121   6.255   1.167  0.2495  0.2111  0.4998
20881SOL    HW164084   6.071   6.325   1.126  1.4561  0.1064 -1.2964
20881SOL    HW264085   6.206   6.295   1.188  1.1867 -0.7700 -1.1182
20882SOL     OW64086   7.980   7.041   9.786 -0.1885  0.0749 -0.0453
20882SOL    HW164087   7.971   6.954   9.826 -1.1093  0.8324  1.4839
20882SOL    HW264088   7.935   7.034   9.702  1.0613 -1.3293 -0.6443
20883SOL     OW64089   6.492   6.320   4.829  0.2113  0.6729 -0.4141
20883SOL    HW164090   6.542   6.312   4.910  0.9040  0.3674 -0.8720
20883SOL    HW264091   6.445   6.237   4.821  0.8975  0.3173 -0.8228
20884SOL     OW64092   0.745   0.561   2.085 -0.2071  0.0028 -0.0202
20884SOL    HW164093   0.714   0.511   2.010  0.1777 -0.7441  0.3157
20884SOL    HW264094   0.691   0.641   2.084  0.3501  0.3957 -1.5601
20885SOL     OW64095   3.559   0.050   5.447 -0.0544 -0.6762  0.6118
20885SOL    HW164096   3.465   0.059   5.459  0.1542  0.9985  1.2657
20885SOL    HW264097   3.570  -0.033   5.400 -1.7682 -1.3882  1.3913
20886SOL     OW64098   7.182   0.906  12.240 -0.0674  0.3136 -0.1489
20886SOL    HW164099   7.129   0.950  12.307  1.3141  1.6083  0.1491
20886SOL    HW264100   7.215   0.828  12.282 -1.9968 -0.7334 -0.4579
20887SOL     OW64101   6.738   2.955   0.765 -0.4449  0.2108 -0.5989
20887SOL    HW164102   6.655   2.930   0.725 -0.4358  0.2263 -0.6276
20887SOL    HW264103   6.779   3.013   0.700 -0.9218  1.1333 -0.0880
20888SOL     OW64104   2.974   3.358   4.743 -0.2439  0.2548  0.2526
20888SOL    HW164105   2.975   3.453   4.754 -2.1137  0.1862  1.4399
20888SOL    HW264106   2.881   3.335   4.740  0.1687 -1.4805 -0.7954
20889SOL     OW64107   5.836   1.089   8.726 -0.1496 -0.3806  0.1861
20889SOL    HW164108   5.891   1.125   8.657 -0.5240 -0.7728 -0.3327
20889SOL    HW264109   5.897   1.056   8.792  0.2505 -1.1367 -0.5498
20890SOL     OW64110   4.861   6.385   8.106 -0.2157  0.1194 -0.3513
20890SOL    HW164111   4.896   6.296   8.105  1.5186  0.7652 -1.0665
20890SOL    HW264112   4.934   6.440   8.080 -1.8665  1.5397 -2.4205
20891SOL     OW64113   7.555   6.083   5.867  0.6123 -0.5245 -0.1919
20891SOL    HW164114   7.507   6.113   5.944  2.1918  2.4843 -0.2377
20891SOL    HW264115   7.495   6.099   5.794  0.0165 -1.0849  0.1680
20892SOL     OW64116   0.638   7.437   8.237 -0.7916  0.3144 -0.1182
20892SOL    HW164117   0.628   7.377   8.311 -1.2404 -0.3253 -0.6817
20892SOL    HW264118   0.559   7.490   8.238 -0.5803  0.6265  0.1395
20893SOL     OW64119   7.159   5.119   9.109  0.1878 -0.0616  0.1609
20893SOL    HW164120   7.158   5.146   9.017 -0.4429 -0.0995  0.1521
20893SOL    HW264121   7.136   5.026   9.107 -0.3162  0.0557  0.3917
20894SOL     OW64122   6.580   5.311   9.859  0.4837  0.0302  0.5707
20894SOL    HW164123   6.560   5.404   9.863  0.5887  0.1978 -1.4088
20894SOL    HW264124   6.533   5.272   9.933 -0.5379  1.4914  0.7259
20895SOL     OW64125   6.427   6.758   7.776 -0.0605 -0.6231 -0.0094
20895SOL    HW164126   6.355   6.819   7.759 -0.6791 -0.3337  3.0735
20895SOL    HW264127   6.503   6.797   7.734 -1.0562  0.6823 -0.6582
20896SOL     OW64128   7.317   7.428   2.217  0.0931  0.0586  0.4749
20896SOL    HW164129   7.341   7.511   2.258 -0.6243  0.1223  0.7802
20896SOL    HW264130   7.362   7.361   2.269  0.1414  0.2114  0.6286
20897SOL     OW64131   3.675   3.780   6.358  0.2466  0.1369  0.0925
20897SOL    HW164132   3.601   3.730   6.394  1.2349 -1.2524  0.2915
20897SOL    HW264133   3.726   3.805   6.434 -0.7802  2.4685  0.0923
20898SOL     OW64134   1.410   5.940   7.573 -0.1855 -0.4322 -0.0735
20898SOL    HW164135   1.429   6.012   7.513  0.7165  2.1087  2.9864
20898SOL    HW264136   1.325   5.906   7.544  0.2772  0.4918 -2.8102
20899SOL     OW64137   2.340   0.451   3.915  0.3613  0.1758 -0.4656
20899SOL    HW164138   2.398   0.375   3.906  2.9209  1.4157  2.9735
20899SOL    HW264139   2.400   0.526   3.909 -1.0808  1.6068  1.8801
20900SOL     OW64140   0.529   1.757   1.576  0.3499 -0.0476 -0.6776
20900SOL    HW164141   0.452   1.757   1.632  2.2606  2.9317  2.3190
20900SOL    HW264142   0.565   1.669   1.584 -0.8457 -0.4386  0.7258
20901SOL     OW64143   6.984   7.180   7.396  0.1098  0.3417  0.6394
20901SOL    HW164144   6.969   7.085   7.400  0.8337  0.2133  0.5621
20901SOL    HW264145   7.041   7.191   7.319  1.0959  0.6875  1.4009
20902SOL     OW64146   7.130   2.119   2.980  0.0687 -0.1875  0.1954
20902SOL    HW164147   7.175   2.187   2.930 -0.4297  1.0650  1.3931
20902SOL    HW264148   7.145   2.142   3.072 -1.3909 -0.8033  0.6237
20903SOL     OW64149   5.638   4.476   7.349 -0.0659 -0.1896  0.3925
20903SOL    HW164150   5.709   4.529   7.312 -1.5047  0.1362 -2.1488
20903SOL    HW264151   5.675   4.439   7.429  2.7000  0.5514 -0.4222
20904SOL     OW64152   2.407   0.303   4.648  0.0087  0.0007 -0.4418
20904SOL    HW164153   2.378   0.351   4.725 -1.6318 -1.9433  0.2716
20904SOL    HW264154   2.382   0.359   4.574 -2.3998  0.0754  0.3221
20905SOL     OW64155   1.891   7.074   7.942 -0.0298 -0.2139 -0.6334
20905SOL    HW164156   1.976   7.075   7.985 -0.9577  0.1035  1.3212
20905SOL    HW264157   1.894   7.146   7.880  0.7016  0.5873  0.3059
20906SOL     OW64158   5.960   6.480   1.066 -0.2137 -0.2338 -0.0150
20906SOL    HW164159   5.965   6.539   0.992  1.2754 -0.7214 -0.3331
20906SOL    HW264160   5.887   6.421   1.046  0.7196 -0.9225 -1.5367
20907SOL     OW64161   7.599   3.827   5.048 -0.6270 -0.1543 -0.1270
20907SOL    HW164162   7.607   3.784   4.963 -2.4754  0.0953 -0.4515
20907SOL    HW264163   7.514   3.870   5.046  0.0902  1.4346  1.1586
20908SOL     OW64164   3.426   1.467  10.788 -0.1172 -0.1811 -0.6994
20908SOL    HW164165   3.363   1.401  10.760  0.4810 -1.4303  0.7029
20908SOL    HW264166   3.443   1.520  10.710 -3.0888  0.4189 -1.0238
20909SOL     OW64167   4.387   6.066   7.159 -0.4584 -0.7002 -0.4446
20909SOL    HW164168   4.444   6.025   7.224  0.4817  1.0468 -0.0900
20909SOL    HW264169   4.417   6.157   7.156 -1.7342 -0.2932 -1.9581
20910SOL     OW64170   0.221   6.588  10.206 -0.4147  0.3091  0.0741
20910SOL    HW164171   0.301   6.553  10.245 -0.4621  0.3112  0.1752
20910SOL    HW264172   0.245   6.675  10.175  0.1407 -0.4237 -1.6430
20911SOL     OW64173   7.858   2.270   0.626  0.0399 -0.2067 -1.1474
20911SOL    HW164174   7.883   2.178   0.640  1.0470  0.2618  0.4103
20911SOL    HW264175   7.940   2.319   0.636 -0.3957  0.8370 -2.4527
20912SOL     OW64176   0.990   5.288   6.124 -0.0924  0.4764  0.4324
20912SOL    HW164177   0.967   5.196   6.119 -1.6683  0.8932 -1.4034
20912SOL    HW264178   1.062   5.298   6.062  2.0887  0.0414  2.7280
20913SOL     OW64179   4.778   6.194   2.913 -0.3747  0.5154 -0.1680
20913SOL    HW164180   4.826   6.233   2.839 -1.9713  2.9505 -0.0601
20913SOL    HW264181   4.694   6.168   2.875 -1.5690  2.5981  0.8232
20914SOL     OW64182   5.257   7.836   0.497  0.1477  0.7072  0.1974
20914SOL    HW164183   5.331   7.780   0.522  0.5340  1.3990  0.6438
20914SOL    HW264184   5.206   7.783   0.436  0.5045 -0.1323  0.6119
20915SOL     OW64185   4.850   1.881   4.731 -0.0892 -0.1331 -0.6643
20915SOL    HW164186   4.884   1.908   4.817  0.5560  0.7139 -1.1686
20915SOL    HW264187   4.766   1.925   4.723 -1.3842 -2.2342  0.5903
20916SOL     OW64188   2.492   0.017  10.903  0.2666 -0.0121 -0.6100
20916SOL    HW164189   2.520   0.102  10.868  0.5669 -0.2668 -1.0070
20916SOL    HW264190   2.451   0.037  10.986  0.0318  0.5590 -0.8601
20917SOL     OW64191   4.810   6.797  11.844  0.6776 -0.3878  0.7345
20917SOL    HW164192   4.762   6.715  11.858  1.1705 -0.8813 -0.3132
20917SOL    HW264193   4.750   6.851  11.792  1.0860 -0.8726 -0.2804
20918SOL     OW64194   3.517   6.753   5.019 -0.4854 -0.6130 -0.0729
20918SOL    HW164195   3.606   6.780   5.043 -0.8794 -1.3862  2.4619
20918SOL    HW264196   3.475   6.833   4.989  0.5270  0.1108  0.3756
20919SOL     OW64197   6.623   6.051   6.202  0.1543 -0.3871 -0.2741
20919SOL    HW164198   6.589   6.076   6.117  0.3384 -1.5045 -0.6840
20919SOL    HW264199   6.668   6.130   6.233 -0.8354  0.3738 -0.7107
20920SOL     OW64200   4.148   7.569  11.102  0.1184 -0.1096 -0.3661
20920SOL    HW164201   4.138   7.638  11.036  0.5076 -0.0682 -0.3891
20920SOL    HW264202   4.062   7.528  11.108 -0.0481  0.2074 -0.5439
20921SOL     OW64203   0.436   3.650   1.234 -0.8692  0.2385 -0.2290
20921SOL    HW164204   0.487   3.710   1.180  2.0648 -0.5526  1.4639
20921SOL    HW264205   0.411   3.580   1.174  2.0432 -0.4847 -0.7587
20922SOL     OW64206   4.810   5.171   3.972 -0.2774  0.6999  0.2022
20922SOL    HW164207   4.764   5.246   4.010  0.6226  1.0334  0.6607
20922SOL    HW264208   4.898   5.177   4.007  0.0210 -0.1400 -0.3781
20923SOL     OW64209   7.493   1.449   2.053  0.1955 -0.0930  0.2087
20923SOL    HW164210   7.525   1.411   1.972 -0.9417  0.1902 -0.3879
20923SOL    HW264211   7.548   1.410   2.121  1.7670  0.3547 -0.7621
20924SOL     OW64212   6.482   5.657   9.530 -0.0319  0.1617 -0.4229
20924SOL    HW164213   6.525   5.653   9.445 -0.5179  0.7974 -0.7049
20924SOL    HW264214   6.389   5.666   9.511 -0.5049 -2.4823  0.1764
20925SOL     OW64215   7.630   2.223  10.852 -0.3101 -0.0689 -0.8448
20925SOL    HW164216   7.580   2.265  10.922  1.2933  1.3665 -0.4981
20925SOL    HW264217   7.563   2.183  10.796 -1.6975 -0.2041  0.8144
20926SOL     OW64218   4.649   0.105   1.302 -0.1459 -0.4379 -0.1294
20926SOL    HW164219   4.650   0.186   1.252  1.2861 -1.5383 -2.0432
20926SOL    HW264220   4.631   0.037   1.237 -0.3474 -1.7585  1.2413
20927SOL     OW64221   4.803   5.515   5.204 -0.1684  0.2194 -0.4707
20927SOL    HW164222   4.818   5.443   5.143 -2.3941  0.6916 -1.6754
20927SOL    HW264223   4.794   5.592   5.148 -0.3167  1.0086  0.6127
20928SOL     OW64224   1.761   0.851  10.941 -0.4254  0.2831 -0.2977
20928SOL    HW164225   1.842   0.885  10.979  1.2591 -2.3452 -1.2942
20928SOL    HW264226   1.702   0.844  11.016  1.9215 -2.2608  1.5182
20929SOL     OW64227   2.335   5.367   5.435 -0.1770  0.0278 -0.5173
20929SOL    HW164228   2.429   5.375   5.449 -0.1750 -1.6788  0.8196
20929SOL    HW264229   2.297   5.442   5.481  0.3786 -1.1320  2.0146
20930SOL     OW64230   7.930   1.277   1.148 -0.1367  0.3313 -0.2223
20930SOL    HW164231   7.989   1.346   1.120  4.0707 -2.4385  0.8843
20930SOL    HW264232   7.903   1.302   1.236  0.1876  1.2386 -0.3766
20931SOL     OW64233   4.254   2.156   8.874  1.0098 -0.5199  0.2001
20931SOL    HW164234   4.243   2.231   8.932 -0.5506  0.4858 -1.3050
20931SOL    HW264235   4.215   2.083   8.922  0.0284  0.2235  0.5669
20932SOL     OW64236   2.532   7.367   9.817 -0.2591  0.0479 -0.2403
20932SOL    HW164237   2.584   7.360   9.897 -1.0528 -1.0219  0.2137
20932SOL    HW264238   2.579   7.315   9.752  1.3354  2.3322 -1.0572
20933SOL     OW64239   1.593   5.371  10.791  0.2943  0.2708 -0.5455
20933SOL    HW164240   1.626   5.289  10.755 -0.4254  0.5407 -1.9082
20933SOL    HW264241   1.526   5.345  10.855  0.9572 -0.2094 -0.0355
20934SOL     OW64242   4.821   7.961  10.079 -0.2889 -0.4379 -0.3412
20934SOL    HW164243   4.874   7.930  10.152 -1.0963 -0.5701  0.2043
20934SOL    HW264244   4.830   8.056  10.081  1.0453 -0.5394 -1.1256
20935SOL     OW64245   6.550   1.306   7.383  0.2868 -0.2197  0.3750
20935SOL    HW164246   6.617   1.355   7.432  0.2672 -0.3540  0.5355
20935SOL    HW264247   6.490   1.274   7.449  0.8284 -1.2871  0.3773
20936SOL     OW64248   1.755   0.012   6.852 -0.5792 -0.1632 -0.7838
20936SOL    HW164249   1.742   0.094   6.900  1.0684 -0.1075 -0.3438
20936SOL    HW264250   1.706   0.022   6.771 -1.5941  0.6561 -0.0907
20937SOL     OW64251   6.717   7.930  11.307  0.1091 -0.0981 -0.2158
20937SOL    HW164252   6.629   7.912  11.274  0.7852  0.4895 -2.5202
20937SOL    HW264253   6.727   8.025  11.297  0.8047 -0.0725  0.6047
20938SOL     OW64254   5.593   4.342   7.603  0.6587 -0.0662 -0.0968
20938SOL    HW164255   5.540   4.270   7.638 -0.4419 -0.3989 -2.2835
20938SOL    HW264256   5.537   4.419   7.612  1.9791  0.6920  2.5968
20939SOL     OW64257   1.477   4.229   4.758  0.4107  0.6151 -0.0304
20939SOL    HW164258   1.461   4.323   4.766 -0.2042  0.5157 -0.0229
20939SOL    HW264259   1.409   4.199   4.697 -0.7915 -0.1899  1.6516
20940SOL     OW64260   1.175   5.708  11.461  0.4450 -0.3533  0.6448
20940SOL    HW164261   1.262   5.682  11.431 -0.4173 -2.8406  0.0492
20940SOL    HW264262   1.118   5.690  11.387 -0.4029  3.2606  0.2263
20941SOL     OW64263   3.994   3.404   2.187 -0.2313  0.0483 -0.8772
20941SOL    HW164264   4.066   3.430   2.244  0.8371 -0.1345 -2.0975
20941SOL    HW264265   4.014   3.445   2.103 -1.3590 -0.3249 -1.3484
20942SOL     OW64266   5.747   7.386   0.996  0.3282  0.4153  0.1313
20942SOL    HW164267   5.749   7.440   0.918  1.4322  0.0195 -0.1363
20942SOL    HW264268   5.666   7.410   1.041 -0.4760  0.4230 -1.2827
20943SOL     OW64269   1.866   7.227   4.790 -0.0854 -0.7030 -0.4050
20943SOL    HW164270   1.869   7.195   4.700 -1.7448  0.9836 -1.1258
20943SOL    HW264271   1.867   7.323   4.782 -1.5173 -0.4891  1.2935
20944SOL     OW64272   6.503   3.131   6.850  0.3772 -0.0882  0.5438
20944SOL    HW164273   6.505   3.183   6.770 -0.9856 -2.2255 -0.9827
20944SOL    HW264274   6.561   3.057   6.833 -1.5677 -1.7198  0.5964
20945SOL     OW64275   7.773   5.422   1.909 -0.2281 -0.0963  0.1719
20945SOL    HW164276   7.751   5.383   1.994  1.4796 -0.0046  0.6804
20945SOL    HW264277   7.799   5.347   1.855  2.0792  0.1588  0.8412
20946SOL     OW64278   0.610   7.022  10.322 -0.0912  0.0904  0.3574
20946SOL    HW164279   0.567   6.938  10.330  0.9181 -0.5254 -0.3426
20946SOL    HW264280   0.701   7.001  10.298  0.0409  1.3680 -0.4226
20947SOL     OW64281   6.441   0.898   4.198 -0.0800 -0.1846  0.2045
20947SOL    HW164282   6.394   0.821   4.230 -1.2882  0.5427  0.2333
20947SOL    HW264283   6.464   0.946   4.278  0.1643 -0.2187  0.1562
20948SOL     OW64284   6.934   4.818   8.178  0.2241 -0.1566  0.4108
20948SOL    HW164285   6.876   4.884   8.216  0.1458 -0.9547  1.7560
20948SOL    HW264286   6.890   4.791   8.098 -1.2956 -0.7190  1.3798
20949SOL     OW64287   6.582   6.778  10.580 -0.4340  0.0017  0.0758
20949SOL    HW164288   6.628   6.861  10.572 -0.1098 -0.1725  0.0865
20949SOL    HW264289   6.521   6.791  10.652 -0.4597  0.2650  0.0071
20950SOL     OW64290   0.380   5.695   6.582  0.1662 -0.8245 -0.1340
20950SOL    HW164291   0.409   5.785   6.568 -0.2289 -1.0509 -2.9526
20950SOL    HW264292   0.461   5.645   6.597  0.7866 -0.5496 -2.2793
20951SOL     OW64293   4.284   7.585   6.857 -0.1091 -0.1997 -0.4377
20951SOL    HW164294   4.278   7.664   6.909  1.9024 -0.7241  0.6948
20951SOL    HW264295   4.359   7.537   6.893  1.3804 -0.6426 -3.7124
20952SOL     OW64296   1.801   4.909   1.167 -0.5779  0.1638 -0.1162
20952SOL    HW164297   1.708   4.927   1.178 -0.5272  1.1541 -1.1579
20952SOL    HW264298   1.805   4.817   1.141 -1.0224 -0.8278  2.9095
20953SOL     OW64299   1.158   7.047   5.704  0.2450 -0.0800 -0.2722
20953SOL    HW164300   1.217   6.982   5.665 -0.5940 -0.8017 -0.3636
20953SOL    HW264301   1.180   7.128   5.658 -0.4301 -0.8179 -2.0167
20954SOL     OW64302   1.142   5.292  11.951  1.0019  0.3427  0.1885
20954SOL    HW164303   1.207   5.308  12.020 -0.7884  1.9631  1.6154
20954SOL    HW264304   1.059   5.280  11.999 -0.0295 -0.0669 -1.6190
20955SOL     OW64305   6.966   4.439  12.360  0.7034  0.5004  0.3123
20955SOL    HW164306   6.916   4.407  12.285  1.3538  0.5855 -0.1750
20955SOL    HW264307   6.940   4.530  12.370 -0.1235  0.2151  0.8253
20956SOL     OW64308   6.908   4.534   5.106  0.2958 -0.1609  0.2187
20956SOL    HW164309   6.956   4.531   5.188  2.1872 -0.9560 -0.8492
20956SOL    HW264310   6.932   4.618   5.067 -0.9191  0.3977  0.6246
20957SOL     OW64311   3.652   6.219   7.789 -0.2977 -0.1567  0.0166
20957SOL    HW164312   3.583   6.279   7.761 -0.2574 -0.3068 -0.4102
20957SOL    HW264313   3.604   6.147   7.831 -0.3058  0.5139  1.1963
20958SOL     OW64314   1.800   6.816   4.018  0.4568 -0.7086  0.0721
20958SOL    HW164315   1.778   6.797   3.927  3.6257  1.8326 -1.4254
20958SOL    HW264316   1.864   6.748   4.041  2.7723  0.9128 -1.1613
20959SOL     OW64317   2.859   0.613   1.355 -0.2572  0.9022  0.0244
20959SOL    HW164318   2.893   0.545   1.412 -1.5009  0.5221  0.3351
20959SOL    HW264319   2.917   0.612   1.278  0.1233 -0.0454  0.3214
20960SOL     OW64320   4.195   6.481   9.258 -0.0265 -0.4280  0.1272
20960SOL    HW164321   4.192   6.395   9.217  1.6331  0.7703 -2.8044
20960SOL    HW264322   4.127   6.532   9.213  0.1819  0.2652  0.5712
20961SOL     OW64323   5.091   5.486   8.111 -0.0995  0.2814 -0.0070
20961SOL    HW164324   5.114   5.552   8.046  0.6930 -1.3721 -1.4864
20961SOL    HW264325   4.998   5.471   8.097  0.1751 -0.4418 -1.1541
20962SOL     OW64326   6.082   3.068   0.205 -0.0181 -0.1308  0.1410
20962SOL    HW164327   6.078   3.163   0.213  1.5165  0.0843 -1.2123
20962SOL    HW264328   6.156   3.042   0.260  0.5083 -0.3698 -0.6697
20963SOL     OW64329   6.606   1.562   8.190  0.1775 -0.5077 -0.1263
20963SOL    HW164330   6.647   1.556   8.103  3.7701  0.7185  1.2864
20963SOL    HW264331   6.584   1.655   8.199  0.3768 -0.5124  0.4609
20964SOL     OW64332   0.282   7.798   0.615  0.5455 -0.5925 -0.3589
20964SOL    HW164333   0.303   7.816   0.524  0.0205 -3.6359 -1.2222
20964SOL    HW264334   0.189   7.819   0.623  0.5570 -0.4577 -0.5808
20965SOL     OW64335   5.994   0.331   9.763 -0.2799 -0.3354  0.3986
20965SOL    HW164336   5.915   0.279   9.778 -1.3337 -0.1629 -3.4957
20965SOL    HW264337   5.964   0.422   9.770 -0.7155 -0.2565 -1.7291
20966SOL     OW64338   7.937   4.596   2.377  0.1835  0.2913 -0.9615
20966SOL    HW164339   7.884   4.547   2.314 -2.0545 -0.8895  1.6357
20966SOL    HW264340   7.981   4.528   2.429 -0.0127  1.1315  0.3342
20967SOL     OW64341   6.888   2.832   8.373  0.6505 -0.2126 -0.2490
20967SOL    HW164342   6.866   2.757   8.428  1.2724 -1.1883 -1.2858
20967SOL    HW264343   6.915   2.900   8.435 -0.3412 -0.6889  0.7314
20968SOL     OW64344   0.424   5.623   6.279 -0.0071 -0.2564  0.3352
20968SOL    HW164345   0.373   5.624   6.360 -1.0002  1.4463 -0.2445
20968SOL    HW264346   0.494   5.687   6.294  1.2057 -1.6099  0.6409
20969SOL     OW64347   1.389   1.568   0.089  0.1396  0.4650  0.7222
20969SOL    HW164348   1.440   1.603   0.162  0.2068  1.7442  0.1039
20969SOL    HW264349   1.428   1.483   0.071  0.0882  0.1038  2.1892
20970SOL     OW64350   6.397   5.681   1.610 -0.0068  0.1807  0.5133
20970SOL    HW164351   6.380   5.761   1.559 -1.0494  0.6140  1.4894
20970SOL    HW264352   6.371   5.704   1.699  4.6342  0.4776  2.0289
20971SOL     OW64353   5.711   4.276  10.978  0.4679  0.3019  0.0688
20971SOL    HW164354   5.758   4.321  10.909  0.6994  0.6563  0.4552
20971SOL    HW264355   5.725   4.329  11.056  0.9051 -0.5347  0.5759
20972SOL     OW64356   1.646   4.938   0.576 -0.2568 -0.2018 -0.0693
20972SOL    HW164357   1.641   4.843   0.579  0.2001 -0.3815 -2.8058
20972SOL    HW264358   1.554   4.967   0.568 -0.2607 -0.6902 -2.6755
20973SOL     OW64359   0.087   4.141   3.301  0.0377 -0.7361 -0.4406
20973SOL    HW164360   0.058   4.182   3.219  0.8105 -0.6281 -0.6642
20973SOL    HW264361   0.172   4.104   3.280  0.3972 -0.4126  0.4126
20974SOL     OW64362   2.260   3.785   9.961 -1.1007 -0.4520  0.0314
20974SOL    HW164363   2.336   3.831   9.996 -1.9012  0.8445  0.1505
20974SOL    HW264364   2.296   3.711   9.914  0.3315  0.7591 -0.8710
20975SOL     OW64365   6.381   3.680  11.473 -0.4365  0.1475  0.1787
20975SOL    HW164366   6.419   3.597  11.442  2.0605  1.2630 -0.0457
20975SOL    HW264367   6.339   3.718  11.395  0.9271  0.3607 -0.4891
20976SOL     OW64368   4.810   4.289  10.647 -0.3615  0.6811 -0.2912
20976SOL    HW164369   4.875   4.282  10.578  1.1416 -1.1126  1.2105
20976SOL    HW264370   4.825   4.376  10.686  0.4205  0.7154 -0.6528
20977SOL     OW64371   0.034   0.220  12.104  0.3785  0.2190  0.0865
20977SOL    HW164372   0.059   0.253  12.018  0.2991  0.1208  0.0249
20977SOL    HW264373   0.089   0.143  12.116  0.6923  0.4813  0.3083
20978SOL     OW64374   3.262   4.935   7.800  0.6746  0.0439 -0.1282
20978SOL    HW164375   3.236   5.011   7.852 -2.4239 -0.4062 -0.8412
20978SOL    HW264376   3.264   4.862   7.862  1.0825  0.2119  0.0647
20979SOL     OW64377   7.212   2.718   5.515 -0.3395  0.1812 -0.4643
20979SOL    HW164378   7.225   2.705   5.608 -2.9224  0.2946 -0.0240
20979SOL    HW264379   7.160   2.643   5.486 -0.4556  0.6575 -1.5858
20980SOL     OW64380   2.787   7.847  10.223  0.0555  0.3784 -0.4912
20980SOL    HW164381   2.717   7.783  10.235  0.5295 -0.6646 -2.6645
20980SOL    HW264382   2.861   7.810  10.270 -0.2043  0.2964 -0.1460
20981SOL     OW64383   1.026   1.743   7.388  0.2347  0.4910 -0.7173
20981SOL    HW164384   1.078   1.823   7.383  1.1857 -0.0581  0.0179
20981SOL    HW264385   0.948   1.762   7.335  1.1874  1.3113 -1.8838
20982SOL     OW64386   5.198   3.481   0.634  0.2893 -0.3379  0.0152
20982SOL    HW164387   5.119   3.512   0.679  0.5857 -0.6018  0.7312
20982SOL    HW264388   5.231   3.559   0.588  0.1448  0.0149  0.5027
20983SOL     OW64389   5.127   2.247   6.832 -0.3245  0.6700  0.0526
20983SOL    HW164390   5.187   2.249   6.907  0.2809  0.3574 -0.4092
20983SOL    HW264391   5.060   2.312   6.853 -0.7845 -0.1907  1.3689
20984SOL     OW64392   7.725   4.996   7.259  0.5252  0.1283  0.6054
20984SOL    HW164393   7.725   4.969   7.168 -1.4871  0.5454  0.4247
20984SOL    HW264394   7.741   4.916   7.308  0.1501 -0.3791 -0.0853
20985SOL     OW64395   2.607   5.395   5.495 -0.1395  0.1016  0.3984
20985SOL    HW164396   2.651   5.385   5.411 -1.2826 -0.2102 -0.1798
20985SOL    HW264397   2.675   5.430   5.554  1.0060 -0.8572 -0.3167
20986SOL     OW64398   5.320   2.742  11.084  0.0326 -0.1768 -0.0018
20986SOL    HW164399   5.266   2.808  11.128  0.2709 -0.1321  0.2286
20986SOL    HW264400   5.257   2.677  11.052 -0.1370 -0.3046  0.5720
20987SOL     OW64401   2.786   7.199   5.550  0.0519 -0.4661  0.0765
20987SOL    HW164402   2.781   7.228   5.459 -3.2371 -0.8418  0.0180
20987SOL    HW264403   2.784   7.281   5.600 -1.8770 -0.2685 -0.2151
20988SOL     OW64404   2.625   5.253   5.010 -0.5282 -0.5665  0.2891
20988SOL    HW164405   2.538   5.222   4.988 -0.9617  1.7989 -1.8305
20988SOL    HW264406   2.624   5.346   4.987  2.6383 -0.5065 -0.0787
20989SOL     OW64407   7.354   6.447  12.068  0.4471  0.4005  0.4994
20989SOL    HW164408   7.335   6.522  12.011  1.6367  0.2962 -0.0541
20989SOL    HW264409   7.397   6.384  12.011  1.4860  0.2111  1.4631
20990SOL     OW64410   1.706   1.056  11.295  0.0295 -0.1550 -0.1773
20990SOL    HW164411   1.799   1.032  11.298 -0.0040 -0.6305 -1.8296
20990SOL    HW264412   1.668   0.995  11.231 -1.5882 -0.4852  1.0481
20991SOL     OW64413   6.615   4.402   9.254  1.0106 -0.3609 -0.0756
20991SOL    HW164414   6.592   4.492   9.234  1.0228 -0.5449 -0.9549
20991SOL    HW264415   6.586   4.352   9.178 -0.9194 -1.4271  1.2857
20992SOL     OW64416   4.447   2.017   5.899 -0.3296  0.1254 -0.1784
20992SOL    HW164417   4.431   2.111   5.905 -3.0525 -0.3103  1.1706
20992SOL    HW264418   4.368   1.982   5.856 -0.0560 -1.6654  0.6633
20993SOL     OW64419   6.650   4.286   4.341  0.3430  0.5609  0.8023
20993SOL    HW164420   6.665   4.215   4.403 -1.3071 -0.4191  0.1224
20993SOL    HW264421   6.738   4.315   4.318  1.0546 -0.9661  1.4256
20994SOL     OW64422   4.583   0.244   9.781 -0.1749  0.5300  0.1493
20994SOL    HW164423   4.521   0.313   9.755  0.4465  0.3052 -2.1975
20994SOL    HW264424   4.528   0.165   9.789 -0.6548  0.9642  1.3458
20995SOL     OW64425   3.016   1.365   7.844 -0.0370 -0.2505 -0.4423
20995SOL    HW164426   2.927   1.386   7.872 -0.1786 -1.4146  0.0532
20995SOL    HW264427   3.058   1.450   7.832 -0.7708  0.3180  0.7971
20996SOL     OW64428   2.201   3.658   8.520 -0.3813  0.5487  0.0712
20996SOL    HW164429   2.171   3.748   8.534 -1.6383  0.0035  1.0792
20996SOL    HW264430   2.206   3.620   8.608  3.6630  0.6275  0.0950
20997SOL     OW64431   1.368   0.196   4.467  0.0991 -0.2006  0.0464
20997SOL    HW164432   1.435   0.143   4.425  1.5843 -0.1772  2.2369
20997SOL    HW264433   1.366   0.165   4.557 -0.9849  1.5772  0.6855
20998SOL     OW64434   1.090   4.179   9.684 -0.4064 -0.0254 -0.3012
20998SOL    HW164435   1.142   4.197   9.763  0.6377 -1.0660 -0.7380
20998SOL    HW264436   1.011   4.232   9.696 -1.2109 -1.6360  2.3991
20999SOL     OW64437   3.375   7.554   2.787  0.1183 -0.2011  0.0104
20999SOL    HW164438   3.424   7.622   2.834  0.1497 -0.6662  0.6741
20999SOL    HW264439   3.312   7.522   2.852 -0.6238 -0.0634 -0.6309
21000SOL     OW64440   5.040   0.070   8.528  0.5845 -0.0071  0.4714
21000SOL    HW164441   4.946   0.055   8.527  0.5398  0.0225 -2.0203
21000SOL    HW264442   5.051   0.152   8.577 -0.8135  0.5938 -0.1678
21001SOL     OW64443   2.633   5.973   1.001  0.1843  0.0331  0.5433
21001SOL    HW164444   2.616   6.067   1.004 -1.1860 -0.1999  0.9056
21001SOL    HW264445   2.700   5.962   0.933 -0.8491  1.1094 -0.6934
21002SOL     OW64446   1.113   3.244   0.375  0.0560 -0.1014  0.3418
21002SOL    HW164447   1.030   3.290   0.387 -0.1937 -0.7523  1.2229
21002SOL    HW264448   1.179   3.302   0.413  0.1536  0.8356 -1.1761
21003SOL     OW64449   1.583   3.792   4.907 -0.0965 -0.4278 -0.1396
21003SOL    HW164450   1.612   3.876   4.872  0.1572 -0.2669  0.4467
21003SOL    HW264451   1.500   3.811   4.950  0.1094 -0.4189  0.2535
21004SOL     OW64452   7.064   7.547   7.518  0.4093 -0.2763  0.2397
21004SOL    HW164453   7.142   7.574   7.470 -0.8750  0.8994 -1.2960
21004SOL    HW264454   7.088   7.464   7.558  2.1304 -0.4246 -0.9945
21005SOL     OW64455   6.396   5.876  11.029 -0.2517 -0.0864  0.0757
21005SOL    HW164456   6.472   5.933  11.017 -0.0311 -0.7003 -1.7705
21005SOL    HW264457   6.339   5.925  11.089  0.1327  1.8911 -1.0655
21006SOL     OW64458   3.985   6.489   2.879 -0.0251  0.1257 -0.0889
21006SOL    HW164459   4.066   6.477   2.829  0.4172  1.3511  0.2886
21006SOL    HW264460   4.010   6.465   2.969 -0.7828 -1.9611 -0.3880
21007SOL     OW64461   2.674   5.152   4.638 -0.0434  0.1507  0.1745
21007SOL    HW164462   2.580   5.158   4.653 -0.1167  1.7058 -0.7184
21007SOL    HW264463   2.711   5.136   4.725 -1.0705  0.4277  0.6727
21008SOL     OW64464   6.369   2.349   8.659  0.2800 -0.5044  0.2803
21008SOL    HW164465   6.423   2.341   8.580 -0.1573  0.1677 -0.0914
21008SOL    HW264466   6.348   2.258   8.683  0.6203 -0.7198 -0.2364
21009SOL     OW64467   3.362   5.010   4.625 -0.3949 -0.6455 -0.5114
21009SOL    HW164468   3.414   4.936   4.596  1.0327 -0.6530  1.7912
21009SOL    HW264469   3.426   5.076   4.651 -1.6284  0.9580 -1.3890
21010SOL     OW64470   1.870   6.944  10.689  0.4567  0.0779  0.3218
21010SOL    HW164471   1.879   6.957  10.784 -0.7993 -0.2504  0.5195
21010SOL    HW264472   1.829   7.025  10.658  1.7366  0.5691 -0.1088
21011SOL     OW64473   5.542   7.829   9.072 -0.0891 -0.0863 -0.4269
21011SOL    HW164474   5.505   7.797   9.154 -0.5413  1.2326 -0.1072
21011SOL    HW264475   5.613   7.767   9.053 -0.7247 -1.0830  0.3367
21012SOL     OW64476   3.670   1.327   3.671 -0.0375 -0.1023 -0.3484
21012SOL    HW164477   3.750   1.275   3.675 -0.9974 -1.5692  0.9331
21012SOL    HW264478   3.693   1.404   3.618  1.4584 -1.8062 -2.3391
21013SOL     OW64479   5.866   7.482   5.172  0.0489  0.4201  0.3020
21013SOL    HW164480   5.798   7.486   5.239 -0.7345  1.5318 -0.5316
21013SOL    HW264481   5.944   7.515   5.216 -0.1396 -0.0571  1.0226
21014SOL     OW64482   6.364   0.617  11.224 -0.0979 -0.0045  0.3453
21014SOL    HW164483   6.280   0.572  11.218  0.0786 -0.2010 -1.0347
21014SOL    HW264484   6.410   0.593  11.143  1.3514 -0.0174  1.1433
21015SOL     OW64485   6.272   5.407   6.649  0.4786 -0.4807  0.0698
21015SOL    HW164486   6.185   5.427   6.682  1.3150  1.1475  1.4470
21015SOL    HW264487   6.264   5.415   6.554 -0.3843  1.9638  0.2722
21016SOL     OW64488   0.612   0.734   8.812  0.3262  0.0848  0.3248
21016SOL    HW164489   0.574   0.647   8.814 -1.0195  0.6367 -0.2068
21016SOL    HW264490   0.550   0.789   8.859  0.9012  0.8556  0.2176
21017SOL     OW64491   2.145   1.139   8.221 -0.5715  0.1729 -0.1373
21017SOL    HW164492   2.211   1.106   8.282  0.9617  1.8342 -0.8084
21017SOL    HW264493   2.136   1.069   8.155 -0.7617 -0.7786  0.8756
21018SOL     OW64494   0.448   2.446  10.687  0.1122 -0.2155  0.0326
21018SOL    HW164495   0.462   2.535  10.653  0.1030 -0.2049  0.0555
21018SOL    HW264496   0.534   2.405  10.682  0.0938 -0.2397 -0.0766
21019SOL     OW64497   7.343   5.758   9.075  0.2325  0.1426 -0.3012
21019SOL    HW164498   7.298   5.699   9.136 -0.9559  0.5243 -0.7900
21019SOL    HW264499   7.385   5.699   9.012 -0.0309 -0.2075 -0.1517
21020SOL     OW64500   1.670   6.604   6.010  0.1216  0.6725  0.0602
21020SOL    HW164501   1.748   6.591   5.956 -0.3799 -2.6500 -0.0865
21020SOL    HW264502   1.599   6.619   5.947  0.0178 -0.3895 -0.1047
21021SOL     OW64503   2.080   0.510   1.044  0.5969  0.3669 -0.1763
21021SOL    HW164504   2.127   0.587   1.012 -0.2177  1.0134  0.1294
21021SOL    HW264505   2.146   0.457   1.089  0.9628  1.4534  0.6019
21022SOL     OW64506   6.179   7.965   8.973 -0.5821  0.0908  0.6653
21022SOL    HW164507   6.177   8.002   8.885 -0.4133  0.7969  0.9498
21022SOL    HW264508   6.198   8.039   9.030 -1.0493 -0.2904  1.3384
21023SOL     OW64509   1.196   3.084   2.702 -0.1653 -0.0620 -0.0158
21023SOL    HW164510   1.266   3.094   2.637 -1.8461  1.0866 -1.7683
21023SOL    HW264511   1.151   3.004   2.674  1.1137 -1.5311  1.8660
21024SOL     OW64512   5.517   7.138   5.746 -0.4864 -0.1382  0.3349
21024SOL    HW164513   5.462   7.080   5.799  0.0285  0.3921  1.4866
21024SOL    HW264514   5.497   7.226   5.779 -0.5288  0.2532 -0.7170
21025SOL     OW64515   6.071   0.570  11.542  0.1007 -0.1675 -0.0495
21025SOL    HW164516   6.035   0.593  11.628  0.8332  0.8763 -0.0054
21025SOL    HW264517   6.040   0.481  11.527 -0.6178 -0.1192  0.9857
21026SOL     OW64518   1.338   4.036   5.521  0.2189 -0.4959 -0.2212
21026SOL    HW164519   1.293   4.057   5.439 -0.7555 -0.5727  0.2874
21026SOL    HW264520   1.381   4.118   5.546 -0.1293 -0.2512 -0.4107
21027SOL     OW64521   5.422   4.950  11.684 -0.2632 -0.1878 -0.1366
21027SOL    HW164522   5.356   4.967  11.617  0.9588  0.6753 -1.1770
21027SOL    HW264523   5.467   4.870  11.654 -1.5263 -1.4383  1.1630
21028SOL     OW64524   2.145   7.142  10.968 -0.0893 -0.2619  0.4087
21028SOL    HW164525   2.138   7.076  11.036 -0.2525  0.7585  1.4165
21028SOL    HW264526   2.055   7.171  10.953  0.0056 -0.0874  0.1647
21029SOL     OW64527   5.234   3.581  12.201 -0.0188  0.1756 -0.3754
21029SOL    HW164528   5.194   3.668  12.198 -2.1667 -0.7441 -0.6207
21029SOL    HW264529   5.213   3.548  12.289 -0.9131 -0.8001 -0.9304
21030SOL     OW64530   4.571   6.267   8.859 -0.4064 -0.3583  0.0106
21030SOL    HW164531   4.517   6.306   8.928  0.8058 -0.4574  1.0572
21030SOL    HW264532   4.643   6.223   8.906  0.5903 -0.2296 -1.3187
21031SOL     OW64533   5.260   1.490   2.834  0.1411 -0.4684 -0.0453
21031SOL    HW164534   5.275   1.550   2.760 -0.2121 -0.4643 -0.1166
21031SOL    HW264535   5.344   1.487   2.879  0.4849 -0.7936 -0.6841
21032SOL     OW64536   5.564   2.786   3.337 -0.1051  0.6062 -0.4983
21032SOL    HW164537   5.542   2.828   3.254  1.8990 -0.2110 -1.4960
21032SOL    HW264538   5.521   2.840   3.403 -1.4268  1.5043 -2.0227
21033SOL     OW64539   4.590   2.472   6.811 -0.3037 -0.2299  0.4705
21033SOL    HW164540   4.582   2.546   6.871  0.3260 -0.7963  1.2915
21033SOL    HW264541   4.661   2.497   6.752  0.1309 -0.3032  0.9534
21034SOL     OW64542   4.060   7.457   7.370  0.0984 -0.0765  0.0681
21034SOL    HW164543   3.997   7.437   7.440  0.5740  0.0029  0.5286
21034SOL    HW264544   4.089   7.546   7.390  1.4483 -0.6336  0.7225
21035SOL     OW64545   6.890   7.383   4.074  0.3055  0.1839 -0.1199
21035SOL    HW164546   6.967   7.433   4.046 -0.2709 -0.2540 -2.6429
21035SOL    HW264547   6.888   7.307   4.017 -0.0203 -1.7499  2.2815
21036SOL     OW64548   7.952   7.218   6.791 -0.3515 -0.7179 -0.2074
21036SOL    HW164549   7.987   7.185   6.873  1.6323  0.1586 -0.6362
21036SOL    HW264550   7.963   7.146   6.729 -1.4442 -1.2241  0.1580
21037SOL     OW64551   6.141   4.357   6.979  0.0314 -0.2202  0.4096
21037SOL    HW164552   6.169   4.284   7.034  3.1197 -1.4991 -2.5066
21037SOL    HW264553   6.221   4.406   6.961 -1.3025  1.6250 -0.9027
21038SOL     OW64554   5.941   6.026   3.233  0.3971 -0.2806 -0.0914
21038SOL    HW164555   5.888   6.009   3.311  1.2262  0.8786  0.7532
21038SOL    HW264556   6.030   6.004   3.260  0.7549  0.5733 -0.5653
21039SOL     OW64557   0.807   6.679   7.407  0.1626 -0.1821 -0.4489
21039SOL    HW164558   0.738   6.614   7.418  0.5702 -0.7461 -1.1857
21039SOL    HW264559   0.836   6.669   7.317 -0.5317  1.8022 -0.9375
21040SOL     OW64560   0.906   1.141   1.621  0.1290 -0.1120 -0.0450
21040SOL    HW164561   0.899   1.047   1.632  0.5069  0.0496  2.1321
21040SOL    HW264562   0.867   1.159   1.536 -1.2604 -2.0771  0.1142
21041SOL     OW64563   1.853   3.938  12.292  0.1957  0.0034 -0.3916
21041SOL    HW164564   1.831   4.031  12.296  1.3022  0.2339  1.1478
21041SOL    HW264565   1.920   3.932  12.224  0.3745  0.3832 -0.2492
21042SOL     OW64566   5.926   4.026  12.234  0.7385 -0.0281  0.2047
21042SOL    HW164567   5.898   3.960  12.170 -0.6812  1.2004 -0.5232
21042SOL    HW264568   5.847   4.045  12.284  1.6965 -0.5331  1.9769
21043SOL     OW64569   6.326   7.132   3.784  0.1397 -0.0245 -0.0739
21043SOL    HW164570   6.286   7.213   3.814  3.5503  2.0062 -0.4052
21043SOL    HW264571   6.301   7.126   3.692 -1.0544  0.0084  0.2356
21044SOL     OW64572   4.354   5.226  11.915 -0.3006 -0.3129 -0.3729
21044SOL    HW164573   4.349   5.313  11.875  1.6060  0.1635  0.3104
21044SOL    HW264574   4.349   5.242  12.009 -4.5076 -1.4027 -0.2268
21045SOL     OW64575   3.995   1.883   7.449 -0.3279 -0.0874  0.4023
21045SOL    HW164576   4.068   1.833   7.484 -2.0694 -2.5420  0.7910
21045SOL    HW264577   3.959   1.930   7.525  0.0566  0.1027  0.4681
21046SOL     OW64578   5.210   1.687  12.205 -0.1750 -0.5380  0.7200
21046SOL    HW164579   5.206   1.608  12.151 -0.3621  0.6472 -1.0931
21046SOL    HW264580   5.292   1.729  12.179  0.0319 -0.2166  1.8284
21047SOL     OW64581   7.775   3.353   1.312 -0.0100 -0.7791  0.5967
21047SOL    HW164582   7.807   3.437   1.346  0.2822 -1.7197  2.8148
21047SOL    HW264583   7.838   3.289   1.344  0.7257 -1.7489 -2.4787
21048SOL     OW64584   3.202   2.386   7.339  0.3284  0.1501  0.0068
21048SOL    HW164585   3.257   2.386   7.418 -0.1039 -1.2270  0.3375
21048SOL    HW264586   3.192   2.478   7.317 -0.5277  0.6811  2.2662
21049SOL     OW64587   7.155   1.292   9.039 -0.1421 -0.0036 -0.2771
21049SOL    HW164588   7.143   1.368   9.096 -0.1265  0.6065 -1.0750
21049SOL    HW264589   7.068   1.256   9.027 -0.2908  0.4786 -0.6869
21050SOL     OW64590   0.866   1.085   5.587 -0.5288 -0.1930  0.0413
21050SOL    HW164591   0.886   1.076   5.680 -0.5760  0.6854  0.1467
21050SOL    HW264592   0.783   1.038   5.576 -0.8787  0.2744  0.5890
21051SOL     OW64593   6.565   7.162  11.074 -0.4609 -0.2307  0.1734
21051SOL    HW164594   6.540   7.110  10.998 -0.7532 -0.1130  0.1892
21051SOL    HW264595   6.489   7.159  11.132 -0.5848  0.4327  0.0559
21052SOL     OW64596   2.958   0.198   9.992 -0.2717  0.1559  0.6200
21052SOL    HW164597   2.977   0.159  10.077  1.4999  1.0865  0.7033
21052SOL    HW264598   2.938   0.124   9.935  2.0112 -0.8338  1.0078
21053SOL     OW64599   4.155   1.770   2.122 -0.1768 -0.4283 -0.3854
21053SOL    HW164600   4.091   1.701   2.136 -2.2126  1.5717  0.6721
21053SOL    HW264601   4.112   1.832   2.063  1.1380  0.5105 -0.4096
21054SOL     OW64602   1.040   7.911  12.085  0.1538 -0.4116 -0.1143
21054SOL    HW164603   0.994   7.982  12.130  1.0879  0.3985 -0.3919
21054SOL    HW264604   0.973   7.845  12.068 -0.6993  0.3336  0.2971
21055SOL     OW64605   3.885   7.392   7.153 -0.3031 -0.5857  0.5129
21055SOL    HW164606   3.954   7.392   7.220 -0.1131 -1.1573  0.3188
21055SOL    HW264607   3.828   7.320   7.178 -0.8981 -0.0558  0.7294
21056SOL     OW64608   0.730   2.613   8.270  0.0322 -0.4114  0.0748
21056SOL    HW164609   0.822   2.607   8.244  0.2022  1.3561  0.1922
21056SOL    HW264610   0.718   2.540   8.331  0.9994 -1.4248 -0.8939
21057SOL     OW64611   7.745   6.419   3.975  0.0078  0.0954 -0.6139
21057SOL    HW164612   7.723   6.352   4.039 -4.1199  0.8821 -0.8720
21057SOL    HW264613   7.746   6.373   3.891 -0.8136 -0.0337 -0.5678
21058SOL     OW64614   3.609   3.010   9.684  0.0431 -0.3334 -0.4981
21058SOL    HW164615   3.559   2.960   9.748  0.4065 -1.2889 -0.9460
21058SOL    HW264616   3.678   2.951   9.655  0.4845  0.4258 -1.0410
21059SOL     OW64617   5.778   4.186   3.538  0.1163  0.1899  0.2609
21059SOL    HW164618   5.836   4.147   3.603 -0.1399 -1.1135 -0.2624
21059SOL    HW264619   5.836   4.212   3.466  0.5673  2.7747  1.4705
21060SOL     OW64620   3.194   4.373   3.529  0.2431  0.2630 -0.3351
21060SOL    HW164621   3.245   4.374   3.449 -1.8028 -0.0089 -1.7349
21060SOL    HW264622   3.239   4.435   3.587  1.3041  1.1538 -2.0072
21061SOL     OW64623   3.560   2.071  10.399  0.4834  0.2132 -0.0551
21061SOL    HW164624   3.579   2.103  10.487 -1.0888  0.4208  0.2391
21061SOL    HW264625   3.558   2.150  10.345  2.1588  0.0186 -0.4450
21062SOL     OW64626   1.265   0.673   0.896  0.6825 -0.6426  0.1563
21062SOL    HW164627   1.279   0.579   0.894  0.3391 -0.7032 -2.0982
21062SOL    HW264628   1.262   0.699   0.804 -0.5785  1.3607  0.6885
21063SOL     OW64629   5.480   2.047   9.120 -0.2584 -0.3316  0.5652
21063SOL    HW164630   5.546   2.065   9.053 -1.3864  1.5257 -0.1161
21063SOL    HW264631   5.527   2.055   9.202  0.1630  2.3928  0.1573
21064SOL     OW64632   0.867   5.525   3.546 -0.4068 -0.4582 -0.1217
21064SOL    HW164633   0.811   5.531   3.468 -1.8629  0.8756  0.9562
21064SOL    HW264634   0.810   5.488   3.614  0.1793  0.4159  0.8777
21065SOL     OW64635   5.214   5.914   4.379  0.3232  0.2902 -0.2740
21065SOL    HW164636   5.242   5.941   4.292  1.0011 -0.2186 -0.2255
21065SOL    HW264637   5.279   5.954   4.438 -0.8866  1.7537  0.1305
21066SOL     OW64638   1.547   4.491   7.845 -0.3132 -0.1255  0.3121
21066SOL    HW164639   1.596   4.410   7.861 -1.2608 -0.7604  0.1263
21066SOL    HW264640   1.489   4.469   7.772 -0.4010  0.8133  0.0847
21067SOL     OW64641   0.698   5.071  10.031 -0.1179 -0.6352  0.1375
21067SOL    HW164642   0.738   5.102   9.950  0.8265 -0.3143  0.7041
21067SOL    HW264643   0.679   5.151  10.080 -1.5184 -0.7737 -0.1188
21068SOL     OW64644   6.867   1.571  12.249  0.3765 -0.1439 -0.7608
21068SOL    HW164645   6.830   1.561  12.162  0.5644 -2.8194 -0.6102
21068SOL    HW264646   6.804   1.624  12.296 -0.4307  0.1316 -2.1090
21069SOL     OW64647   7.802   2.312   3.921  0.3309 -0.5411  0.2264
21069SOL    HW164648   7.836   2.347   4.003  1.5219 -0.1582 -0.4037
21069SOL    HW264649   7.724   2.262   3.946  0.3927 -0.0279  1.5161
21070SOL     OW64650   2.753   3.809   1.862  0.0493 -0.1161 -0.0343
21070SOL    HW164651   2.836   3.855   1.851  0.6610 -0.8492  1.3068
21070SOL    HW264652   2.775   3.733   1.917 -1.3672 -0.7336 -0.2772
21071SOL     OW64653   1.072   3.865   9.876  0.0830  0.1872 -0.2903
21071SOL    HW164654   1.136   3.901   9.938  1.5839 -0.4000 -1.4318
21071SOL    HW264655   1.102   3.775   9.863 -1.2495 -0.2285 -0.5436
21072SOL     OW64656   5.809   0.184   7.490 -0.0227  0.1709  0.3627
21072SOL    HW164657   5.879   0.231   7.536 -0.2562  1.2787 -0.3669
21072SOL    HW264658   5.852   0.107   7.454  0.9826  1.1094 -0.5429
21073SOL     OW64659   4.301   0.693   5.711 -0.4767 -0.4400 -0.5502
21073SOL    HW164660   4.263   0.622   5.763  0.1310  0.7034  1.5725
21073SOL    HW264661   4.230   0.757   5.703 -0.2668 -0.1689 -0.2488
21074SOL     OW64662   6.935   5.785  10.442 -0.2887 -0.1245 -0.1191
21074SOL    HW164663   6.874   5.844  10.397  0.8000  0.5623 -0.7357
21074SOL    HW264664   6.970   5.838  10.513 -2.4211 -1.3703  2.0119
21075SOL     OW64665   7.520   7.736   6.975  0.1216 -0.3010 -0.1440
21075SOL    HW164666   7.560   7.650   6.990 -1.1174 -0.9272 -0.3448
21075SOL    HW264667   7.524   7.779   7.061  2.1795  0.1068 -0.3773
21076SOL     OW64668   2.353   7.200  11.477  0.1380 -0.4328 -0.2611
21076SOL    HW164669   2.323   7.176  11.564  0.4005 -1.3111 -0.4072
21076SOL    HW264670   2.313   7.135  11.419  1.0275 -0.6572 -0.6407
21077SOL     OW64671   1.053   1.187   5.133 -0.9660 -0.3700 -0.3524
21077SOL    HW164672   1.094   1.273   5.123  0.5055 -0.7071  1.9330
21077SOL    HW264673   0.959   1.204   5.126 -0.6999  1.4074 -0.1430
21078SOL     OW64674   1.828   3.511   9.496  0.1773  0.4142 -0.1530
21078SOL    HW164675   1.859   3.593   9.458 -0.6116  1.4934  1.4234
21078SOL    HW264676   1.900   3.483   9.553  0.5630 -0.1853 -0.9009
21079SOL     OW64677   5.246   5.703   0.686 -0.1879 -0.2609  0.1701
21079SOL    HW164678   5.164   5.718   0.734  0.2415  1.5207  0.4086
21079SOL    HW264679   5.237   5.755   0.607  0.0717 -1.3602 -0.6130
21080SOL     OW64680   4.382   4.807   8.692  0.0524  0.1338 -0.1135
21080SOL    HW164681   4.435   4.805   8.771  1.5023 -0.2769 -1.0730
21080SOL    HW264682   4.437   4.769   8.624 -0.9426  1.0017 -1.4680
21081SOL     OW64683   0.120   5.777   4.878  0.4968  0.2353  0.3209
21081SOL    HW164684   0.193   5.720   4.857 -0.7587 -1.1582 -0.4763
21081SOL    HW264685   0.084   5.741   4.959 -0.1328  0.0535 -0.0335
21082SOL     OW64686   1.866   1.169   7.862  0.1530 -0.3659  0.0344
21082SOL    HW164687   1.924   1.224   7.915  0.2846  0.5285 -1.0078
21082SOL    HW264688   1.878   1.200   7.772 -0.5346 -1.4315 -0.4529
21083SOL     OW64689   4.571   3.300   0.673 -0.0229 -0.1880 -0.7833
21083SOL    HW164690   4.504   3.344   0.725  0.0156 -0.4582 -0.5036
21083SOL    HW264691   4.644   3.287   0.733  0.3357  0.2275 -1.1235
21084SOL     OW64692   0.298   6.263   2.155  0.0831 -0.0014  0.0850
21084SOL    HW164693   0.231   6.268   2.087  0.6420 -1.6137 -0.6482
21084SOL    HW264694   0.272   6.328   2.219 -0.3115  1.8105 -1.7906
21085SOL     OW64695   0.418   7.557   7.251  0.0249  0.2626  0.5329
21085SOL    HW164696   0.340   7.562   7.306 -0.9299  0.3644 -0.7774
21085SOL    HW264697   0.472   7.489   7.292 -0.9370 -0.0924  1.2435
21086SOL     OW64698   2.603   6.347   8.779  0.4815 -0.2576 -0.1979
21086SOL    HW164699   2.529   6.306   8.823  0.8121 -0.5724  0.0803
21086SOL    HW264700   2.658   6.380   8.850  1.2510 -1.1706 -0.3377
21087SOL     OW64701   1.716   1.722   1.826 -0.2266 -0.3989  0.1668
21087SOL    HW164702   1.794   1.774   1.811 -0.3286  0.1995  1.5928
21087SOL    HW264703   1.748   1.632   1.834  0.1011 -0.3969 -0.9221
21088SOL     OW64704   5.779   2.069   0.789 -0.4363  0.0473 -0.2816
21088SOL    HW164705   5.827   2.034   0.714 -0.5648  0.8507 -0.7461
21088SOL    HW264706   5.835   2.138   0.824  0.6026 -1.6644  1.6717
21089SOL     OW64707   4.878   2.124   9.247  0.1222 -0.1588  0.2592
21089SOL    HW164708   4.841   2.145   9.333 -0.4914 -0.6782  0.1265
21089SOL    HW264709   4.887   2.209   9.204  0.8533  0.1506  0.9957
21090SOL     OW64710   3.706   5.782   7.054  0.0508 -0.0850 -0.0770
21090SOL    HW164711   3.733   5.737   7.133 -0.8637 -0.8042 -0.1619
21090SOL    HW264712   3.636   5.728   7.017  0.5771  0.1391 -1.4731
21091SOL     OW64713   5.487   1.575   6.117 -0.3262 -0.1527 -0.2101
21091SOL    HW164714   5.432   1.653   6.122  0.6952  0.5965 -0.4205
21091SOL    HW264715   5.537   1.586   6.036 -0.7470 -1.4248 -0.6647
21092SOL     OW64716   6.741   7.979   1.819  0.6009 -0.0637  0.0992
21092SOL    HW164717   6.808   8.048   1.821  1.5952 -0.8993 -1.5501
21092SOL    HW264718   6.776   7.909   1.874  0.1141  0.2805  0.8647
21093SOL     OW64719   2.018   1.241   2.744  0.4366  0.4573  0.0666
21093SOL    HW164720   2.059   1.232   2.830 -0.0250 -0.9096  0.1660
21093SOL    HW264721   1.924   1.233   2.762  0.0786  3.1647 -0.2053
21094SOL     OW64722   6.310   3.892   0.065 -0.5917  0.1260  0.4430
21094SOL    HW164723   6.241   3.949   0.031 -0.9211 -0.8900 -0.6896
21094SOL    HW264724   6.323   3.920   0.155 -0.8381  1.8758 -0.0395
21095SOL     OW64725   5.068   4.281   2.061  0.2431  0.4034  0.2920
21095SOL    HW164726   5.033   4.369   2.051 -2.4023 -0.7433 -1.8315
21095SOL    HW264727   4.998   4.232   2.104  1.1876 -0.9173  0.3987
21096SOL     OW64728   2.469   2.304   0.737 -0.6515 -0.0857 -0.5384
21096SOL    HW164729   2.375   2.308   0.719 -0.5838  2.2123 -0.7075
21096SOL    HW264730   2.501   2.392   0.716  1.6153 -0.9112 -0.8476
21097SOL     OW64731   4.542   7.122   4.583  0.2694  0.5105  0.0598
21097SOL    HW164732   4.536   7.169   4.500  0.8101 -0.6900 -0.6997
21097SOL    HW264733   4.605   7.051   4.565 -1.8163 -1.6052  0.5814
21098SOL     OW64734   2.492   0.954  10.127  0.0724  0.4986  0.1313
21098SOL    HW164735   2.550   0.923  10.197  0.4175 -0.2803 -0.4875
21098SOL    HW264736   2.499   1.049  10.130  1.7448  0.4163 -0.2168
21099SOL     OW64737   7.208   5.343   1.410 -0.8458  0.2858 -0.4966
21099SOL    HW164738   7.231   5.251   1.398  0.0522  0.2818  0.9897
21099SOL    HW264739   7.158   5.345   1.491 -1.0104  1.0840 -0.6090
21100SOL     OW64740   4.522   7.410   0.826  0.1458 -0.2132  0.0832
21100SOL    HW164741   4.499   7.328   0.782 -0.7184 -0.3784  0.8115
21100SOL    HW264742   4.549   7.383   0.913 -0.2403  0.2822  0.3612
21101SOL     OW64743   6.060   3.339   0.233  0.0105 -0.4983  0.0383
21101SOL    HW164744   6.091   3.342   0.324 -0.1819 -1.9170  0.1777
21101SOL    HW264745   5.994   3.409   0.228 -1.8161 -1.9680  1.7464
21102SOL     OW64746   5.388   0.454   5.864 -0.5360 -0.6073 -0.8458
21102SOL    HW164747   5.481   0.437   5.853 -0.4164 -0.5607  0.0448
21102SOL    HW264748   5.344   0.382   5.819 -0.1169  0.3929 -3.0021
21103SOL     OW64749   3.102   7.701   2.695  0.0269 -0.1471  0.1857
21103SOL    HW164750   3.179   7.738   2.651  0.1619 -0.4938  0.1269
21103SOL    HW264751   3.136   7.628   2.746  0.0601  0.9943  1.8575
21104SOL     OW64752   2.307   0.639   7.969 -0.2427 -0.3920 -0.5165
21104SOL    HW164753   2.266   0.656   7.884 -2.1172 -0.7714  0.2702
21104SOL    HW264754   2.342   0.550   7.960  1.0999  0.1802 -1.4163
21105SOL     OW64755   4.605   5.786   0.484  0.5750 -0.3035  0.2492
21105SOL    HW164756   4.520   5.759   0.519  1.3825 -0.7878  1.9898
21105SOL    HW264757   4.585   5.835   0.405 -1.5794  2.4968  2.3333
21106SOL     OW64758   6.375   5.230   1.857 -0.2674  0.0178  0.1109
21106SOL    HW164759   6.401   5.300   1.917  1.2954 -0.0130 -0.4928
21106SOL    HW264760   6.422   5.250   1.776 -0.5299 -1.2402 -0.3657
21107SOL     OW64761   7.859   1.702  10.687 -0.4845  0.2487 -0.3325
21107SOL    HW164762   7.778   1.660  10.713 -0.4665  0.0353 -0.6141
21107SOL    HW264763   7.856   1.702  10.591  0.1568 -0.3746 -0.3622
21108SOL     OW64764   0.618   7.666  11.007 -0.4112 -0.4149  0.3994
21108SOL    HW164765   0.645   7.660  10.915  2.4465  0.6697  1.0692
21108SOL    HW264766   0.523   7.678  11.003 -0.1143  2.6045 -2.5930
21109SOL     OW64767   6.377   6.249   8.336 -0.3819  0.5088  0.5931
21109SOL    HW164768   6.417   6.331   8.365  2.1222 -0.7143  0.9102
21109SOL    HW264769   6.393   6.188   8.408 -0.7384 -0.6581 -0.2792
21110SOL     OW64770   6.231   3.939   7.923 -0.1740  0.0070 -0.7537
21110SOL    HW164771   6.288   3.899   7.988  0.0355 -0.1088 -1.0096
21110SOL    HW264772   6.170   3.869   7.898  0.5621 -0.3277 -1.6330
21111SOL     OW64773   1.586   7.607   4.361  0.1795  0.3901  0.3226
21111SOL    HW164774   1.641   7.685   4.359 -0.0011  0.5575  1.3686
21111SOL    HW264775   1.618   7.556   4.435 -1.5680  0.8913  1.4857
21112SOL     OW64776   5.274   4.715   2.070 -0.3410  0.7299 -0.3020
21112SOL    HW164777   5.209   4.711   2.000 -0.8523 -1.4385  0.1968
21112SOL    HW264778   5.236   4.773   2.136 -2.3110 -1.1762  0.3885
21113SOL     OW64779   6.915   5.526   2.852 -0.4608  0.2664 -0.4095
21113SOL    HW164780   6.936   5.437   2.821 -0.7452 -0.0713  0.3521
21113SOL    HW264781   6.869   5.566   2.778  1.4466  0.4962 -1.5444
21114SOL     OW64782   7.915   3.124   6.248  0.2644  0.5286  0.3849
21114SOL    HW164783   7.858   3.101   6.175  1.4281 -2.3884  0.2764
21114SOL    HW264784   7.989   3.171   6.207 -0.7285  1.9998  0.2048
21115SOL     OW64785   1.781   1.871  10.410  0.5564  0.5309 -0.1639
21115SOL    HW164786   1.742   1.954  10.440 -0.3970  1.6881 -4.0199
21115SOL    HW264787   1.710   1.826  10.365  2.2573  0.0979 -2.6044
21116SOL     OW64788   4.548   2.065   1.626 -0.3335  0.2125 -0.0133
21116SOL    HW164789   4.495   2.101   1.697  1.6110  1.6120  0.8138
21116SOL    HW264790   4.555   2.136   1.562  0.5240  0.0704 -0.0996
21117SOL     OW64791   5.450   4.957   1.778 -0.1194  0.0062  0.0485
21117SOL    HW164792   5.488   5.043   1.795  0.6114  0.4550 -3.2265
21117SOL    HW264793   5.358   4.976   1.756 -0.4869 -0.3086  1.2597
21118SOL     OW64794   7.815   4.485  10.984 -0.2081 -0.0316  0.1700
21118SOL    HW164795   7.905   4.468  10.957  0.1496  2.5057 -0.5312
21118SOL    HW264796   7.768   4.403  10.967  1.5846 -0.8399 -1.1348
21119SOL     OW64797   2.456   7.628   9.846 -0.4927  0.2416 -0.2151
21119SOL    HW164798   2.542   7.640   9.807 -0.6176  2.2824  0.0180
21119SOL    HW264799   2.448   7.533   9.860  0.8853 -0.1984 -2.0534
21120SOL     OW64800   5.605   7.216   5.029 -0.4252 -0.0251  0.4958
21120SOL    HW164801   5.679   7.277   5.035 -0.5139  0.1669 -0.2373
21120SOL    HW264802   5.627   7.146   5.091  1.1484 -0.7624 -0.8084
21121SOL     OW64803   7.750   2.416   0.836 -0.1007  0.1950  0.2456
21121SOL    HW164804   7.709   2.339   0.875 -0.9788  0.5685  0.0806
21121SOL    HW264805   7.784   2.386   0.752  0.6821 -0.3089  0.7300
21122SOL     OW64806   5.836   3.095   0.061  0.0225  0.0838  0.2671
21122SOL    HW164807   5.923   3.087   0.100  0.9593  0.4934 -1.6511
21122SOL    HW264808   5.838   3.178   0.014 -2.2422  1.2999  2.0947
21123SOL     OW64809   7.505   5.508   0.431 -0.0819  0.6724 -0.3338
21123SOL    HW164810   7.456   5.428   0.448  0.4819  0.6242  1.2409
21123SOL    HW264811   7.596   5.485   0.448  0.1770  1.4439 -0.6342
21124SOL     OW64812   3.254   3.619   3.335  0.0905  0.3366  0.1485
21124SOL    HW164813   3.270   3.712   3.352  0.0167  0.2318  0.8131
21124SOL    HW264814   3.164   3.615   3.301  0.5274  0.6392 -1.1235
21125SOL     OW64815   1.190   0.435   3.249  0.5926 -0.2929  0.4206
21125SOL    HW164816   1.203   0.507   3.310 -1.1174  0.8872 -0.5387
21125SOL    HW264817   1.245   0.458   3.173  1.8986 -1.2311  1.0507
21126SOL     OW64818   3.111   3.613   1.723  0.1851  0.4779 -0.2521
21126SOL    HW164819   3.167   3.688   1.704 -0.3615  0.6174 -1.4162
21126SOL    HW264820   3.060   3.640   1.799  0.0518  1.2673 -0.6113
21127SOL     OW64821   0.475   0.511   3.383  0.2214 -0.2669 -0.2869
21127SOL    HW164822   0.566   0.516   3.354  0.1258 -0.9257 -0.7249
21127SOL    HW264823   0.435   0.592   3.351  0.7620  0.2561  0.3278
21128SOL     OW64824   7.837   5.877  11.091  0.0665  0.1467 -0.2574
21128SOL    HW164825   7.840   5.898  10.997 -1.7069  0.2600 -0.3196
21128SOL    HW264826   7.846   5.782  11.094  0.0193  0.1316 -0.5576
21129SOL     OW64827   4.015   0.102   2.669  0.0535  0.3774 -0.0038
21129SOL    HW164828   3.955   0.129   2.600 -0.1259 -0.4453 -0.1823
21129SOL    HW264829   3.996   0.160   2.743 -1.8834 -0.6834  0.4092
21130SOL     OW64830   2.501   2.087  11.910  0.0476 -0.0912  0.0321
21130SOL    HW164831   2.562   2.119  11.977 -1.3414 -1.9979  2.3722
21130SOL    HW264832   2.553   2.085  11.830  2.7007 -0.4468  1.6343
21131SOL     OW64833   1.456   0.758   6.250 -0.0583  0.0135 -0.5599
21131SOL    HW164834   1.533   0.796   6.208  0.6531  0.0927  0.7623
21131SOL    HW264835   1.419   0.829   6.303 -0.3124 -0.3633 -0.2170
21132SOL     OW64836   5.687   0.640   2.805 -0.4176  0.4286  0.0903
21132SOL    HW164837   5.669   0.555   2.845 -0.7331  0.1294 -0.6548
21132SOL    HW264838   5.613   0.695   2.828 -0.2932  0.4521  0.4347
21133SOL     OW64839   0.515   1.507   4.007  0.2631 -0.0750  0.2846
21133SOL    HW164840   0.547   1.597   4.002 -2.9094  1.1675 -0.3801
21133SOL    HW264841   0.465   1.495   3.926 -0.8531 -1.8165  1.1666
21134SOL     OW64842   2.001   7.002   4.246 -0.1180  0.2295  0.0941
21134SOL    HW164843   1.928   6.976   4.190 -1.0639 -2.2803  2.2710
21134SOL    HW264844   2.079   6.974   4.198 -0.7437  0.3679 -1.0320
21135SOL     OW64845   1.171   6.796   7.601  0.3818  0.1294 -0.8175
21135SOL    HW164846   1.190   6.804   7.508 -0.7652  0.4291 -1.0437
21135SOL    HW264847   1.080   6.766   7.605 -0.3626  2.2700  0.1923
21136SOL     OW64848   6.107   3.054   4.981 -0.0067  0.4084 -0.0156
21136SOL    HW164849   6.033   3.001   4.952  0.2461 -0.3666  0.6862
21136SOL    HW264850   6.179   2.992   4.988  1.3882  1.5315 -2.9472
21137SOL     OW64851   4.371   7.797  11.095 -0.2086  0.3193  0.7477
21137SOL    HW164852   4.411   7.875  11.057 -1.2430  0.7574  0.5233
21137SOL    HW264853   4.294   7.780  11.040 -0.7327 -0.0740  1.5801
21138SOL     OW64854   3.632   7.393   1.184 -0.4575  0.0907 -0.1900
21138SOL    HW164855   3.690   7.425   1.115 -0.7750 -0.9779 -0.9836
21138SOL    HW264856   3.678   7.318   1.222 -1.3968 -0.9475 -1.0218
21139SOL     OW64857   3.597   6.942   4.789 -0.2442  0.0319 -0.3436
21139SOL    HW164858   3.521   6.888   4.767 -0.1352  0.4067 -1.7543
21139SOL    HW264859   3.627   6.976   4.705  1.6956 -0.3598  0.1483
21140SOL     OW64860   4.176   5.433  12.117 -0.5788 -0.4115 -0.0510
21140SOL    HW164861   4.176   5.501  12.049 -0.2085 -0.5079 -0.1461
21140SOL    HW264862   4.261   5.390  12.108  0.0632  0.5035  1.4241
21141SOL     OW64863   7.203   1.211   1.149 -0.1819 -0.0430 -0.0894
21141SOL    HW164864   7.201   1.252   1.062 -0.0072 -0.1122 -0.1262
21141SOL    HW264865   7.282   1.156   1.148  0.0924  0.3326  0.2830
21142SOL     OW64866   0.698   7.915   8.327 -0.1705  0.2171 -0.3384
21142SOL    HW164867   0.773   7.965   8.360  1.0334 -1.5670 -0.2811
21142SOL    HW264868   0.638   7.983   8.293  0.4934  1.8082  1.4798
21143SOL     OW64869   3.227   2.680   7.274  0.1026 -0.4167  0.0321
21143SOL    HW164870   3.245   2.764   7.318 -1.2319 -0.5207  0.8640
21143SOL    HW264871   3.313   2.644   7.254  0.7675 -0.0494  2.0130
21144SOL     OW64872   7.473   5.763   4.317  0.3767  0.4274 -0.1073
21144SOL    HW164873   7.503   5.854   4.321 -1.7214  1.1622  0.5672
21144SOL    HW264874   7.458   5.747   4.223  1.7255  0.4138 -0.3317
21145SOL     OW64875   0.268   5.502  10.222 -0.0542 -0.1712 -0.2416
21145SOL    HW164876   0.298   5.413  10.244 -0.7834 -0.2461  0.4964
21145SOL    HW264877   0.340   5.559  10.250  0.1154 -0.4779 -0.0479
21146SOL     OW64878   0.723   4.231   7.309  0.0040 -0.7425  0.8071
21146SOL    HW164879   0.720   4.149   7.357  4.2249 -0.8549  1.1915
21146SOL    HW264880   0.720   4.205   7.217 -2.6211 -0.9080  0.8600
21147SOL     OW64881   4.146   4.959   7.475  0.1228 -0.2054 -0.0245
21147SOL    HW164882   4.224   4.969   7.529 -0.0641 -2.1110  0.6845
21147SOL    HW264883   4.181   4.942   7.387  0.4902 -0.0186  0.0815
21148SOL     OW64884   3.304   0.092  11.110  0.1221  0.0892 -0.3666
21148SOL    HW164885   3.229   0.146  11.135  0.6347  1.5298 -1.7169
21148SOL    HW264886   3.368   0.105  11.179 -0.6232 -0.6474  0.4772
21149SOL     OW64887   4.688   2.067   6.062  0.7818 -0.0900 -0.2074
21149SOL    HW164888   4.694   2.103   5.974  2.8182 -2.5518 -1.2127
21149SOL    HW264889   4.598   2.084   6.090 -0.3747 -0.4490 -3.3468
21150SOL     OW64890   3.430   6.030   0.473 -0.0317 -0.0246  0.5214
21150SOL    HW164891   3.405   6.023   0.566 -0.3165  0.8525  0.5256
21150SOL    HW264892   3.464   5.944   0.451 -2.1404 -0.9901  0.7982
21151SOL     OW64893   4.249   6.142  10.409 -0.3555 -0.2388  0.5364
21151SOL    HW164894   4.195   6.117  10.334  0.2180  0.3225 -0.0827
21151SOL    HW264895   4.339   6.131  10.378 -0.0889  1.4596  0.5940
21152SOL     OW64896   3.498   1.218   7.697 -0.1231  0.0471  0.5521
21152SOL    HW164897   3.481   1.190   7.607  0.6047  0.1005  0.3929
21152SOL    HW264898   3.411   1.230   7.735 -0.4978  1.7123 -0.6795
21153SOL     OW64899   6.655   4.603   8.957 -0.4719 -0.0492 -0.0924
21153SOL    HW164900   6.592   4.608   9.029 -0.1712  1.8574  0.0944
21153SOL    HW264901   6.634   4.678   8.901  0.3105 -0.5843 -1.1389
21154SOL     OW64902   6.860   3.956   0.494  0.6196 -0.1979 -0.2035
21154SOL    HW164903   6.870   4.020   0.423 -1.7394 -1.0150 -1.3724
21154SOL    HW264904   6.785   3.988   0.544  1.9041  0.0540  1.6745
21155SOL     OW64905   4.897   1.859  11.948  0.1873 -0.0938  0.1075
21155SOL    HW164906   4.956   1.916  11.996 -1.1646  0.3703  1.2992
21155SOL    HW264907   4.875   1.789  12.011 -0.8527 -0.0159 -0.1508
21156SOL     OW64908   3.069   2.372   7.639  0.2303 -0.0634  1.0251
21156SOL    HW164909   3.041   2.454   7.600 -0.1458 -1.1837 -1.2183
21156SOL    HW264910   3.158   2.388   7.669  0.1093  1.1880  0.7423
21157SOL     OW64911   0.461   0.472  11.134  0.2753  0.2686 -0.5537
21157SOL    HW164912   0.447   0.560  11.098 -1.5323 -0.4674 -1.7979
21157SOL    HW264913   0.397   0.417  11.088  1.5868 -1.7723 -0.0532
21158SOL     OW64914   0.081   4.445   8.232 -0.0331 -0.2905  0.1290
21158SOL    HW164915   0.028   4.451   8.152  2.2558  3.1238 -1.3583
21158SOL    HW264916   0.149   4.381   8.211 -1.8695 -2.7329  1.1142
21159SOL     OW64917   0.385   6.046   4.181  0.1213 -0.0269  0.3074
21159SOL    HW164918   0.407   6.064   4.272 -3.1495  0.1014  1.1926
21159SOL    HW264919   0.291   6.028   4.182 -0.2215  0.8294 -3.1813
21160SOL     OW64920   1.764   2.857  12.178  0.3286  0.3055 -0.4748
21160SOL    HW164921   1.738   2.927  12.119 -0.7507 -0.5320 -1.0172
21160SOL    HW264922   1.824   2.802  12.127  0.7186  0.4968 -0.2343
21161SOL     OW64923   6.247   3.936   3.106 -0.6316  0.7427  0.2818
21161SOL    HW164924   6.211   3.848   3.093 -1.6737  1.1844  0.1272
21161SOL    HW264925   6.242   3.977   3.020 -0.0371  0.9265  0.3283
21162SOL     OW64926   7.965   1.466   3.553  0.0627  0.6140  0.1796
21162SOL    HW164927   8.060   1.455   3.554  0.5749  3.8853 -0.0335
21162SOL    HW264928   7.947   1.524   3.627 -2.0088 -1.0486  1.0788
21163SOL     OW64929   4.045   3.985  10.426  0.1658 -0.7179  0.0499
21163SOL    HW164930   4.044   3.948  10.514 -1.3177  0.0347  0.3945
21163SOL    HW264931   3.976   3.937  10.379 -1.4322  1.1340  0.3542
21164SOL     OW64932   0.591   4.949   6.209 -0.2209 -0.0316  0.0718
21164SOL    HW164933   0.556   4.860   6.220  0.4639 -0.2332  0.7437
21164SOL    HW264934   0.514   5.005   6.208 -0.5546 -0.2666  3.2783
21165SOL     OW64935   4.222   3.646   9.976  0.0414 -0.0841  0.1944
21165SOL    HW164936   4.277   3.644   9.898 -0.9381  0.8081 -0.5516
21165SOL    HW264937   4.213   3.555  10.002 -0.9924 -0.5879 -1.7418
21166SOL     OW64938   3.563   5.810   0.511 -0.5809  0.4685  0.2306
21166SOL    HW164939   3.590   5.786   0.422 -2.4330 -0.0165 -0.2485
21166SOL    HW264940   3.644   5.812   0.561  0.5194  0.7774 -1.4680
21167SOL     OW64941   0.310   3.718  11.584 -0.6703  0.4774 -0.0496
21167SOL    HW164942   0.277   3.806  11.566 -0.3007  0.4039 -1.1270
21167SOL    HW264943   0.375   3.702  11.517 -1.3327 -0.9575 -0.4008
21168SOL     OW64944   3.816   5.044  12.382 -0.4479  0.4095 -0.1309
21168SOL    HW164945   3.864   5.059  12.301 -0.2745  2.0124  0.2323
21168SOL    HW264946   3.879   5.066  12.451 -0.9054  0.0202  0.4247
21169SOL     OW64947   0.862   3.832   6.099 -0.3286  0.0331  0.2685
21169SOL    HW164948   0.815   3.871   6.025  0.2266  1.7349  0.7583
21169SOL    HW264949   0.923   3.900   6.126  0.7910 -1.2685  1.1193
21170SOL     OW64950   0.669   7.066   2.946 -0.8450 -0.1437 -0.1360
21170SOL    HW164951   0.750   7.016   2.955 -0.6863 -0.0931 -1.2254
21170SOL    HW264952   0.691   7.153   2.978 -0.5861 -0.2422 -0.0425
21171SOL     OW64953   6.671   6.904  12.031 -0.4485  0.0625  0.1634
21171SOL    HW164954   6.599   6.843  12.015 -0.2113  0.2359 -1.8904
21171SOL    HW264955   6.639   6.988  11.997 -0.0537  0.6375  1.1789
21172SOL     OW64956   7.245   2.104   8.646  0.2846 -0.0995  0.6122
21172SOL    HW164957   7.198   2.162   8.706 -0.8417 -0.4595  0.0972
21172SOL    HW264958   7.325   2.081   8.694  0.0932  0.7634  1.3826
21173SOL     OW64959   7.120   2.673   2.959  0.0224  0.3904  0.4456
21173SOL    HW164960   7.190   2.622   3.000  1.2555  2.1762  0.6993
21173SOL    HW264961   7.140   2.671   2.866 -1.6413 -2.0015  0.0694
21174SOL     OW64962   5.001   6.478  10.333 -0.3573  0.3596  0.0173
21174SOL    HW164963   4.919   6.474  10.283 -0.1828  1.2140 -0.3634
21174SOL    HW264964   5.069   6.491  10.266  0.0559 -0.0553  0.3513
21175SOL     OW64965   1.516   7.202  11.271  0.1007 -0.3399  0.3852
21175SOL    HW164966   1.562   7.276  11.232  0.9735 -0.5077  1.0698
21175SOL    HW264967   1.423   7.226  11.266  0.3386  0.5544  0.1259
21176SOL     OW64968   0.462   7.540   8.987 -0.5214 -0.1040  0.7920
21176SOL    HW164969   0.487   7.535   8.895 -1.5565 -0.3700  0.5033
21176SOL    HW264970   0.544   7.531   9.036  0.1206  0.7261 -0.1103
21177SOL     OW64971   2.328   7.520   3.406  0.1616 -0.6919 -0.3658
21177SOL    HW164972   2.249   7.560   3.370 -0.2582 -1.0316  0.1703
21177SOL    HW264973   2.397   7.543   3.343 -0.3119 -0.1973 -0.7162
21178SOL     OW64974   1.423   0.774   4.508 -0.0299  0.2208  0.1082
21178SOL    HW164975   1.333   0.783   4.476 -0.0364 -0.0648  0.0424
21178SOL    HW264976   1.451   0.687   4.478 -0.2728 -0.3526  1.4933
21179SOL     OW64977   7.386   5.605   9.641 -0.0285 -0.0178  0.4105
21179SOL    HW164978   7.402   5.669   9.710  0.5837 -0.2522  0.4892
21179SOL    HW264979   7.295   5.577   9.654  0.3636 -0.7376  1.6862
21180SOL     OW64980   7.087   1.372   7.241  0.2368 -0.4503 -0.0006
21180SOL    HW164981   7.027   1.421   7.184  0.3113 -1.0459 -0.5916
21180SOL    HW264982   7.162   1.351   7.186  0.5109 -0.6460  0.4403
21181SOL     OW64983   6.515   0.305   9.373 -0.2233  0.5747  0.1129
21181SOL    HW164984   6.515   0.388   9.326 -1.9729 -0.1031 -1.1788
21181SOL    HW264985   6.457   0.248   9.322  0.1604 -1.1410  1.4906
21182SOL     OW64986   3.900   2.033   1.708  0.4449 -0.3657 -0.4614
21182SOL    HW164987   3.830   1.968   1.700 -0.1970  0.3706 -0.9711
21182SOL    HW264988   3.872   2.105   1.652  2.4884 -0.8014 -2.2018
21183SOL     OW64989   5.208   6.361  10.780  0.4279 -0.3725  0.3224
21183SOL    HW164990   5.227   6.413  10.702 -0.4231 -0.3171  0.1383
21183SOL    HW264991   5.162   6.422  10.839 -0.1246 -0.7742  0.3115
21184SOL     OW64992   7.289   7.768   7.544 -0.6221 -0.7082  0.2562
21184SOL    HW164993   7.276   7.796   7.635  0.0278 -0.1238  0.1771
21184SOL    HW264994   7.351   7.831   7.509 -2.2399  0.2081 -1.1387
21185SOL     OW64995   3.889   6.782   2.819  0.4598 -0.4595 -0.1618
21185SOL    HW164996   3.954   6.794   2.888  1.5997  0.3756 -1.3327
21185SOL    HW264997   3.885   6.687   2.806 -2.8137 -1.1393  3.7717
21186SOL     OW64998   6.220   5.272   3.669 -0.0873 -0.0976  0.7432
21186SOL    HW164999   6.272   5.241   3.595  0.2137  0.5444  0.6804
21186SOL    HW265000   6.281   5.277   3.742 -0.2997 -0.3603  0.9413
21187SOL     OW65001   2.145   4.381   9.067  0.0457 -0.4266  0.3464
21187SOL    HW165002   2.067   4.343   9.108 -0.1861  0.2856  0.5784
21187SOL    HW265003   2.171   4.317   9.001  0.0427 -1.2951  1.1633
21188SOL     OW65004   4.844   1.863   7.192 -0.3808 -0.1080 -0.3297
21188SOL    HW165005   4.904   1.933   7.167 -0.7156  1.1375  2.1411
21188SOL    HW265006   4.861   1.847   7.285  0.4768 -4.1475 -0.9743
21189SOL     OW65007   4.672   0.843   2.704 -0.8311  0.4730 -0.1919
21189SOL    HW165008   4.666   0.777   2.634  1.2834  1.4288 -1.3889
21189SOL    HW265009   4.717   0.797   2.776  3.1967  1.1153 -2.0059
21190SOL     OW65010   6.753   1.446   1.022 -0.2812  0.0884 -0.7819
21190SOL    HW165011   6.736   1.404   0.937  0.4002 -0.7975 -0.4892
21190SOL    HW265012   6.803   1.381   1.071 -1.4749  0.2188  0.6572
21191SOL     OW65013   2.125   5.752   8.475  0.3915  0.4129 -0.8564
21191SOL    HW165014   2.060   5.796   8.419 -1.7238 -1.7922 -0.3189
21191SOL    HW265015   2.091   5.764   8.564  0.4026 -1.2320 -0.6132
21192SOL     OW65016   3.224   7.890   8.156  0.1015  0.1768  0.5019
21192SOL    HW165017   3.182   7.976   8.162 -1.1827 -0.3195 -0.7758
21192SOL    HW265018   3.286   7.899   8.084 -2.9653 -0.9936 -2.5845
21193SOL     OW65019   3.108   2.202   3.297 -0.2040 -0.4635  0.1938
21193SOL    HW165020   3.130   2.226   3.207 -0.8570 -1.0177 -0.1226
21193SOL    HW265021   3.149   2.116   3.309 -0.3151 -0.4936  0.3473
21194SOL     OW65022   5.055   0.369   6.624  0.0519  0.4628  0.4284
21194SOL    HW165023   4.969   0.411   6.618 -0.7436 -1.1173 -0.1157
21194SOL    HW265024   5.055   0.326   6.710 -1.0055 -2.0437 -0.7256
21195SOL     OW65025   4.659   2.436   9.855 -0.2585  0.6833 -0.2563
21195SOL    HW165026   4.691   2.381   9.927  0.0467  0.0235 -0.8911
21195SOL    HW265027   4.564   2.431   9.861 -0.2327 -0.1198 -0.4678
21196SOL     OW65028   0.907   5.784   2.262  0.2198  0.0261 -0.8061
21196SOL    HW165029   0.925   5.827   2.179  1.7942  2.2632  0.5922
21196SOL    HW265030   0.976   5.718   2.271 -0.4402 -0.7915 -1.6116
21197SOL     OW65031   0.259   6.134   9.373 -1.0164 -0.1696  0.2012
21197SOL    HW165032   0.233   6.056   9.422  1.1342 -1.1143 -0.0357
21197SOL    HW265033   0.312   6.100   9.300 -1.7986  1.3846 -1.1663
21198SOL     OW65034   4.106   0.366   3.789 -0.2097  0.4403 -0.5266
21198SOL    HW165035   4.039   0.378   3.722 -0.7417 -2.0761 -0.5602
21198SOL    HW265036   4.172   0.311   3.748  1.5916  2.2771 -0.2524
21199SOL     OW65037   0.102   5.857   1.401  0.0861 -0.0534  0.0580
21199SOL    HW165038   0.099   5.894   1.312 -0.0651 -0.5309 -0.1410
21199SOL    HW265039   0.031   5.793   1.402 -0.6367  0.7490  0.8953
21200SOL     OW65040   0.657   2.304   3.837 -0.0988 -0.0801 -0.0291
21200SOL    HW165041   0.657   2.386   3.887 -1.0522  1.8632 -2.9664
21200SOL    HW265042   0.609   2.325   3.757  0.5291 -3.2707 -1.3793
21201SOL     OW65043   5.008   6.253   4.276  0.4132 -0.1221  0.7711
21201SOL    HW165044   5.057   6.312   4.219 -0.6828  0.2454  0.1881
21201SOL    HW265045   5.011   6.295   4.362  1.3621 -0.2617  0.8168
21202SOL     OW65046   2.766   4.112   5.678 -0.3237 -0.4637  0.3899
21202SOL    HW165047   2.748   4.126   5.585  0.7822 -0.0331  0.2239
21202SOL    HW265048   2.810   4.027   5.681 -1.7416 -1.2180  0.7181
21203SOL     OW65049   2.082   4.045  11.783 -0.0104  0.2483  0.4322
21203SOL    HW165050   2.102   3.955  11.808 -1.4364  0.0458  0.8756
21203SOL    HW265051   2.053   4.039  11.692 -0.2720  0.2346  0.5159
21204SOL     OW65052   5.221   1.966   1.504 -0.1101 -0.2704 -0.2840
21204SOL    HW165053   5.192   1.894   1.448 -1.7725  0.9497 -1.0678
21204SOL    HW265054   5.262   1.923   1.579  0.1310 -1.9902 -1.3370
21205SOL     OW65055   7.254   7.439   5.312  0.2184  0.2830 -0.0649
21205SOL    HW165056   7.245   7.457   5.219 -0.0130  2.7219  0.3591
21205SOL    HW265057   7.296   7.517   5.348 -0.3271 -0.2969  1.9798
21206SOL     OW65058   4.845   6.207   9.479  0.1555 -0.2258  0.0870
21206SOL    HW165059   4.802   6.194   9.395 -0.0250  0.0718  0.1302
21206SOL    HW265060   4.861   6.302   9.483 -1.0975 -0.0277  0.9911
21207SOL     OW65061   3.444   1.121   6.152  0.2525 -0.0034  0.5538
21207SOL    HW165062   3.503   1.149   6.082  2.0408  3.0227  3.0128
21207SOL    HW265063   3.489   1.047   6.193  0.7964  0.2921  0.4967
21208SOL     OW65064   0.805   6.039  10.223 -0.1385  0.2938 -0.5946
21208SOL    HW165065   0.880   6.095  10.203 -0.4161  0.5322 -0.9776
21208SOL    HW265066   0.774   6.009  10.137 -0.9812  0.8462 -0.4988
21209SOL     OW65067   4.042   4.374  12.131  0.4931  0.1325 -0.1027
21209SOL    HW165068   4.071   4.290  12.095 -0.8995  0.5535 -2.4644
21209SOL    HW265069   4.098   4.439  12.088 -0.5696  0.5886 -0.8460
21210SOL     OW65070   3.310   3.145   4.589 -0.1229 -0.2437  0.0533
21210SOL    HW165071   3.333   3.232   4.622  0.1103  0.5329 -1.9658
21210SOL    HW265072   3.309   3.089   4.666  0.9557  1.2952  1.2536
21211SOL     OW65073   6.727   1.514   4.834 -0.3652  0.5404 -0.8309
21211SOL    HW165074   6.636   1.489   4.815 -0.9462  1.5027  0.5735
21211SOL    HW265075   6.744   1.479   4.921  0.1759  1.4812 -0.5486
21212SOL     OW65076   6.126   2.112   7.044 -0.2779  0.5688 -0.3596
21212SOL    HW165077   6.149   2.123   6.951  0.9384  0.0950 -0.1280
21212SOL    HW265078   6.210   2.120   7.090 -0.7132 -0.3045  0.6070
21213SOL     OW65079   1.185   1.960   7.361 -0.0376  0.5997 -0.2328
21213SOL    HW165080   1.228   1.963   7.446 -1.0024  1.0738  0.2511
21213SOL    HW265081   1.248   1.918   7.304  0.1059 -0.9647  1.0210
21214SOL     OW65082   1.989   5.593   4.372 -0.2200 -0.0470 -0.1396
21214SOL    HW165083   1.916   5.537   4.397 -0.7356  0.7008  0.0683
21214SOL    HW265084   1.953   5.682   4.373  0.8669  0.4168  0.6873
21215SOL     OW65085   1.924   5.321   3.087  0.1194 -0.6771 -0.2397
21215SOL    HW165086   1.934   5.359   3.175 -1.8897 -0.4740 -0.0420
21215SOL    HW265087   1.953   5.230   3.097  0.0305 -0.6232  0.6286
21216SOL     OW65088   6.853   2.439   8.960  0.0100  0.1072 -0.9141
21216SOL    HW165089   6.815   2.520   8.995  1.2058 -0.3148  1.5878
21216SOL    HW265090   6.944   2.462   8.940 -0.0069 -0.2863 -1.4447
21217SOL     OW65091   2.965   3.337   2.088  0.5840  0.0213  0.2712
21217SOL    HW165092   3.029   3.267   2.076 -1.7214 -2.2009  0.2465
21217SOL    HW265093   2.906   3.304   2.156 -1.1156  1.5369 -0.3931
21218SOL     OW65094   6.666   4.917  11.746  0.0224  0.7355 -0.3904
21218SOL    HW165095   6.630   5.005  11.752 -0.2327  0.5718  0.5957
21218SOL    HW265096   6.618   4.866  11.811  0.5221 -0.0151 -0.5855
21219SOL     OW65097   7.145   5.758  11.165  0.4634  0.2501  0.3733
21219SOL    HW165098   7.124   5.822  11.097  1.1198 -0.1409 -0.2056
21219SOL    HW265099   7.228   5.787  11.202  1.4719 -0.9828 -0.8208
21220SOL     OW65100   0.915   1.614   5.313  0.1899 -0.1004 -0.3659
21220SOL    HW165101   0.896   1.583   5.224  0.8022 -0.6394 -0.3201
21220SOL    HW265102   0.880   1.546   5.370 -0.0313  0.1541 -0.1934
21221SOL     OW65103   3.422   5.389   0.753 -0.0159  0.1868  0.2554
21221SOL    HW165104   3.474   5.444   0.812  1.3520 -1.3918  0.5717
21221SOL    HW265105   3.482   5.320   0.726 -1.3861 -0.5517 -0.9820
21222SOL     OW65106   7.037   2.181   6.362 -0.0459 -0.1726 -0.2186
21222SOL    HW165107   7.028   2.242   6.435  1.3601 -1.7258  1.3398
21222SOL    HW265108   6.969   2.208   6.300 -3.4636 -0.5863  2.9607
21223SOL     OW65109   7.980   5.086   8.470  0.1291  0.3623  0.4297
21223SOL    HW165110   7.959   5.116   8.381 -1.8058  2.1928  1.4303
21223SOL    HW265111   7.935   5.147   8.528  0.1107 -1.6393  2.7031
21224SOL     OW65112   3.007   7.730   4.077 -0.4516  0.2308  0.2985
21224SOL    HW165113   2.986   7.656   4.135 -2.6305 -0.7404 -1.5470
21224SOL    HW265114   3.071   7.694   4.015 -1.0955  0.0061 -0.2581
21225SOL     OW65115   7.636   5.372   3.351  0.3083  0.3929 -0.2936
21225SOL    HW165116   7.696   5.299   3.361 -1.2161 -0.5875  3.3144
21225SOL    HW265117   7.689   5.449   3.372  1.0027 -0.1023 -0.1936
21226SOL     OW65118   1.217   4.617   4.922  0.1805  0.0302 -0.0132
21226SOL    HW165119   1.122   4.619   4.906  0.2798  0.6637 -0.5910
21226SOL    HW265120   1.228   4.561   4.998 -0.6988  0.2873  0.3099
21227SOL     OW65121   6.314   7.889   4.210 -0.1516  0.0927 -0.4480
21227SOL    HW165122   6.238   7.856   4.259 -0.9614  1.6536 -0.5961
21227SOL    HW265123   6.380   7.820   4.219 -0.9114 -0.4630  1.3082
21228SOL     OW65124   1.015   2.022   8.132  0.5892 -0.8760  0.3246
21228SOL    HW165125   0.937   1.995   8.085 -0.2790  0.4371  0.9463
21228SOL    HW265126   1.030   1.954   8.197  0.4501 -1.5368 -0.3297
21229SOL     OW65127   0.468   4.515   8.701  0.1866 -0.2666  0.8355
21229SOL    HW165128   0.536   4.579   8.720  1.9260 -1.5266 -0.7994
21229SOL    HW265129   0.461   4.463   8.781  1.9302 -0.7695  0.7028
21230SOL     OW65130   2.844   3.767   6.631 -0.4125  0.0281 -0.3939
21230SOL    HW165131   2.869   3.692   6.578 -1.0684 -0.3712 -0.1584
21230SOL    HW265132   2.921   3.788   6.683  0.0818  0.1254 -1.1481
21231SOL     OW65133   3.236   4.872   1.088  0.4586  0.3609  0.0518
21231SOL    HW165134   3.275   4.953   1.121  0.3889  0.3044  0.2769
21231SOL    HW265135   3.147   4.897   1.065  0.4715  0.3740  0.0162
21232SOL     OW65136   2.574   2.871   8.676  0.3806  0.7914 -0.2265
21232SOL    HW165137   2.480   2.866   8.659  0.0608 -0.9092  1.6364
21232SOL    HW265138   2.614   2.816   8.608 -0.0917  0.5994 -0.3534
21233SOL     OW65139   2.241   1.312  10.124  0.3010 -0.4437  0.6430
21233SOL    HW165140   2.146   1.300  10.119 -0.0501  2.2155 -0.9048
21233SOL    HW265141   2.276   1.255  10.055 -0.1116 -1.5925  1.3556
21234SOL     OW65142   1.049   4.006  11.365  0.1262 -0.3572 -0.0206
21234SOL    HW165143   0.978   3.949  11.336  1.0764 -0.7034 -1.8377
21234SOL    HW265144   1.010   4.094  11.368 -0.4017 -0.5529 -0.8889
21235SOL     OW65145   1.839   5.094   0.501  0.0903  0.4118  0.5889
21235SOL    HW165146   1.771   5.027   0.510  0.5461 -0.2359 -0.5770
21235SOL    HW265147   1.809   5.150   0.430  0.6382  0.2804  0.2485
21236SOL     OW65148   6.237   0.092   3.953  0.2905  0.2366 -0.2310
21236SOL    HW165149   6.294   0.036   4.006  0.5809 -0.5937 -1.3893
21236SOL    HW265150   6.148   0.068   3.980  0.4380 -0.0585  0.0043
21237SOL     OW65151   2.620   4.345   1.144 -0.0832  0.3885 -0.6994
21237SOL    HW165152   2.646   4.426   1.100 -1.9781  0.9120 -0.9752
21237SOL    HW265153   2.571   4.296   1.077 -0.4998 -0.1529 -0.0234
21238SOL     OW65154   2.349   3.468   8.391 -0.2426  0.0587 -0.0558
21238SOL    HW165155   2.427   3.519   8.412  1.1247 -2.7264  2.1224
21238SOL    HW265156   2.277   3.531   8.401  1.5187  2.2863 -0.5104
21239SOL     OW65157   6.183   4.960  12.107 -0.2236 -0.0928 -0.4450
21239SOL    HW165158   6.150   5.042  12.070  0.1672  0.3900  0.2482
21239SOL    HW265159   6.164   4.966  12.200  0.6934 -0.3453 -0.2306
21240SOL     OW65160   5.512   1.212   6.665  0.2856  0.1912  0.1167
21240SOL    HW165161   5.523   1.299   6.703  1.1143  0.0147  0.2972
21240SOL    HW265162   5.492   1.228   6.573  0.6172  0.5642  0.1102
21241SOL     OW65163   4.414   0.793   7.322 -0.2190 -0.8128  0.1492
21241SOL    HW165164   4.496   0.756   7.353 -0.6688 -2.3263 -0.3813
21241SOL    HW265165   4.346   0.736   7.358 -1.2991  1.8317  2.6902
21242SOL     OW65166   4.048   5.896   1.313  0.0748  0.4161 -0.5218
21242SOL    HW165167   4.002   5.967   1.268  2.5683  1.8261 -1.0172
21242SOL    HW265168   4.138   5.903   1.283  0.9275 -1.4066  1.3631
21243SOL     OW65169   3.933   1.937   2.474 -0.2532 -0.3262 -0.6028
21243SOL    HW165170   3.847   1.959   2.511 -0.3542 -0.8518 -0.5281
21243SOL    HW265171   3.950   1.848   2.504  1.5202  0.6624  1.6743
21244SOL     OW65172   0.784   7.215   7.478  0.5908 -0.0109  0.3025
21244SOL    HW165173   0.852   7.148   7.473  0.5167 -0.0860  0.2864
21244SOL    HW265174   0.756   7.214   7.570  1.6527  1.0734  0.6540
21245SOL     OW65175   7.052   2.543   8.657  0.2751 -0.0289 -0.2401
21245SOL    HW165176   7.045   2.454   8.691  1.5423 -0.0751 -0.0500
21245SOL    HW265177   6.974   2.554   8.602  0.6793 -1.6759 -1.2092
21246SOL     OW65178   3.873   7.081   4.973  0.0375  0.4796 -0.4390
21246SOL    HW165179   3.780   7.100   4.984  0.1479  0.6593  0.1776
21246SOL    HW265180   3.914   7.106   5.056  0.9826  2.4994 -1.4440
21247SOL     OW65181   6.325   2.960  10.043  0.0587 -0.7015  0.3203
21247SOL    HW165182   6.312   3.028   9.977  0.2216 -0.7193  0.2667
21247SOL    HW265183   6.299   3.001  10.126 -0.1822 -0.6911  0.2397
21248SOL     OW65184   0.134   4.234   0.405  0.0091 -0.5591  0.0241
21248SOL    HW165185   0.044   4.200   0.404 -0.0239 -0.6155  1.4948
21248SOL    HW265186   0.124   4.329   0.403  0.0132 -0.5637 -1.6950
21249SOL     OW65187   6.787   6.194   3.961  0.0317  0.2705 -0.0608
21249SOL    HW165188   6.744   6.113   3.936  0.4561  0.3125 -0.9550
21249SOL    HW265189   6.797   6.243   3.879 -1.5722  1.8941  0.6423
21250SOL     OW65190   1.349   1.260   2.015  0.6670  0.1679 -0.1383
21250SOL    HW165191   1.311   1.178   1.984 -0.2380  0.6634 -0.3987
21250SOL    HW265192   1.433   1.266   1.970  0.8354 -0.7154  0.0467
21251SOL     OW65193   7.741   6.614   3.393 -0.0561 -0.5282 -0.2020
21251SOL    HW165194   7.670   6.658   3.346  1.2260 -1.3775 -3.1702
21251SOL    HW265195   7.795   6.685   3.427  0.8742  0.3170 -3.1649
21252SOL     OW65196   3.610   3.656  10.182 -0.1474  0.0314 -0.3577
21252SOL    HW165197   3.517   3.654  10.203 -0.0307 -0.6184  0.1073
21252SOL    HW265198   3.614   3.639  10.088 -0.5295  0.6582 -0.4936
21253SOL     OW65199   1.266   4.929   5.977  0.0308  0.1945 -0.0703
21253SOL    HW165200   1.200   4.872   6.015 -0.5967  1.1099  0.2579
21253SOL    HW265201   1.345   4.912   6.029 -0.5102  0.5933  0.9232
21254SOL     OW65202   1.112   4.881  11.506 -0.3120  0.2324  0.5144
21254SOL    HW165203   1.160   4.798  11.506 -0.5254  0.0772 -1.0007
21254SOL    HW265204   1.164   4.939  11.563 -0.5202 -1.1088  2.1375
21255SOL     OW65205   6.330   6.440  11.754  0.3207 -0.5483 -0.4421
21255SOL    HW165206   6.389   6.439  11.829  0.5908 -1.3099 -0.6531
21255SOL    HW265207   6.255   6.386  11.782 -0.1349  0.1401 -0.2955
21256SOL     OW65208   5.735   2.445  12.063 -0.3168 -0.5687  0.4821
21256SOL    HW165209   5.707   2.356  12.041 -0.0481 -0.3037 -1.0317
21256SOL    HW265210   5.668   2.477  12.123 -1.2909 -1.2213 -0.2275
21257SOL     OW65211   1.475   5.628   0.512  0.4282 -0.8379  0.3238
21257SOL    HW165212   1.540   5.585   0.566  0.4866  1.1490  1.9457
21257SOL    HW265213   1.519   5.705   0.477 -0.5426 -0.3691  0.0790
21258SOL     OW65214   5.836   7.270   4.692 -0.1056 -0.2859 -0.3411
21258SOL    HW165215   5.870   7.190   4.652  0.7088 -0.1888  0.1392
21258SOL    HW265216   5.888   7.281   4.772 -0.5338  0.4608 -0.1582
21259SOL     OW65217   2.151   5.539   2.843 -0.1929 -0.1733  0.4288
21259SOL    HW165218   2.135   5.497   2.927 -0.6766 -1.4953 -0.2921
21259SOL    HW265219   2.070   5.527   2.794 -0.0720  0.9503 -0.0946
21260SOL     OW65220   6.868   6.790   8.569 -0.5942 -0.3435 -0.1196
21260SOL    HW165221   6.905   6.784   8.657 -2.0498 -0.7462  0.5033
21260SOL    HW265222   6.838   6.701   8.550 -0.5660 -0.1904 -0.8934
21261SOL     OW65223   5.290   1.089   6.762  0.0366 -0.3908 -0.0178
21261SOL    HW165224   5.355   1.140   6.714 -1.7912  1.0364 -1.1107
21261SOL    HW265225   5.307   1.109   6.854  0.4344  0.8836 -0.3543
21262SOL     OW65226   0.524   0.211   2.129 -0.0473  0.1109 -0.1009
21262SOL    HW165227   0.574   0.151   2.073 -0.4246 -0.1059 -0.2124
21262SOL    HW265228   0.513   0.163   2.211  0.8657  0.5944  0.3184
21263SOL     OW65229   5.712   1.448   2.616  0.2699 -0.0165 -0.3318
21263SOL    HW165230   5.718   1.438   2.522 -1.9476  2.3013 -0.8598
21263SOL    HW265231   5.776   1.516   2.637  2.6098 -2.3068  0.3340
21264SOL     OW65232   2.522   4.627   2.184 -0.1015  0.6156  0.3139
21264SOL    HW165233   2.455   4.671   2.237  0.3931  0.3086  1.2191
21264SOL    HW265234   2.587   4.596   2.248  1.2779  1.5235 -0.5929
21265SOL     OW65235   1.712   1.728  12.047  0.2633  0.2196  0.4079
21265SOL    HW165236   1.690   1.738  12.140  0.5010 -0.5707  0.5570
21265SOL    HW265237   1.685   1.811  12.007 -3.3311 -0.7488  0.4926
21266SOL     OW65238   5.359   6.087  11.853 -0.0482 -0.5202 -0.1018
21266SOL    HW165239   5.398   6.007  11.888 -2.0286 -1.3587  0.3601
21266SOL    HW265240   5.268   6.062  11.835 -0.2681  1.1781 -1.5536
21267SOL     OW65241   0.832   5.675   4.433 -0.8437 -0.6224 -0.3163
21267SOL    HW165242   0.877   5.748   4.391 -0.3176 -1.5477 -1.4375
21267SOL    HW265243   0.752   5.713   4.469 -0.4816  0.5378 -0.6989
21268SOL     OW65244   2.560   1.055   1.095  0.2469 -0.4253 -0.1289
21268SOL    HW165245   2.480   1.097   1.061  0.8084 -1.1438 -2.5091
21268SOL    HW265246   2.613   1.128   1.128 -0.9630  0.1456  0.6393
21269SOL     OW65247   4.920   4.872   0.069  0.4563  0.1563 -0.1581
21269SOL    HW165248   5.003   4.881   0.116  0.4961  1.7893 -0.4716
21269SOL    HW265249   4.860   4.833   0.132  0.7757  1.3680  0.9236
21270SOL     OW65250   2.890   2.041   0.552 -0.4151  0.0663  0.2570
21270SOL    HW165251   2.809   2.022   0.503  0.1759 -1.6842 -0.1375
21270SOL    HW265252   2.929   2.115   0.506 -0.6678 -0.5269 -0.9783
21271SOL     OW65253   4.055   3.827   6.412 -0.2996  0.1530 -0.4177
21271SOL    HW165254   4.126   3.791   6.465 -1.6405  0.3539  1.6547
21271SOL    HW265255   4.037   3.760   6.347  1.4131 -0.1184 -0.6642
21272SOL     OW65256   2.796   6.751   7.361  0.0130  0.5692 -0.0240
21272SOL    HW165257   2.851   6.673   7.366 -0.7763  0.0824  2.1395
21272SOL    HW265258   2.716   6.721   7.318  0.1537  0.5015 -0.2465
21273SOL     OW65259   5.363   3.636   7.722 -0.2404  0.1982  0.2043
21273SOL    HW165260   5.354   3.635   7.817 -1.7298  0.3771  0.0947
21273SOL    HW265261   5.457   3.629   7.706  0.3002  2.8404  1.7317
21274SOL     OW65262   5.448   5.917   8.421  0.4549  0.7442  0.7480
21274SOL    HW165263   5.487   5.970   8.351 -1.0551 -0.0387 -0.7566
21274SOL    HW265264   5.415   5.980   8.484 -0.5661  1.6196 -0.6033
21275SOL     OW65265   2.997   4.276   2.087  0.1532 -0.1834  0.0543
21275SOL    HW165266   2.926   4.317   2.037 -0.6734 -0.7325  0.7460
21275SOL    HW265267   3.034   4.348   2.139 -0.8287 -0.1506  0.7383
21276SOL     OW65268   6.920   0.209   3.714  0.4033 -0.2320 -0.7517
21276SOL    HW165269   6.853   0.236   3.777  0.5749 -0.4170 -0.4892
21276SOL    HW265270   6.894   0.121   3.686 -0.2443  0.2485 -1.7302
21277SOL     OW65271   7.565   5.164   6.882 -0.4891 -0.0953 -0.4030
21277SOL    HW165272   7.499   5.179   6.950  1.3006 -0.8780  1.6041
21277SOL    HW265273   7.562   5.243   6.828 -0.4005  1.6358  1.9776
21278SOL     OW65274   4.984   0.449   7.033  0.1588  0.1122  0.1793
21278SOL    HW165275   4.896   0.422   7.061  0.5477  0.8947  2.3609
21278SOL    HW265276   5.006   0.388   6.963  0.0818 -3.8963  3.2422
21279SOL     OW65277   2.433   6.363   7.862 -0.5546 -0.5038  0.2894
21279SOL    HW165278   2.413   6.434   7.801 -0.1220 -0.2395  0.4493
21279SOL    HW265279   2.376   6.291   7.834 -1.0771 -0.0594  0.1977
21280SOL     OW65280   7.655   6.315   6.750  0.5499  0.2149 -0.2818
21280SOL    HW165281   7.639   6.315   6.656  0.1361 -1.5348 -0.2533
21280SOL    HW265282   7.726   6.252   6.763 -0.1967 -0.4857  0.6523
21281SOL     OW65283   0.333   0.936   6.018 -0.2355  0.2335 -0.0559
21281SOL    HW165284   0.369   0.970   6.100 -1.7782  1.8341  0.0130
21281SOL    HW265285   0.383   0.981   5.949  1.9271 -2.0263 -0.1206
21282SOL     OW65286   0.982   2.415  10.749  0.2568 -0.2608  0.2796
21282SOL    HW165287   1.017   2.451  10.668 -1.6009 -0.6770 -0.7882
21282SOL    HW265288   1.043   2.345  10.773  1.3079  0.4513 -0.2546
21283SOL     OW65289   0.013   3.453   5.760  0.2853  0.1532  0.5680
21283SOL    HW165290   0.031   3.478   5.670 -1.1582 -0.1886  0.1665
21283SOL    HW265291  -0.070   3.496   5.781  0.6902  0.3844  1.8115
21284SOL     OW65292   1.652   4.157   6.314  0.0856 -0.3156 -0.2283
21284SOL    HW165293   1.615   4.154   6.402 -0.7753 -0.2251 -0.5775
21284SOL    HW265294   1.720   4.090   6.314  1.0851  0.6578  0.9382
21285SOL     OW65295   6.897   6.702   9.582  0.0306  0.1031 -0.2091
21285SOL    HW165296   6.878   6.639   9.652  2.3519 -0.7793 -0.2748
21285SOL    HW265297   6.891   6.652   9.501  1.7242 -0.0644 -0.2758
21286SOL     OW65298   6.833   4.089   2.912 -0.0821  0.4844  0.3765
21286SOL    HW165299   6.786   4.022   2.960  1.1591  0.7959  2.1018
21286SOL    HW265300   6.836   4.165   2.971 -0.4410  1.6780 -1.0656
21287SOL     OW65301   6.160   6.592  12.213  0.4899  0.3048  0.1210
21287SOL    HW165302   6.142   6.636  12.296  0.3725 -0.2583  0.4045
21287SOL    HW265303   6.203   6.510  12.239  0.9128  0.3599 -0.4031
21288SOL     OW65304   7.048   0.854   4.205  0.6440 -0.6324  0.5787
21288SOL    HW165305   6.974   0.892   4.159  0.6995 -0.2594  0.7950
21288SOL    HW265306   7.078   0.783   4.148  0.5118 -0.3839  0.1963
21289SOL     OW65307   1.051   1.004   3.372 -0.2375  0.2273 -0.2713
21289SOL    HW165308   1.022   1.017   3.463  0.7863 -1.7222  0.4032
21289SOL    HW265309   0.969   0.992   3.323 -0.8157  1.5311  0.3293
21290SOL     OW65310   2.263   0.965   7.850  0.3201  0.1350  0.0997
21290SOL    HW165311   2.348   0.961   7.894  0.7258 -0.4943 -0.7247
21290SOL    HW265312   2.263   1.050   7.806  0.5915  0.0762 -0.0197
21291SOL     OW65313   6.176   5.578   9.817 -0.0706  0.3915 -0.2087
21291SOL    HW165314   6.251   5.636   9.830  0.7210 -0.2870 -1.5236
21291SOL    HW265315   6.133   5.574   9.903  0.7889  1.6106  0.3025
21292SOL     OW65316   1.440   2.703   4.085 -0.2668  0.8782  0.0528
21292SOL    HW165317   1.460   2.791   4.117 -0.0186  1.4270 -1.5296
21292SOL    HW265318   1.482   2.645   4.148  0.7918  1.9188  0.3408
21293SOL     OW65319   5.334   3.149   3.434 -0.0521  0.0484 -0.3863
21293SOL    HW165320   5.383   3.081   3.480 -0.4943 -0.8215 -1.1671
21293SOL    HW265321   5.364   3.231   3.472  2.6404 -0.3821 -1.3996
21294SOL     OW65322   3.908   2.473   4.713 -0.2718 -0.4202 -0.0218
21294SOL    HW165323   3.863   2.557   4.711  2.6123  1.2545 -0.2470
21294SOL    HW265324   3.884   2.430   4.631 -0.2471  1.0798 -0.8400
21295SOL     OW65325   6.674   1.599   4.478  0.9786 -0.3774  0.0467
21295SOL    HW165326   6.593   1.610   4.526  0.2373 -0.9979 -1.0157
21295SOL    HW265327   6.671   1.665   4.409  1.7535  0.1105  0.4536
21296SOL     OW65328   5.811   3.395   5.176  0.0751  0.0638 -0.3294
21296SOL    HW165329   5.728   3.437   5.199 -0.0487 -0.6199  0.5338
21296SOL    HW265330   5.791   3.343   5.099 -0.6002 -0.9968  0.5437
21297SOL     OW65331   6.482   1.292  10.477 -0.1907  0.2519 -0.0372
21297SOL    HW165332   6.527   1.247  10.548 -0.2637 -1.7801 -1.2175
21297SOL    HW265333   6.553   1.320  10.419 -0.2907 -1.8422 -1.2583
21298SOL     OW65334   4.903   1.547   5.193  0.3624 -0.3042 -0.0321
21298SOL    HW165335   4.990   1.586   5.193 -0.1900  1.1025  2.0793
21298SOL    HW265336   4.901   1.490   5.270  0.0454 -1.9448 -1.2072
21299SOL     OW65337   7.474   4.614   0.383  0.4059 -0.2634  0.1041
21299SOL    HW165338   7.407   4.667   0.339  0.0240 -1.1782 -0.4390
21299SOL    HW265339   7.458   4.628   0.477  1.0768  1.5177 -0.0188
21300SOL     OW65340   0.362   4.527   1.391 -0.1323  0.2012 -0.3207
21300SOL    HW165341   0.374   4.588   1.464 -2.4475  0.9520 -0.4945
21300SOL    HW265342   0.379   4.441   1.430  1.2500  0.7650  0.4106
21301SOL     OW65343   1.302   7.060   2.278  0.3725 -0.0561 -0.0182
21301SOL    HW165344   1.240   7.014   2.222  1.2321 -0.0300 -1.0161
21301SOL    HW265345   1.263   7.146   2.293  0.1926 -0.0230 -0.6723
21302SOL     OW65346   7.322   6.542   6.388  0.5027 -0.3765  0.2255
21302SOL    HW165347   7.294   6.633   6.399  1.2781 -0.0822 -0.1607
21302SOL    HW265348   7.289   6.517   6.302  0.4620 -0.3957  0.2467
21303SOL     OW65349   1.405   3.001  10.549  0.2241  0.5660 -0.0846
21303SOL    HW165350   1.462   2.942  10.599  0.8694  0.7464 -0.5806
21303SOL    HW265351   1.391   3.076  10.606 -0.2298  0.1366  0.3745
21304SOL     OW65352   3.616   0.634   6.099 -0.0377 -0.2969 -0.5548
21304SOL    HW165353   3.604   0.646   6.005 -0.7394 -0.2499 -0.4631
21304SOL    HW265354   3.609   0.723   6.135  2.3974  0.0097 -0.6668
21305SOL     OW65355   7.110   4.739  10.983  0.0096 -0.1174 -0.2588
21305SOL    HW165356   7.153   4.824  10.991 -1.0122  0.4577 -0.7837
21305SOL    HW265357   7.051   4.735  11.058  0.3328 -0.5446 -0.0195
21306SOL     OW65358   5.829   4.351   3.857  0.0964  0.1650  0.1390
21306SOL    HW165359   5.869   4.273   3.817 -1.0112 -0.5366  0.3308
21306SOL    HW265360   5.899   4.391   3.907  0.7435 -0.6154 -0.1100
21307SOL     OW65361   4.644   3.211   0.228 -0.0605 -0.4075  0.3881
21307SOL    HW165362   4.561   3.251   0.253  1.1596  2.4230  0.2177
21307SOL    HW265363   4.693   3.203   0.309  0.3817  0.1081  0.1749
21308SOL     OW65364   3.923   6.165   0.607 -0.0531  0.1874 -0.3129
21308SOL    HW165365   3.883   6.189   0.523 -1.0759  0.0569  0.1192
21308SOL    HW265366   3.933   6.069   0.601 -1.0382  0.0503  0.0849
21309SOL     OW65367   7.670   3.224   0.596  0.2587 -0.2010  0.1017
21309SOL    HW165368   7.765   3.215   0.600  0.5022  0.8310 -2.0416
21309SOL    HW265369   7.652   3.306   0.642  0.3737 -0.4761  0.6447
21310SOL     OW65370   2.183   3.959   7.799  0.4527  0.2086  0.0316
21310SOL    HW165371   2.247   3.892   7.823  0.2079 -0.5991 -1.4765
21310SOL    HW265372   2.142   3.984   7.882  1.1221 -0.9075  0.7220
21311SOL     OW65373   0.412   1.785   8.362 -0.0149  0.0494 -0.4400
21311SOL    HW165374   0.480   1.851   8.351 -0.7697  0.8098 -0.6544
21311SOL    HW265375   0.331   1.836   8.371 -0.4510 -0.7994  0.6649
21312SOL     OW65376   7.923   7.273   5.806  0.3681 -0.1635  0.3325
21312SOL    HW165377   7.836   7.269   5.767  0.3485 -1.4464  0.4851
21312SOL    HW265378   7.939   7.367   5.818 -1.3898  0.0643  1.1924
21313SOL     OW65379   7.769   4.753   7.382 -0.1918 -0.0642 -0.3294
21313SOL    HW165380   7.739   4.692   7.449 -0.9121 -0.3486 -0.8930
21313SOL    HW265381   7.831   4.703   7.330 -0.2388 -0.0890 -0.3610
21314SOL     OW65382   4.501   2.842   9.821  0.1351  0.1118 -0.6519
21314SOL    HW165383   4.588   2.859   9.855  0.1168 -0.2857 -0.4046
21314SOL    HW265384   4.514   2.828   9.727  0.3625 -0.1521 -0.5800
21315SOL     OW65385   3.079   4.708   5.310 -0.4755  0.2187  0.7129
21315SOL    HW165386   3.076   4.613   5.298 -0.2530  0.2454  0.4200
21315SOL    HW265387   3.148   4.722   5.374 -0.0139  0.2235  0.2259
21316SOL     OW65388   4.344   5.240  11.181  0.3715 -0.4440  0.3118
21316SOL    HW165389   4.342   5.153  11.141 -1.2044 -0.4098  0.2523
21316SOL    HW265390   4.298   5.229  11.264 -1.2088  0.6149 -0.3744
21317SOL     OW65391   3.839   1.990   5.779  0.4390 -0.1884  0.1408
21317SOL    HW165392   3.750   1.991   5.813 -0.0656  1.3626 -1.0779
21317SOL    HW265393   3.868   1.900   5.790 -1.5116 -0.8871  0.0071
21318SOL     OW65394   4.873   1.909  11.433 -0.0529  0.9745 -0.1373
21318SOL    HW165395   4.814   1.838  11.409  1.4947  0.4480 -2.8691
21318SOL    HW265396   4.944   1.867  11.481  0.5661  0.7077 -1.2439
21319SOL     OW65397   5.548   6.079   9.356  0.6126 -0.3957 -0.1886
21319SOL    HW165398   5.597   5.999   9.374  0.7760 -0.5310 -1.1761
21319SOL    HW265399   5.602   6.149   9.391  0.1454 -0.7437  1.3217
21320SOL     OW65400   6.728   7.095  11.425  0.2139  0.2456  0.0657
21320SOL    HW165401   6.730   7.173  11.480 -0.1742  0.6905 -0.5391
21320SOL    HW265402   6.744   7.023  11.486 -1.1948  0.6334  0.9464
21321SOL     OW65403   0.290   3.320  11.986 -0.2634 -0.0791 -0.5065
21321SOL    HW165404   0.313   3.247  11.928  2.4984 -0.4494  0.8685
21321SOL    HW265405   0.264   3.278  12.068 -1.4774  0.4875 -0.5766
21322SOL     OW65406   3.135   4.248   1.862  0.1740 -0.0120 -0.0775
21322SOL    HW165407   3.063   4.244   1.925  0.6762  1.9169  0.6957
21322SOL    HW265408   3.211   4.215   1.909  0.1628 -0.4165 -0.3334
21323SOL     OW65409   7.071   2.330   0.229  0.1892 -0.3962  0.1584
21323SOL    HW165410   6.995   2.297   0.277  1.0218 -0.4899  1.4581
21323SOL    HW265411   7.083   2.419   0.261  0.0237 -0.0163 -0.8012
21324SOL     OW65412   4.601   3.357   1.754  0.1718 -0.0446 -0.4487
21324SOL    HW165413   4.660   3.424   1.720  0.4342  0.0657  0.2075
21324SOL    HW265414   4.641   3.330   1.837  1.0414 -2.2970 -1.5178
21325SOL     OW65415   1.620   5.010   8.424 -0.5327 -0.1663 -0.0978
21325SOL    HW165416   1.648   4.955   8.350  0.4549 -0.2739  0.3495
21325SOL    HW265417   1.636   5.100   8.394  0.8405 -0.2452  0.3632
21326SOL     OW65418   6.381   1.430   9.581 -0.2777  0.3013  0.0371
21326SOL    HW165419   6.364   1.479   9.501  1.5325  2.2116  0.7660
21326SOL    HW265420   6.467   1.392   9.568 -0.2187  0.1434  0.8620
21327SOL     OW65421   7.548   5.891  11.864  0.0729  0.1297 -0.4210
21327SOL    HW165422   7.520   5.822  11.925 -0.6724  0.0172 -0.8779
21327SOL    HW265423   7.587   5.958  11.920 -0.7348  0.0928  0.1959
21328SOL     OW65424   6.340   3.866   5.737  0.0767  0.4879 -0.0661
21328SOL    HW165425   6.271   3.933   5.730  0.3847  0.7555 -0.5681
21328SOL    HW265426   6.327   3.810   5.661 -1.1846 -1.0021  1.1719
21329SOL     OW65427   0.486   6.665   3.291 -0.0336  0.0122  0.1677
21329SOL    HW165428   0.569   6.666   3.340  1.0531  1.4101 -1.5690
21329SOL    HW265429   0.496   6.592   3.230 -0.0537  0.2131 -0.0753
21330SOL     OW65430   3.045   4.285   4.237 -0.2085  0.8109 -0.3892
21330SOL    HW165431   3.016   4.361   4.187 -0.5973  0.0353 -1.3609
21330SOL    HW265432   2.966   4.254   4.281 -0.1566  0.6617 -0.4026
21331SOL     OW65433   4.541   4.541  11.216  0.0689  0.0065  0.6448
21331SOL    HW165434   4.634   4.550  11.237  0.2765  2.9437 -1.0304
21331SOL    HW265435   4.503   4.626  11.240 -1.2793  0.4666 -2.6708
21332SOL     OW65436   6.811   2.800   4.649  0.2232 -0.0892  0.5042
21332SOL    HW165437   6.899   2.827   4.621 -0.1456  1.6385  0.8985
21332SOL    HW265438   6.821   2.783   4.742  0.4094 -1.1819  0.2949
21333SOL     OW65439   3.424   2.118   2.052 -0.2069 -0.6468  0.3188
21333SOL    HW165440   3.454   2.185   1.991 -2.0753 -0.1281 -0.0817
21333SOL    HW265441   3.475   2.134   2.131  1.4511 -0.6209 -0.6916
21334SOL     OW65442   4.641   7.889   4.888 -0.3324 -0.2642  0.4251
21334SOL    HW165443   4.671   7.963   4.940 -0.0242 -1.0706  1.4234
21334SOL    HW265444   4.662   7.812   4.941 -3.9485 -0.9422  1.1548
21335SOL     OW65445   0.811   6.636   8.294  0.1250 -0.1434  0.2237
21335SOL    HW165446   0.774   6.636   8.382  2.3967  0.1184  1.2514
21335SOL    HW265447   0.896   6.592   8.303 -0.3440 -1.7179 -2.2164
21336SOL     OW65448   4.478   0.006  10.280  0.0066  0.1797  0.0071
21336SOL    HW165449   4.487   0.097  10.251 -0.5630 -0.3008 -1.7798
21336SOL    HW265450   4.567  -0.021  10.303 -0.0484  1.7081  2.4038
21337SOL     OW65451   2.171   2.494   3.348  0.0773 -0.3023  0.1264
21337SOL    HW165452   2.211   2.575   3.317 -0.2520 -0.3307 -0.3954
21337SOL    HW265453   2.236   2.426   3.331  1.0434  0.0567  2.0898
21338SOL     OW65454   1.492   5.416   2.819 -0.0978  0.2998  0.1018
21338SOL    HW165455   1.414   5.429   2.872 -0.7232 -1.6250 -0.2680
21338SOL    HW265456   1.490   5.486   2.754 -1.9365 -0.1425 -0.3572
21339SOL     OW65457   2.308   1.186   2.928  0.0395  0.2920  0.0332
21339SOL    HW165458   2.283   1.115   2.988  0.3931 -0.2882 -0.4920
21339SOL    HW265459   2.277   1.266   2.971 -0.0255 -0.1447  0.8196
21340SOL     OW65460   6.242   3.978   4.147  0.1481  0.3033 -0.0310
21340SOL    HW165461   6.276   3.916   4.082 -1.4244 -1.2278  0.5189
21340SOL    HW265462   6.305   3.974   4.219 -0.2493 -1.2017  0.2701
21341SOL     OW65463   4.521   0.005   6.038  0.4796 -0.8702  0.2187
21341SOL    HW165464   4.511  -0.089   6.020  0.1877 -0.6800 -0.6853
21341SOL    HW265465   4.616   0.019   6.042  0.5230 -1.2138  0.4099
21342SOL     OW65466   5.434   1.001  10.181  0.5839 -0.1429 -0.0694
21342SOL    HW165467   5.441   1.097  10.177  2.6452 -0.1996  0.9064
21342SOL    HW265468   5.409   0.976  10.092 -0.6945  1.3292 -0.1702
21343SOL     OW65469   5.338   3.868   0.779 -0.0502  0.3701 -0.3713
21343SOL    HW165470   5.340   3.960   0.753 -0.0663  0.3617 -0.4021
21343SOL    HW265471   5.263   3.861   0.838 -0.2081  0.3197 -0.5803
21344SOL     OW65472   0.266   4.156   5.126  0.2716  0.6862 -0.0790
21344SOL    HW165473   0.347   4.139   5.077 -0.5322  2.0534 -2.0005
21344SOL    HW265474   0.217   4.216   5.070 -2.1881 -0.2707  0.9374
21345SOL     OW65475   6.954   4.015   3.194  0.0633 -0.4446  0.2527
21345SOL    HW165476   6.955   4.109   3.177  1.9380 -0.4910 -0.0670
21345SOL    HW265477   6.916   3.977   3.114 -2.3637  0.0779  1.0513
21346SOL     OW65478   4.709   0.725   8.577 -0.8825  0.1839  0.4131
21346SOL    HW165479   4.753   0.718   8.661 -1.7822 -2.3203  0.7829
21346SOL    HW265480   4.659   0.643   8.569 -1.0033  0.4138 -2.4586
21347SOL     OW65481   1.922   0.628   1.258 -0.0338  0.2378  0.4440
21347SOL    HW165482   1.958   0.571   1.189  0.1407  1.5482 -0.5842
21347SOL    HW265483   1.835   0.592   1.275  1.1793 -2.2156  2.0760
21348SOL     OW65484   2.307   3.211   9.185 -0.2181  0.2278  0.1291
21348SOL    HW165485   2.343   3.133   9.228  1.5363  0.9070 -0.0119
21348SOL    HW265486   2.340   3.284   9.237 -0.9810  0.9268 -0.3430
21349SOL     OW65487   1.388   7.853  11.419 -0.4077 -0.5384 -0.3085
21349SOL    HW165488   1.399   7.845  11.514 -0.9259  1.4388 -0.0497
21349SOL    HW265489   1.475   7.831  11.383 -0.6219 -2.9250  0.4599
21350SOL     OW65490   0.072   6.856   4.594 -0.1993  0.7350  0.2784
21350SOL    HW165491  -0.020   6.874   4.579 -0.2350  1.8938  1.6387
21350SOL    HW265492   0.083   6.865   4.689  1.3192  0.6593  0.1407
21351SOL     OW65493   1.928   3.228  12.407  0.2404  0.2949 -0.4513
21351SOL    HW165494   1.921   3.233  12.502 -0.6049  0.8280 -0.5282
21351SOL    HW265495   1.837   3.220  12.377  0.5856 -1.9680 -1.1101
21352SOL     OW65496   6.286   4.694   5.847  0.3893 -0.7540 -0.1457
21352SOL    HW165497   6.250   4.636   5.780  2.3943 -0.7332 -1.3239
21352SOL    HW265498   6.270   4.782   5.814 -1.5769 -0.6010  1.0648
21353SOL     OW65499   7.248   0.717   0.551 -0.1822 -0.6345 -0.3127
21353SOL    HW165500   7.328   0.749   0.593 -0.5568 -0.3992  0.2315
21353SOL    HW265501   7.223   0.640   0.603 -2.4223  1.4574  1.9983
21354SOL     OW65502   2.613   5.852  10.262  0.4143 -1.1673  0.5632
21354SOL    HW165503   2.565   5.925  10.301  0.1214 -1.2098  0.2844
21354SOL    HW265504   2.583   5.776  10.312  0.5555 -1.1274  0.7091
21355SOL     OW65505   7.834   5.523   7.590  0.2860 -0.4004 -0.7059
21355SOL    HW165506   7.829   5.619   7.586  0.7117 -0.4106 -1.5901
21355SOL    HW265507   7.749   5.493   7.556 -0.1377 -0.3387  0.2626
21356SOL     OW65508   4.984   5.607   1.137 -0.1891  0.7029 -0.0248
21356SOL    HW165509   4.909   5.639   1.186 -0.7121 -0.1106 -0.2755
21356SOL    HW265510   4.947   5.566   1.059  0.5362  0.6017 -0.3310
21357SOL     OW65511   6.955   4.234   9.355  0.1767 -0.1016 -0.0633
21357SOL    HW165512   7.031   4.239   9.297 -0.2170 -0.8295 -0.6594
21357SOL    HW265513   6.972   4.159   9.411  0.7727  0.8810  1.1021
21358SOL     OW65514   0.244   6.339   5.465 -0.0136 -0.1090 -0.1861
21358SOL    HW165515   0.291   6.407   5.513  0.9152 -1.0337  0.2314
21358SOL    HW265516   0.243   6.264   5.523 -0.2587 -0.7429 -0.9907
21359SOL     OW65517   0.654   5.894   0.045  0.1256 -0.2177  0.1283
21359SOL    HW165518   0.735   5.858   0.010  1.3499  1.4456  1.1445
21359SOL    HW265519   0.653   5.868   0.137 -0.4466 -0.1251  0.1536
21360SOL     OW65520   7.469   3.810   4.357  0.9421 -0.2188 -0.1327
21360SOL    HW165521   7.459   3.826   4.264 -2.8210 -2.6259 -0.3719
21360SOL    HW265522   7.411   3.873   4.399  0.2817 -1.0850  0.2950
21361SOL     OW65523   4.153   6.072  11.013  0.5945  0.8119  0.0191
21361SOL    HW165524   4.236   6.053  10.972  0.0810 -0.2427 -0.5592
21361SOL    HW265525   4.093   6.005  10.980 -0.9314  2.5603 -0.9619
21362SOL     OW65526   4.712   1.066   8.788 -0.4660  0.2934 -0.0469
21362SOL    HW165527   4.680   1.058   8.698  0.8881  0.3614 -0.5575
21362SOL    HW265528   4.792   1.013   8.790 -0.1322  0.8117  0.9345
21363SOL     OW65529   2.908   0.183   9.288 -0.2457 -0.1502  0.6780
21363SOL    HW165530   2.980   0.123   9.307  0.4367  0.3759 -0.1361
21363SOL    HW265531   2.842   0.129   9.245  1.1425 -0.0391 -1.7931
21364SOL     OW65532   4.555   0.544   9.484 -0.2049  0.4802 -0.1619
21364SOL    HW165533   4.638   0.534   9.532  0.2749  1.0263 -0.8491
21364SOL    HW265534   4.578   0.597   9.407 -1.1562  0.4665 -0.4723
21365SOL     OW65535   6.630   6.551   6.207  0.6001 -0.1067  0.3734
21365SOL    HW165536   6.637   6.599   6.290  2.1150 -1.9830  1.3972
21365SOL    HW265537   6.651   6.617   6.141  0.6199  1.1263  1.5449
21366SOL     OW65538   4.571   1.050   2.850 -0.0049  0.8299 -0.6173
21366SOL    HW165539   4.600   0.973   2.800  2.4714  1.2161  0.0975
21366SOL    HW265540   4.650   1.101   2.864 -1.2640  2.5715  0.5979
21367SOL     OW65541   3.647   5.827   9.671  1.1505 -0.6924  0.2554
21367SOL    HW165542   3.586   5.805   9.600  1.2223 -0.5521  0.1490
21367SOL    HW265543   3.607   5.903   9.714  0.2560 -1.7766  1.4167
21368SOL     OW65544   6.748   3.863   5.670  0.4829 -0.0018 -0.4811
21368SOL    HW165545   6.742   3.775   5.708  1.2004 -0.1191 -0.6267
21368SOL    HW265546   6.772   3.919   5.744  2.2479 -0.2877 -0.8003
21369SOL     OW65547   4.647   1.027  10.882 -0.4843 -0.6111  0.2956
21369SOL    HW165548   4.729   1.070  10.907 -1.5904  0.4037  2.4655
21369SOL    HW265549   4.675   0.945  10.840  1.6182 -0.0502  0.4659
21370SOL     OW65550   2.858   3.228  10.314  0.5959  0.0989 -0.0051
21370SOL    HW165551   2.850   3.223  10.409 -0.7052 -0.2086 -0.1030
21370SOL    HW265552   2.951   3.241  10.297  0.7741  0.6450  1.3256
21371SOL     OW65553   6.576   3.895   9.059 -0.0592  0.4237 -1.3761
21371SOL    HW165554   6.618   3.856   9.136 -3.1298  0.3635  0.4349
21371SOL    HW265555   6.539   3.977   9.091 -0.0285  1.2282 -3.2542
21372SOL     OW65556   5.240   2.987   4.656 -0.3684 -0.3723 -0.4480
21372SOL    HW165557   5.225   3.054   4.589 -0.6866 -0.5167 -0.5250
21372SOL    HW265558   5.219   2.905   4.613 -0.3998 -0.4825 -0.2241
21373SOL     OW65559   2.538   1.823  10.720 -0.2145  0.4278 -0.3555
21373SOL    HW165560   2.473   1.801  10.653  0.5227 -0.4993 -0.7811
21373SOL    HW265561   2.555   1.916  10.705  1.5614 -0.2043 -2.9607
21374SOL     OW65562   3.581   7.836  12.296 -0.5288  0.2883 -0.1990
21374SOL    HW165563   3.585   7.742  12.280  0.5746  0.4007 -0.6688
21374SOL    HW265564   3.598   7.845  12.389 -1.4929 -0.0122  0.0261
21375SOL     OW65565   3.143   6.375   5.122 -0.3512  0.2661  0.5826
21375SOL    HW165566   3.223   6.366   5.174 -1.3701  0.0801  2.2118
21375SOL    HW265567   3.087   6.303   5.152 -1.3672  0.7708 -0.0550
21376SOL     OW65568   2.995   7.392   3.669  0.3917  0.7649 -0.1522
21376SOL    HW165569   3.022   7.342   3.745  3.5113 -1.7393 -2.6110
21376SOL    HW265570   2.901   7.378   3.662  0.7564 -3.0700  0.5936
21377SOL     OW65571   6.342   7.636   5.451 -0.5640 -1.1691  0.2653
21377SOL    HW165572   6.362   7.558   5.399  0.6138 -0.7590  0.0803
21377SOL    HW265573   6.366   7.709   5.395 -1.6800 -0.6457  0.4286
21378SOL     OW65574   5.819   1.047  11.102  0.0063  0.6114 -0.0268
21378SOL    HW165575   5.843   1.102  11.028 -1.0092  2.1300  0.7240
21378SOL    HW265576   5.901   1.007  11.130  0.6209  1.0589 -1.1432
21379SOL     OW65577   2.751   7.368  11.452 -0.3037 -0.3632  0.5820
21379SOL    HW165578   2.733   7.282  11.489 -1.4273  0.1235  1.2172
21379SOL    HW265579   2.810   7.410  11.516 -0.0896 -0.4978  0.4763
21380SOL     OW65580   0.458   3.064   4.983 -0.3706  0.5683 -0.4128
21380SOL    HW165581   0.545   3.097   4.961 -0.0111  0.2755  0.5147
21380SOL    HW265582   0.404   3.084   4.906 -0.3458  3.9308  0.3175
21381SOL     OW65583   4.693   6.939   8.592 -0.0002  0.2042  0.0662
21381SOL    HW165584   4.608   6.903   8.569  0.0286  0.1301  0.0785
21381SOL    HW265585   4.673   7.028   8.623 -0.4178 -0.7741  2.8243
21382SOL     OW65586   2.360   2.333   3.253 -0.2511 -0.2779  0.2928
21382SOL    HW165587   2.359   2.324   3.157  0.0342  1.6185  0.0772
21382SOL    HW265588   2.445   2.297   3.279  0.3432  0.6095 -0.3559
21383SOL     OW65589   2.031   1.304   8.029  0.1568 -0.2753  0.7895
21383SOL    HW165590   2.041   1.395   8.057 -0.8561 -0.1993  0.9405
21383SOL    HW265591   2.082   1.254   8.092 -0.2491  0.0961  1.4253
21384SOL     OW65592   1.783   0.375   8.478 -0.6090  0.1512 -0.0346
21384SOL    HW165593   1.780   0.459   8.431 -0.2724 -0.6096 -1.4721
21384SOL    HW265594   1.774   0.399   8.570 -1.4389  1.6952 -0.4803
21385SOL     OW65595   7.895   4.131   1.378  0.4872  0.3567 -0.1763
21385SOL    HW165596   7.970   4.156   1.325  1.7483 -0.5376  1.1120
21385SOL    HW265597   7.832   4.095   1.315  2.2245 -1.3856 -1.0239
21386SOL     OW65598   2.481   6.468   6.730 -0.0479  0.2290 -0.3401
21386SOL    HW165599   2.422   6.403   6.767 -1.2893 -0.4117 -3.1543
21386SOL    HW265600   2.569   6.435   6.748 -0.5750 -0.5123  1.0501
21387SOL     OW65601   7.115   3.749   4.382 -0.1603  0.3672  0.4222
21387SOL    HW165602   7.136   3.823   4.325 -1.7277  0.2258 -0.3908
21387SOL    HW265603   7.093   3.678   4.321  1.8714 -0.9727  1.1762
21388SOL     OW65604   5.663   0.521   1.826  0.1779  0.7333 -0.0095
21388SOL    HW165605   5.691   0.490   1.740 -0.4723 -1.7520  0.5918
21388SOL    HW265606   5.579   0.563   1.809  0.1625  0.4752 -0.6192
21389SOL     OW65607   7.650   2.837   6.831  0.0474 -0.1489  0.3655
21389SOL    HW165608   7.655   2.747   6.798  0.0468 -0.3628  0.9368
21389SOL    HW265609   7.630   2.890   6.754 -2.5354 -0.9187  0.4029
21390SOL     OW65610   2.087   7.060   2.572 -0.1647 -0.0206  0.1831
21390SOL    HW165611   2.132   7.077   2.489 -0.0481 -0.6232  0.1149
21390SOL    HW265612   2.066   7.147   2.606 -0.9154  0.2269 -0.8625
21391SOL     OW65613   0.043   2.424   2.516 -0.1537 -0.2720 -0.0948
21391SOL    HW165614   0.024   2.427   2.422  0.8195 -0.4038 -0.3031
21391SOL    HW265615   0.007   2.506   2.550 -1.1587 -0.5573 -0.4475
21392SOL     OW65616   3.618   4.207  11.878 -0.2981  0.6131  0.2981
21392SOL    HW165617   3.708   4.184  11.857 -1.3089 -2.2996 -1.5050
21392SOL    HW265618   3.591   4.265  11.807  0.2932  2.1255  1.2502
21393SOL     OW65619   4.196   7.287   2.002 -0.3529 -0.0746 -0.3316
21393SOL    HW165620   4.114   7.300   1.954 -0.3604  0.8401 -0.0789
21393SOL    HW265621   4.172   7.295   2.094  0.2475  1.5862 -0.2995
21394SOL     OW65622   5.395   7.349  12.470 -0.5176  0.3684 -0.3478
21394SOL    HW165623   5.335   7.313  12.405  0.5667 -0.4543 -0.9182
21394SOL    HW265624   5.360   7.320  12.554 -0.7494 -0.3735 -0.6929
21395SOL     OW65625   2.734   3.043   7.432 -0.1265 -0.1515 -0.0305
21395SOL    HW165626   2.806   3.106   7.436  0.6856 -0.8509 -2.3579
21395SOL    HW265627   2.705   3.044   7.341 -1.6273 -1.4884  0.3740
21396SOL     OW65628   5.070   6.225  10.476  0.4707 -0.1270  0.1102
21396SOL    HW165629   5.038   6.314  10.489  0.7493 -0.0916  0.5790
21396SOL    HW265630   5.112   6.227  10.390  1.4985  0.5027  0.6021
21397SOL     OW65631   0.713   2.714   9.142  0.3772 -0.5257  0.7655
21397SOL    HW165632   0.785   2.777   9.148  0.6031 -0.7106  0.0834
21397SOL    HW265633   0.700   2.702   9.048  0.0934 -1.2260  0.8922
21398SOL     OW65634   1.400   5.623   5.521  0.0012 -0.7446 -0.2326
21398SOL    HW165635   1.390   5.531   5.498 -0.3710 -0.8337  0.2749
21398SOL    HW265636   1.316   5.663   5.499 -0.1538 -0.7125  0.4154
21399SOL     OW65637   2.871   2.614   1.949  0.0468  0.6437  0.0755
21399SOL    HW165638   2.836   2.646   1.866  1.1306  1.2202 -0.1828
21399SOL    HW265639   2.807   2.551   1.980  0.6681 -1.3123 -2.3008
21400SOL     OW65640   6.809   5.772   8.539 -0.1980  0.0040  0.3472
21400SOL    HW165641   6.859   5.778   8.457 -0.5165  1.5496  0.2245
21400SOL    HW265642   6.722   5.745   8.511 -0.9763  2.7680 -0.1829
21401SOL     OW65643   2.594   7.742  12.408  0.1748 -0.4333  0.1626
21401SOL    HW165644   2.514   7.698  12.379  0.1995 -0.6914  0.4899
21401SOL    HW265645   2.630   7.780  12.328 -1.0269  0.9202  0.2168
21402SOL     OW65646   4.922   0.762   4.418 -0.0380 -0.1333 -0.3781
21402SOL    HW165647   4.936   0.853   4.392 -0.2751 -0.5020 -1.8928
21402SOL    HW265648   4.826   0.751   4.418  0.0089 -0.6092 -1.0810
21403SOL     OW65649   3.817   0.693   4.057  0.0605  0.2898 -0.0172
21403SOL    HW165650   3.788   0.783   4.074 -1.9574 -0.5361  1.3538
21403SOL    HW265651   3.848   0.661   4.141  1.6600 -0.0499 -0.6998
21404SOL     OW65652   6.900   4.732  12.068  0.4342 -0.4588  0.4215
21404SOL    HW165653   6.988   4.766  12.087 -0.4754  2.4556 -0.0762
21404SOL    HW265654   6.891   4.742  11.973 -0.2283 -1.3403  0.3832
21405SOL     OW65655   7.858   4.277   7.104  0.7467 -0.1564  0.1280
21405SOL    HW165656   7.797   4.236   7.043 -0.4880  1.0505  0.4998
21405SOL    HW265657   7.926   4.314   7.048  0.6849 -0.7502 -0.3556
21406SOL     OW65658   2.135   3.648   0.789  0.1540 -0.5933 -0.8621
21406SOL    HW165659   2.211   3.699   0.816  1.2806 -1.0298 -2.9562
21406SOL    HW265660   2.063   3.711   0.785  0.1495 -0.3250  1.9071
21407SOL     OW65661   3.298   5.109  12.205 -0.0522  0.1046 -0.4525
21407SOL    HW165662   3.355   5.047  12.159 -2.3824 -1.5366 -1.3027
21407SOL    HW265663   3.266   5.167  12.137  0.9260  1.3668  0.1100
21408SOL     OW65664   6.370   3.157   5.576 -0.1436  0.1751 -0.1028
21408SOL    HW165665   6.373   3.066   5.545  1.0273  0.9440 -2.5240
21408SOL    HW265666   6.279   3.184   5.560 -0.5006 -0.5394  0.6402
21409SOL     OW65667   7.794   5.220   5.091  0.2033 -0.2022 -0.3470
21409SOL    HW165668   7.889   5.216   5.082  0.0947 -0.1994 -1.6258
21409SOL    HW265669   7.765   5.277   5.020 -0.8302 -0.9236 -0.5232
21410SOL     OW65670   6.832   7.210   8.271 -0.0190  0.5011  0.2626
21410SOL    HW165671   6.860   7.152   8.342 -1.3744 -2.2506 -1.2509
21410SOL    HW265672   6.912   7.228   8.222  0.5911  0.6977  1.3081
21411SOL     OW65673   4.434   4.575   8.893 -0.2191  0.0117  0.0946
21411SOL    HW165674   4.472   4.662   8.901  0.1448 -0.0344 -0.9709
21411SOL    HW265675   4.339   4.589   8.901 -0.2473  0.6653 -1.0721
21412SOL     OW65676   4.523   0.484   4.020 -0.0757 -0.5022  0.0113
21412SOL    HW165677   4.463   0.498   3.947  0.3072  0.9627 -0.0626
21412SOL    HW265678   4.466   0.480   4.097 -0.2820  1.3403 -0.0028
21413SOL     OW65679   4.584   7.316  12.245  0.5450  0.5432  0.5973
21413SOL    HW165680   4.635   7.261  12.304 -1.2868 -0.3685  1.4156
21413SOL    HW265681   4.502   7.331  12.292 -1.5464 -1.2838 -2.2127
21414SOL     OW65682   5.511   5.554  11.862 -0.0895 -0.3410  0.2627
21414SOL    HW165683   5.423   5.518  11.849  0.3470 -1.0823 -0.7897
21414SOL    HW265684   5.542   5.514  11.944 -0.9858  0.4854  1.0308
21415SOL     OW65685   3.262   7.918   7.547  0.0412 -0.0190  0.6325
21415SOL    HW165686   3.294   7.994   7.499  0.8167  0.0506  1.2431
21415SOL    HW265687   3.323   7.848   7.524 -0.2173 -0.2588  0.6754
21416SOL     OW65688   6.477   4.913  12.330 -0.0796 -0.0245  0.1707
21416SOL    HW165689   6.544   4.846  12.345 -1.5844 -1.7665 -0.5315
21416SOL    HW265690   6.522   4.980  12.278  0.9871 -1.4454 -0.8356
21417SOL     OW65691   2.466   2.955   5.852 -0.5687  0.0403  0.7376
21417SOL    HW165692   2.474   2.862   5.832 -0.2851  0.1363  0.3800
21417SOL    HW265693   2.520   2.998   5.786  0.6918  0.3668  1.9452
21418SOL     OW65694   6.001   6.045   2.496 -0.2641  0.3457  0.5661
21418SOL    HW165695   6.043   5.971   2.540  1.2094  1.8828  1.8555
21418SOL    HW265696   6.013   6.027   2.403  1.0131 -0.5181  0.8760
21419SOL     OW65697   4.950   1.394   1.538 -0.2869  0.0496  0.0519
21419SOL    HW165698   4.906   1.423   1.459  1.6975  0.6517 -0.8893
21419SOL    HW265699   5.043   1.389   1.514 -0.0299 -3.6604  1.1447
21420SOL     OW65700   3.469   7.537   8.075 -0.5121  0.0458  0.1436
21420SOL    HW165701   3.482   7.446   8.048  1.6742 -0.3969  2.3065
21420SOL    HW265702   3.375   7.543   8.092 -0.7709 -1.6930 -0.4163
21421SOL     OW65703   0.435   2.340   4.072  0.1577  0.4364 -0.5685
21421SOL    HW165704   0.444   2.424   4.027  0.9993 -0.1584 -1.5692
21421SOL    HW265705   0.384   2.359   4.151 -1.2245  1.5423 -1.6946
21422SOL     OW65706   1.876   6.719   5.332 -0.2420  0.4552  0.9403
21422SOL    HW165707   1.937   6.645   5.328  1.3996  1.7576 -1.7491
21422SOL    HW265708   1.794   6.685   5.299  0.4877 -0.2160 -0.2508
21423SOL     OW65709   1.655   6.503  11.193 -0.4249  0.3127 -0.3242
21423SOL    HW165710   1.590   6.569  11.220  0.4089  0.9000  0.2990
21423SOL    HW265711   1.622   6.471  11.109 -0.9544  1.4062 -0.5628
21424SOL     OW65712   6.505   0.192   4.699 -0.0010  0.2093  0.0258
21424SOL    HW165713   6.494   0.097   4.688  0.7216  0.0047  1.0003
21424SOL    HW265714   6.526   0.223   4.611 -1.9477 -0.2703 -0.6624
21425SOL     OW65715   0.982   1.916  10.307  0.4711  0.4270 -0.1600
21425SOL    HW165716   1.029   1.847  10.354  1.0180  0.7327 -0.2534
21425SOL    HW265717   0.964   1.983  10.373 -0.4620 -0.0013  0.0319
21426SOL     OW65718   2.241   0.374   5.205  0.0981 -0.2063 -1.1349
21426SOL    HW165719   2.210   0.304   5.148  0.7234 -0.7118 -0.8591
21426SOL    HW265720   2.336   0.366   5.204  0.1540  0.3065 -0.6718
21427SOL     OW65721   7.808   0.242   1.818 -0.0884 -0.1567 -0.4268
21427SOL    HW165722   7.873   0.265   1.884 -0.5275  0.5756 -0.2328
21427SOL    HW265723   7.829   0.300   1.744  0.2867 -0.8421 -0.8673
21428SOL     OW65724   5.653   5.918   5.124  0.1484  0.2673  0.0765
21428SOL    HW165725   5.600   5.852   5.079 -0.2105  1.5431 -1.4567
21428SOL    HW265726   5.606   5.935   5.206 -0.9982  0.2416 -0.5511
21429SOL     OW65727   3.144   5.135   5.467  0.0886  0.4022 -0.7587
21429SOL    HW165728   3.090   5.075   5.417  0.9141 -1.8630  0.8862
21429SOL    HW265729   3.084   5.172   5.533 -0.2718  0.9061 -1.3570
21430SOL     OW65730   4.302   5.420   1.756  0.1310  0.4626 -0.0726
21430SOL    HW165731   4.383   5.436   1.708  1.0577  0.7049  1.5276
21430SOL    HW265732   4.264   5.507   1.769 -1.7535  0.2091 -2.9879
21431SOL     OW65733   3.268   2.864   6.858 -0.2541  0.0775  0.2556
21431SOL    HW165734   3.249   2.936   6.798 -0.1704 -1.2758 -1.4836
21431SOL    HW265735   3.213   2.792   6.827  0.0827 -0.7997  1.5914
21432SOL     OW65736   2.923   5.814   8.843 -0.6811  0.4017  0.4302
21432SOL    HW165737   2.952   5.836   8.932 -0.9375 -1.5570  1.0553
21432SOL    HW265738   2.993   5.761   8.807 -1.5062 -0.6464  0.3057
21433SOL     OW65739   7.227   6.496   1.460 -0.1383 -0.0574 -0.4599
21433SOL    HW165740   7.258   6.565   1.400  0.7589  0.2720  0.3495
21433SOL    HW265741   7.173   6.542   1.523  1.0033  0.0504  0.4795
21434SOL     OW65742   3.800   0.588   2.133 -0.8778 -0.1039  0.4806
21434SOL    HW165743   3.880   0.634   2.106 -0.8839 -0.6208 -0.4355
21434SOL    HW265744   3.831   0.511   2.181 -0.8559  0.3646  1.2366
21435SOL     OW65745   5.629   4.926   0.543  0.2572 -0.4217  0.0379
21435SOL    HW165746   5.575   4.972   0.608  0.2021  1.5656 -1.3240
21435SOL    HW265747   5.569   4.863   0.503 -0.4387  0.1712  0.1235
21436SOL     OW65748   0.929   1.297  12.173  0.4833  0.2814 -0.0741
21436SOL    HW165749   1.017   1.316  12.140  1.0169 -2.8883 -0.8684
21436SOL    HW265750   0.895   1.230  12.113 -0.8940 -1.4135  2.3999
21437SOL     OW65751   3.462   6.980   1.210 -0.1298  0.1752 -0.0487
21437SOL    HW165752   3.522   6.982   1.135  0.0758 -1.2673  0.0394
21437SOL    HW265753   3.401   7.052   1.194 -1.3291 -1.2652 -2.6908
21438SOL     OW65754   6.039   3.837  11.534  0.0370  0.1193 -0.1807
21438SOL    HW165755   6.115   3.886  11.501 -1.2614  1.4735 -1.2817
21438SOL    HW265756   6.016   3.779  11.461 -0.9526  0.8836 -0.4939
21439SOL     OW65757   7.922   2.616   2.823  0.2028  0.1726  0.1295
21439SOL    HW165758   7.863   2.667   2.879 -1.5313 -0.8141 -0.6866
21439SOL    HW265759   7.917   2.658   2.737  1.2994  0.5238  0.2308
21440SOL     OW65760   5.144   7.949   6.492 -0.3191  0.2125  0.1247
21440SOL    HW165761   5.204   8.024   6.494  1.0897 -0.8394 -1.0543
21440SOL    HW265762   5.058   7.987   6.511  0.4048  2.0693 -0.0880
21441SOL     OW65763   4.689   2.413   6.241  0.6153 -0.1415  0.5027
21441SOL    HW165764   4.685   2.498   6.285 -0.1561  0.6398 -1.0026
21441SOL    HW265765   4.652   2.352   6.305 -1.6707  1.1546  0.5193
21442SOL     OW65766   4.443   1.979   8.760  0.5248 -0.5360  0.1336
21442SOL    HW165767   4.378   2.037   8.799  1.8834 -0.3335  2.2613
21442SOL    HW265768   4.473   2.025   8.682 -0.5462  0.1964  0.1338
21443SOL     OW65769   3.103   4.372   0.362 -0.0114  0.3327 -0.0136
21443SOL    HW165770   3.032   4.401   0.420 -0.7110 -1.1461 -0.1098
21443SOL    HW265771   3.129   4.452   0.316 -1.2533  1.0056  0.3952
21444SOL     OW65772   7.087   2.598   2.665 -0.6368  0.0450 -0.0152
21444SOL    HW165773   7.050   2.512   2.685 -2.0184  0.7637  0.6458
21444SOL    HW265774   7.028   2.634   2.599 -0.2130  0.5831 -0.1007
21445SOL     OW65775   0.691   5.790   5.429 -0.0626 -0.2149 -0.3976
21445SOL    HW165776   0.651   5.799   5.515 -0.8982 -0.3451 -0.7683
21445SOL    HW265777   0.652   5.860   5.376 -0.7298 -1.0925 -1.1005
21446SOL     OW65778   4.771   5.647   8.260  0.1773 -0.1958 -0.1494
21446SOL    HW165779   4.864   5.656   8.277  0.0631 -1.9640  1.7926
21446SOL    HW265780   4.766   5.609   8.172  1.0702  2.9587 -1.7124
21447SOL     OW65781   4.054   7.647   3.291 -0.8193  0.2985 -0.5248
21447SOL    HW165782   3.976   7.608   3.251 -0.6656  0.2431 -0.7696
21447SOL    HW265783   4.127   7.594   3.258 -1.0152 -3.2925  3.8383
21448SOL     OW65784   6.804   6.026   5.866  0.7123 -0.1496  0.1598
21448SOL    HW165785   6.790   5.941   5.824  0.5016  0.4327 -0.9889
21448SOL    HW265786   6.885   6.016   5.915  0.6660 -1.0209  0.0782
21449SOL     OW65787   3.989   0.391   4.092  1.3624 -0.0775  0.0715
21449SOL    HW165788   4.032   0.399   4.006  0.8355  0.0038 -0.1884
21449SOL    HW265789   3.902   0.357   4.072  0.6440  1.4978  0.4149
21450SOL     OW65790   7.445   6.378   5.164 -0.3547  0.1051 -0.0761
21450SOL    HW165791   7.456   6.444   5.096  0.1056 -1.6397 -1.7747
21450SOL    HW265792   7.518   6.317   5.150  0.6012  0.4172  2.9087
21451SOL     OW65793   4.484   7.007   0.447  0.8524  0.7924 -0.2368
21451SOL    HW165794   4.568   6.962   0.445  0.3077 -0.3562  0.8977
21451SOL    HW265795   4.465   7.027   0.355  2.4673  1.3429 -0.4882
21452SOL     OW65796   2.185   2.098   5.493 -0.4885 -0.0371 -0.3552
21452SOL    HW165797   2.224   2.034   5.552 -1.8572  1.0195  1.8383
21452SOL    HW265798   2.254   2.163   5.478 -0.4239  0.2402  1.0060
21453SOL     OW65799   2.997   1.097   6.273  0.4444 -0.2727  0.2189
21453SOL    HW165800   3.045   1.025   6.312 -0.4298 -1.5393 -0.9170
21453SOL    HW265801   3.061   1.141   6.216  1.3054  0.6527  1.8306
21454SOL     OW65802   7.243   5.644   0.530 -0.1334 -0.5092 -0.1035
21454SOL    HW165803   7.331   5.618   0.557  0.1263 -0.5835 -0.9898
21454SOL    HW265804   7.240   5.625   0.436 -1.9113 -2.8297  0.3209
21455SOL     OW65805   1.930   5.503   7.824  0.8776  0.3398  0.2960
21455SOL    HW165806   2.003   5.441   7.833  0.9563  0.5438  1.2149
21455SOL    HW265807   1.873   5.465   7.757  1.5389 -0.1079 -0.0210
21456SOL     OW65808   4.424   5.893   6.927 -0.5482 -0.1429  0.0235
21456SOL    HW165809   4.517   5.917   6.929 -0.5127 -0.1807  2.9856
21456SOL    HW265810   4.380   5.963   6.974 -1.9417 -0.4917 -0.7113
21457SOL     OW65811   3.008   4.148   8.293 -0.1500 -0.2908 -0.1552
21457SOL    HW165812   3.079   4.101   8.249 -1.1738 -1.5575 -0.5227
21457SOL    HW265813   2.936   4.146   8.231 -0.8748 -0.0273  0.6586
21458SOL     OW65814   2.004   1.336   2.100  0.0428 -0.4230 -0.1063
21458SOL    HW165815   1.946   1.412   2.091  0.2410 -0.2269  0.2616
21458SOL    HW265816   2.074   1.352   2.038  0.4327  0.0224  0.4397
21459SOL     OW65817   7.232   5.446   8.034 -0.6864  0.1122 -0.6020
21459SOL    HW165818   7.165   5.433   7.967 -0.5847 -0.6223 -0.5681
21459SOL    HW265819   7.246   5.540   8.036 -0.3729  0.1061 -1.9257
21460SOL     OW65820   6.854   2.781   3.727 -0.0878  0.4098 -0.1778
21460SOL    HW165821   6.826   2.724   3.656  3.4666 -1.2310 -0.4653
21460SOL    HW265822   6.790   2.765   3.797 -1.3508 -1.0100 -1.5679
21461SOL     OW65823   6.062   1.948   4.409  0.4940 -0.0383  0.2123
21461SOL    HW165824   6.103   2.032   4.388 -0.5366  0.1267 -1.2565
21461SOL    HW265825   6.130   1.900   4.457  1.3049  1.3872  0.5557
21462SOL     OW65826   4.436   3.242  10.957  0.0179  0.1450  0.4091
21462SOL    HW165827   4.357   3.198  10.989  1.4643 -2.1894  1.0294
21462SOL    HW265828   4.477   3.178  10.899  0.8520  1.7969 -0.9298
21463SOL     OW65829   0.683   7.034   8.363 -0.2474  0.1624  0.6416
21463SOL    HW165830   0.619   6.964   8.378  1.2480 -1.3339  0.3147
21463SOL    HW265831   0.658   7.071   8.278 -1.0197 -0.0122  0.7868
21464SOL     OW65832   5.823   4.192   6.448 -0.0700  0.5058 -0.1304
21464SOL    HW165833   5.808   4.286   6.440 -0.0888  0.4590 -0.6563
21464SOL    HW265834   5.834   4.178   6.542  0.8932  1.1782 -0.1283
21465SOL     OW65835   0.597   2.354   8.988 -0.2649 -0.0053  0.0671
21465SOL    HW165836   0.631   2.380   8.903 -1.0861 -0.4198 -0.4001
21465SOL    HW265837   0.665   2.298   9.025 -0.6351 -1.2513 -1.0703
21466SOL     OW65838   5.761   1.885   9.622  0.4785 -0.3898 -0.2372
21466SOL    HW165839   5.827   1.829   9.662  1.8702  1.6299  0.4272
21466SOL    HW265840   5.678   1.839   9.638  1.4329 -1.6559  1.3334
21467SOL     OW65841   5.993   2.871   3.119 -0.5187 -0.1902  0.3660
21467SOL    HW165842   6.061   2.894   3.182  1.2849  2.0766 -2.2157
21467SOL    HW265843   6.016   2.783   3.090  1.0647  0.3440 -0.0958
21468SOL     OW65844   2.509   6.906   1.626  0.4499 -0.2115 -0.4618
21468SOL    HW165845   2.444   6.871   1.565 -0.1614  0.7834 -0.4082
21468SOL    HW265846   2.475   6.883   1.713  0.9123 -0.9381 -0.4705
21469SOL     OW65847   6.719   2.110   1.674 -0.2925 -0.1998  0.2449
21469SOL    HW165848   6.655   2.041   1.691  0.4238 -0.9540 -0.0580
21469SOL    HW265849   6.667   2.185   1.646 -1.1347 -0.3831  1.2865
21470SOL     OW65850   2.934   1.346   5.066  0.1303  0.2989  0.3945
21470SOL    HW165851   2.883   1.340   4.986 -0.6406  0.2650  0.8845
21470SOL    HW265852   2.923   1.436   5.096  0.5064  0.3441  0.4057
21471SOL     OW65853   1.956   7.183  12.098 -0.2395 -0.5377  0.3213
21471SOL    HW165854   1.981   7.187  12.006 -0.6573  0.0688  0.2239
21471SOL    HW265855   1.862   7.202  12.098 -0.7873 -2.9026  0.6543
21472SOL     OW65856   3.233   3.058   4.100 -0.1418  0.2995 -0.4090
21472SOL    HW165857   3.141   3.084   4.096 -0.1477  0.1122 -2.0086
21472SOL    HW265858   3.282   3.139   4.087 -0.0715  0.3459  0.1107
21473SOL     OW65859   1.339   7.815   4.272 -0.2601  0.3712 -0.9324
21473SOL    HW165860   1.354   7.839   4.364  0.4873  2.6419 -1.5826
21473SOL    HW265861   1.313   7.723   4.276 -0.1416  0.3598  1.5389
21474SOL     OW65862   5.340   1.143   2.414 -0.0231 -0.2473 -0.2140
21474SOL    HW165863   5.384   1.084   2.475 -1.9007 -1.2925  0.2057
21474SOL    HW265864   5.320   1.221   2.468  0.0949 -0.3343 -0.0424
21475SOL     OW65865   5.474   1.334   3.396 -0.4333  0.3495  0.9011
21475SOL    HW165866   5.439   1.420   3.369 -0.8274  0.5325  1.9514
21475SOL    HW265867   5.568   1.341   3.382 -0.7212 -0.2080 -2.1665
21476SOL     OW65868   5.392   4.440   0.661 -0.2663 -0.2929 -0.1803
21476SOL    HW165869   5.337   4.517   0.649 -2.4169 -1.5902  0.8747
21476SOL    HW265870   5.478   4.467   0.627 -1.3043  2.0563 -1.1732
21477SOL     OW65871   2.238   3.060   6.405  0.1438 -0.1806 -1.2740
21477SOL    HW165872   2.245   3.135   6.345  0.7140 -0.5310 -1.6520
21477SOL    HW265873   2.145   3.054   6.425  0.1076  0.7090 -1.1403
21478SOL     OW65874   3.194   5.114   7.983 -0.0170  0.0824  0.5258
21478SOL    HW165875   3.277   5.131   8.028 -1.1657 -1.0760  3.2800
21478SOL    HW265876   3.127   5.121   8.051 -2.4297  2.2979 -1.8310
21479SOL     OW65877   0.281   0.816   4.989 -0.0412 -0.0102 -0.1867
21479SOL    HW165878   0.217   0.796   4.921  1.7063  0.0874 -1.9345
21479SOL    HW265879   0.353   0.859   4.943  1.2494  0.0004  1.7181
21480SOL     OW65880   6.206   2.585   9.234 -0.2133 -0.2207  0.4772
21480SOL    HW165881   6.201   2.492   9.255 -1.4858 -0.0323  1.0769
21480SOL    HW265882   6.165   2.629   9.308  0.8449  0.8663  0.4418
21481SOL     OW65883   4.389   5.837   8.076  0.0760 -0.5024  0.4091
21481SOL    HW165884   4.355   5.909   8.024  2.2938  0.8643  0.6980
21481SOL    HW265885   4.426   5.776   8.012  2.7746  1.1619  0.2018
21482SOL     OW65886   2.682   0.393   8.732 -0.2343  0.4803 -0.4762
21482SOL    HW165887   2.666   0.437   8.649 -1.3751 -1.2169 -1.1891
21482SOL    HW265888   2.718   0.308   8.709 -1.1122 -0.2540  0.7315
21483SOL     OW65889   4.031   3.475   0.991 -0.0972 -0.2543 -0.4819
21483SOL    HW165890   3.938   3.497   0.998 -0.0542 -0.1902 -0.1137
21483SOL    HW265891   4.033   3.396   0.938 -0.3222  0.0763 -1.0030
21484SOL     OW65892   4.739   5.156   9.194 -0.3582  0.1557  0.0518
21484SOL    HW165893   4.730   5.094   9.121 -0.6430  0.7259 -0.4044
21484SOL    HW265894   4.665   5.138   9.251 -0.1782 -0.2393  0.1654
21485SOL     OW65895   5.033   2.700   9.115 -0.2040 -0.0041  0.2288
21485SOL    HW165896   4.944   2.711   9.149  0.2143  0.3763  1.2588
21485SOL    HW265897   5.032   2.615   9.071 -0.7911 -0.4978  1.1681
21486SOL     OW65898   5.222   4.322   5.740 -0.4211 -0.1072  0.2465
21486SOL    HW165899   5.235   4.310   5.646  0.3084  0.5533  0.2539
21486SOL    HW265900   5.138   4.279   5.758 -0.9388  0.4060 -0.8456
21487SOL     OW65901   6.339   3.033  12.125  0.2082 -0.1997 -0.4667
21487SOL    HW165902   6.342   3.091  12.202  1.2233  0.0544 -0.6784
21487SOL    HW265903   6.420   2.981  12.132 -0.4279 -1.2205 -0.5709
21488SOL     OW65904   2.507   2.519   8.057 -0.4318  0.0300  0.3551
21488SOL    HW165905   2.537   2.463   8.128 -1.3584  0.3215  0.9883
21488SOL    HW265906   2.415   2.537   8.076  0.3077  3.5168  1.4021
21489SOL     OW65907   4.533   2.454   5.581  0.1480 -0.3194 -0.8297
21489SOL    HW165908   4.512   2.523   5.644  2.5511  0.2846 -0.5676
21489SOL    HW265909   4.506   2.490   5.496 -2.0272 -0.6556 -0.3373
21490SOL     OW65910   2.180   0.356   7.704 -0.3203  0.2551  0.2681
21490SOL    HW165911   2.223   0.330   7.622 -0.3258  0.3481  0.2353
21490SOL    HW265912   2.220   0.300   7.770  0.2397  0.7091  0.3200
21491SOL     OW65913   5.020   6.420   4.524 -0.7881 -0.9368 -0.1457
21491SOL    HW165914   4.975   6.500   4.497 -0.3408 -0.4298  0.5764
21491SOL    HW265915   4.991   6.405   4.613  0.7587 -0.3530  0.5002
21492SOL     OW65916   4.210   4.795   8.227 -0.0985  0.2455  0.2106
21492SOL    HW165917   4.247   4.854   8.293  0.7459  0.3517 -0.3393
21492SOL    HW265918   4.165   4.852   8.166 -1.2171  0.1157  0.8810
21493SOL     OW65919   1.327   1.813   9.322  0.2811  0.5329  0.1987
21493SOL    HW165920   1.416   1.834   9.350  1.2944  0.2613 -2.4750
21493SOL    HW265921   1.326   1.835   9.228 -2.5488  0.7360  0.1882
21494SOL     OW65922   6.551   5.091   6.914  0.5719  0.1068 -0.5918
21494SOL    HW165923   6.570   5.183   6.932  1.6621 -0.4891  1.5372
21494SOL    HW265924   6.534   5.089   6.819  0.7441  2.4317 -0.7358
21495SOL     OW65925   1.255   0.775  12.085 -0.1210  0.8537  0.2022
21495SOL    HW165926   1.327   0.765  12.147  1.0532  1.4251 -1.0112
21495SOL    HW265927   1.177   0.785  12.139  0.3792 -1.8226  1.5634
21496SOL     OW65928   2.115   5.504   0.945 -0.2437  0.5719 -0.5473
21496SOL    HW165929   2.194   5.454   0.965 -0.2345  0.7267 -0.1854
21496SOL    HW265930   2.147   5.581   0.898 -0.0787  1.0767  0.3605
21497SOL     OW65931   3.585   4.562   1.848 -0.3574 -0.1460 -0.2317
21497SOL    HW165932   3.523   4.492   1.827 -0.4817 -0.2445  0.4467
21497SOL    HW265933   3.537   4.643   1.831 -0.2439 -0.2260 -0.9339
21498SOL     OW65934   5.241   6.633   7.838  0.0140 -0.4331 -0.0084
21498SOL    HW165935   5.287   6.551   7.821 -0.6293 -0.9411  0.6164
21498SOL    HW265936   5.226   6.671   7.751  0.8558 -0.6631 -0.2660
21499SOL     OW65937   6.879   4.272   3.121 -0.2452 -0.1859  0.5375
21499SOL    HW165938   6.925   4.330   3.060  0.5527 -0.6135  0.7202
21499SOL    HW265939   6.878   4.321   3.203 -1.6077  0.5298  0.1272
21500SOL     OW65940   3.627   1.492   5.000 -0.4011  0.1765  0.1459
21500SOL    HW165941   3.708   1.465   5.042  0.2844  0.7195 -0.7860
21500SOL    HW265942   3.618   1.585   5.022 -1.2103 -0.0659  0.9120
21501SOL     OW65943   2.874   6.360   4.821  0.1329  0.4478 -0.6720
21501SOL    HW165944   2.886   6.268   4.795 -2.1540 -0.2647  0.5026
21501SOL    HW265945   2.959   6.385   4.858 -0.0319 -2.2741  1.9641
21502SOL     OW65946   3.888   1.580   7.322 -0.2075  0.0617  0.3882
21502SOL    HW165947   3.911   1.554   7.233 -1.9974 -1.5043  0.3099
21502SOL    HW265948   3.925   1.668   7.332  0.3383  0.1351 -1.7580
21503SOL     OW65949   7.001   7.895  11.781 -0.4998 -0.1094  0.0499
21503SOL    HW165950   7.009   7.819  11.723 -0.7773  0.9817 -1.5032
21503SOL    HW265951   6.923   7.877  11.834  1.1760 -2.2878  1.9811
21504SOL     OW65952   5.772   4.490   1.566  0.5888 -0.2342 -0.3189
21504SOL    HW165953   5.867   4.475   1.575  0.5904  0.2808  0.6994
21504SOL    HW265954   5.765   4.579   1.531  0.4880  0.9831  2.5155
21505SOL     OW65955   5.839   4.057  10.743  0.4440 -0.2122  0.4127
21505SOL    HW165956   5.885   4.126  10.790  2.1476 -0.8949 -0.1488
21505SOL    HW265957   5.796   4.006  10.812  0.6013  0.3990  0.9767
21506SOL     OW65958   2.455   1.294   1.861 -0.1220 -0.1553  0.7879
21506SOL    HW165959   2.518   1.279   1.931  1.1144  1.2756  0.0418
21506SOL    HW265960   2.383   1.341   1.903 -0.0214 -0.4857  1.3429
21507SOL     OW65961   1.555   5.149   7.444  0.0676 -0.1418  0.1653
21507SOL    HW165962   1.497   5.141   7.368 -1.4896 -2.3207  1.4726
21507SOL    HW265963   1.623   5.082   7.430  1.0703  0.9443 -0.3206
21508SOL     OW65964   0.986   5.194  12.397  0.2788 -0.2482 -0.3186
21508SOL    HW165965   0.957   5.278  12.362  2.2683  0.6302  0.0005
21508SOL    HW265966   0.908   5.138  12.393 -0.6642  1.0895 -2.0863
21509SOL     OW65967   6.452   3.034   0.098  0.4216  0.8761 -0.5694
21509SOL    HW165968   6.367   3.030   0.055 -0.7564  1.7037  1.5051
21509SOL    HW265969   6.475   2.943   0.113 -1.0575  0.6322  0.4990
21510SOL     OW65970   1.596   0.229   8.207  1.1972 -0.1793 -0.6622
21510SOL    HW165971   1.531   0.276   8.260 -0.5534 -0.2344 -2.6459
21510SOL    HW265972   1.680   0.256   8.244  0.1440  1.7122  0.5458
21511SOL     OW65973   0.288   7.602   6.838  0.0004 -0.2015  0.8221
21511SOL    HW165974   0.199   7.565   6.841  0.1667 -0.6449  0.3486
21511SOL    HW265975   0.278   7.683   6.788  0.0800 -0.8861 -0.3258
21512SOL     OW65976   2.099   0.022   2.648 -0.4995 -0.2930  0.2690
21512SOL    HW165977   2.088  -0.062   2.691 -1.0564 -0.2155  0.2872
21512SOL    HW265978   2.046   0.016   2.569  0.7951 -0.5634 -0.6079
21513SOL     OW65979   2.168   6.810   2.423 -0.2412 -0.4360 -0.4051
21513SOL    HW165980   2.114   6.882   2.454  0.2794 -0.8929  1.7335
21513SOL    HW265981   2.111   6.733   2.427  0.3269 -0.8196  1.3216
21514SOL     OW65982   6.735   2.102   6.517 -0.7787 -0.0477  0.0313
21514SOL    HW165983   6.792   2.122   6.592 -3.0130 -0.2513  1.9210
21514SOL    HW265984   6.759   2.012   6.493  0.4763  0.2737 -0.0034
21515SOL     OW65985   3.100   7.469  10.465 -0.1208  0.4780  0.2030
21515SOL    HW165986   3.175   7.415  10.489 -0.7327 -0.3080  0.3842
21515SOL    HW265987   3.024   7.422  10.499 -0.6953  1.3249  0.1443
21516SOL     OW65988   1.417   7.816   7.012 -0.2771  0.2589 -0.1102
21516SOL    HW165989   1.409   7.907   7.039  0.7685  0.0086  1.1464
21516SOL    HW265990   1.334   7.797   6.968 -1.3410  1.2428  1.3743
21517SOL     OW65991   6.164   0.624   9.848  0.3197  0.1248  0.2221
21517SOL    HW165992   6.210   0.547   9.814 -0.3737 -0.2320  0.0512
21517SOL    HW265993   6.189   0.628   9.940 -3.5385 -3.4736  1.7547
21518SOL     OW65994   3.328   0.582   1.695 -0.3809 -0.2133 -0.2255
21518SOL    HW165995   3.335   0.503   1.748  0.5415  0.8138  1.2885
21518SOL    HW265996   3.418   0.604   1.672 -0.8038 -0.9401 -2.7805
21519SOL     OW65997   3.094   0.623  11.654 -0.1227 -0.2114 -0.5762
21519SOL    HW165998   3.004   0.651  11.638 -0.2581 -0.8770 -1.0120
21519SOL    HW265999   3.127   0.686  11.719 -0.9614 -0.0774 -0.2612
21520SOL     OW66000   3.518   0.450  10.552 -0.4563 -0.3854  0.2685
21520SOL    HW166001   3.588   0.471  10.491  0.2476  0.0222  1.1860
21520SOL    HW266002   3.518   0.354  10.557  1.1190 -0.3630  1.4367
21521SOL     OW66003   1.256   0.737  10.434 -0.2136 -0.4085 -0.2249
21521SOL    HW166004   1.294   0.665  10.484 -0.9280 -0.8238 -0.2772
21521SOL    HW266005   1.292   0.816  10.476 -0.2815 -0.7632  0.5260
21522SOL     OW66006   5.422   1.531   5.670 -0.4296  0.0394  0.1810
21522SOL    HW166007   5.395   1.516   5.580 -2.1122 -0.1271  0.6680
21522SOL    HW266008   5.424   1.627   5.679 -1.4088  0.0651  0.2568
21523SOL     OW66009   1.597   7.831   8.616 -0.1161 -0.1356  0.0017
21523SOL    HW166010   1.515   7.785   8.597 -0.8278  0.3725  1.6393
21523SOL    HW266011   1.581   7.921   8.588 -0.4363  0.1480  1.0472
21524SOL     OW66012   4.587   7.621   6.663  0.1098 -0.4927 -0.3719
21524SOL    HW166013   4.663   7.679   6.672  0.0671 -0.6545  1.1933
21524SOL    HW266014   4.517   7.666   6.711 -0.2263 -1.3198 -0.0813
21525SOL     OW66015   4.898   3.930   6.992 -0.0366 -0.0753  0.3397
21525SOL    HW166016   4.930   3.868   6.926  1.4478  0.4913  0.4747
21525SOL    HW266017   4.900   4.015   6.948  0.7349  0.2732  1.0038
21526SOL     OW66018   3.158   1.877   2.528  0.1877  0.3303  0.1683
21526SOL    HW166019   3.245   1.838   2.532  0.5781  1.1684  0.1986
21526SOL    HW266020   3.144   1.893   2.435  0.1809  0.4324  0.1865
21527SOL     OW66021   5.756   3.483   3.239 -0.2427 -0.5388  0.3267
21527SOL    HW166022   5.787   3.462   3.151 -2.3665 -2.1820 -0.1308
21527SOL    HW266023   5.794   3.415   3.295 -0.6288 -0.8219  0.2575
21528SOL     OW66024   5.301   6.018   3.887 -0.2566  0.0420 -0.0978
21528SOL    HW166025   5.221   6.068   3.903  0.7118  1.4572  0.5554
21528SOL    HW266026   5.355   6.034   3.964  1.8614  1.6157 -1.7671
21529SOL     OW66027   0.279   7.585   0.172 -0.2514 -0.1229  0.1891
21529SOL    HW166028   0.299   7.503   0.216 -1.1010 -0.0278  0.7852
21529SOL    HW266029   0.270   7.649   0.243 -0.3501  0.3210 -0.2152
21530SOL     OW66030   5.401   6.863   9.580  0.0725 -0.4002 -0.4712
21530SOL    HW166031   5.465   6.934   9.587  0.3605 -0.7552  0.9879
21530SOL    HW266032   5.349   6.870   9.660 -1.2246 -0.5914 -1.2840
21531SOL     OW66033   2.359   7.171   4.286 -0.3359  0.2018  0.3214
21531SOL    HW166034   2.381   7.129   4.369 -0.7973  0.5107  0.6030
21531SOL    HW266035   2.293   7.114   4.247  0.7071 -0.5629 -0.3822
21532SOL     OW66036   2.880   3.053   5.793 -0.3374  0.2230 -0.3466
21532SOL    HW166037   2.964   3.085   5.762 -1.2994  0.9638 -2.3653
21532SOL    HW266038   2.893   2.960   5.808  1.2572  0.6213  1.0411
21533SOL     OW66039   6.489   5.901   2.516 -0.0763  0.5128  0.1898
21533SOL    HW166040   6.439   5.910   2.435  0.0091  0.4509  0.1300
21533SOL    HW266041   6.440   5.837   2.567 -1.2013  1.9480  1.0072
21534SOL     OW66042   3.620   5.518   8.588  0.0667 -0.1994 -0.4435
21534SOL    HW166043   3.528   5.497   8.572 -0.0473 -1.3295  1.3760
21534SOL    HW266044   3.617   5.592   8.649  0.3330 -0.5615  0.0179
21535SOL     OW66045   4.612   0.217   8.358 -0.7054 -0.5071  0.1295
21535SOL    HW166046   4.696   0.263   8.353 -1.0935  0.0813 -1.7917
21535SOL    HW266047   4.601   0.196   8.451  0.4107  1.5388  0.7800
21536SOL     OW66048   4.103   0.568   0.439 -0.6919  0.0289 -0.4058
21536SOL    HW166049   4.141   0.601   0.357 -0.5170  2.9968  0.7577
21536SOL    HW266050   4.176   0.563   0.500 -1.2372  0.3820  0.2917
21537SOL     OW66051   0.713   4.651   7.786  0.4033 -0.2799 -0.2854
21537SOL    HW166052   0.789   4.692   7.744  1.2646 -1.7978 -0.2748
21537SOL    HW266053   0.717   4.559   7.759 -0.2658 -0.8247  1.3425
21538SOL     OW66054   4.167   3.979   5.884  0.3088  0.0120  0.4681
21538SOL    HW166055   4.203   4.029   5.957  0.5246  0.6354 -0.0626
21538SOL    HW266056   4.199   4.023   5.806 -2.0585  0.9586 -0.0379
21539SOL     OW66057   4.406   4.216  12.141  0.1869 -0.6363 -0.4853
21539SOL    HW166058   4.401   4.240  12.234  0.5232  0.5662 -0.7567
21539SOL    HW266059   4.465   4.141  12.139  0.7675 -0.2184  0.2166
21540SOL     OW66060   7.655   0.728   5.070  0.9555 -0.1856  0.1588
21540SOL    HW166061   7.640   0.689   5.156  1.6770  0.4709  0.5906
21540SOL    HW266062   7.576   0.706   5.020  0.7509 -1.0076  0.8202
21541SOL     OW66063   1.034   0.846   1.238  0.1526 -0.0835  0.3046
21541SOL    HW166064   1.005   0.932   1.268 -0.1015  0.2055 -0.7224
21541SOL    HW266065   1.129   0.852   1.234  0.0982  0.4022 -0.4556
21542SOL     OW66066   7.953   6.557   5.576  0.0814 -0.2928 -0.1521
21542SOL    HW166067   7.935   6.463   5.574  0.8461 -0.5472  2.1258
21542SOL    HW266068   7.867   6.598   5.569 -0.4232 -1.2161  0.3802
21543SOL     OW66069   1.872   7.012  11.814  0.4446 -0.0031  0.2470
21543SOL    HW166070   1.820   7.017  11.733 -0.1644 -1.0216  0.5486
21543SOL    HW266071   1.932   6.939  11.799 -0.2539 -0.7629  1.0163
21544SOL     OW66072   2.095   0.914   3.000  0.2888 -0.3900  0.5651
21544SOL    HW166073   2.039   0.853   3.048 -0.2360  0.7474  1.4347
21544SOL    HW266074   2.123   0.978   3.065 -2.0194  2.3765 -0.8770
21545SOL     OW66075   3.297   0.905   2.553 -0.6543 -0.2996 -0.0753
21545SOL    HW166076   3.355   0.952   2.493 -0.7492  0.8215  0.6632
21545SOL    HW266077   3.269   0.972   2.616 -2.3483 -0.9232 -0.1077
21546SOL     OW66078   5.132   7.372   3.969  0.1931 -0.6527 -0.6967
21546SOL    HW166079   5.056   7.416   3.931  0.2250 -1.3288 -1.5660
21546SOL    HW266080   5.111   7.362   4.061  0.4666  1.8096 -0.2945
21547SOL     OW66081   0.973   4.668   0.912 -0.5464  0.9516  0.4619
21547SOL    HW166082   0.909   4.736   0.888 -0.2440  1.2512  0.4987
21547SOL    HW266083   0.989   4.682   1.006  0.6307  1.7839  0.1613
21548SOL     OW66084   7.313   5.983   9.943 -0.0659  0.0381  0.4648
21548SOL    HW166085   7.226   5.983   9.905 -0.6197 -3.1271  1.4562
21548SOL    HW266086   7.309   6.047  10.015 -1.3074  0.4747  0.0178
21549SOL     OW66087   7.121   5.058   8.010 -0.3392  0.1926 -0.6237
21549SOL    HW166088   7.191   5.072   7.947  0.1045  0.2238 -0.1293
21549SOL    HW266089   7.069   4.987   7.973  0.5257 -0.5082 -0.5181
21550SOL     OW66090   3.530   1.084   8.601 -0.6422  0.1259 -0.4519
21550SOL    HW166091   3.588   1.020   8.558  1.2642  0.0186  2.1027
21550SOL    HW266092   3.443   1.044   8.594  0.0356 -1.2691 -1.5923
21551SOL     OW66093   3.651   5.420   1.820 -0.1252 -0.4025 -0.0443
21551SOL    HW166094   3.737   5.386   1.794  0.1574 -0.5823  1.0601
21551SOL    HW266095   3.605   5.343   1.855 -0.9628 -0.4232 -1.1430
21552SOL     OW66096   5.920   6.837   7.079  0.3272  0.3139 -0.9363
21552SOL    HW166097   5.833   6.867   7.106  0.8977 -0.2477  1.9040
21552SOL    HW266098   5.980   6.900   7.118  1.3015 -1.4942  0.6847
21553SOL     OW66099   3.332   1.448   2.496 -0.1767  0.2655 -0.1438
21553SOL    HW166100   3.307   1.380   2.559 -0.1260  0.6627  0.3151
21553SOL    HW266101   3.261   1.447   2.432 -1.4492  1.3902  1.1561
21554SOL     OW66102   1.730   0.315  10.772 -0.0835  0.2197 -0.4889
21554SOL    HW166103   1.804   0.341  10.717  0.8281 -0.1776  0.5092
21554SOL    HW266104   1.709   0.394  10.822  2.3189 -0.6242  2.1314
21555SOL     OW66105   2.681   6.474   3.773  0.1486  0.4179 -0.4673
21555SOL    HW166106   2.774   6.492   3.789  0.5621 -0.8363 -1.2600
21555SOL    HW266107   2.666   6.389   3.815  0.0119 -0.5561 -2.3678
21556SOL     OW66108   1.529   1.448   6.497  0.0776  0.0612  0.3126
21556SOL    HW166109   1.600   1.452   6.434 -1.0656  0.8361 -0.9710
21556SOL    HW266110   1.478   1.371   6.470  0.9252 -1.0977  1.8310
21557SOL     OW66111   5.027   3.712   4.826  0.4864 -0.0504  0.5554
21557SOL    HW166112   5.028   3.670   4.912  0.6494  0.0850  0.6202
21557SOL    HW266113   5.105   3.678   4.782  0.9739  0.6664  0.8429
21558SOL     OW66114   0.955   6.778   4.305  0.2561  0.1269  1.0505
21558SOL    HW166115   1.048   6.793   4.287  0.2320  0.6191  1.3017
21558SOL    HW266116   0.912   6.794   4.221  0.4275 -0.3948  0.8620
21559SOL     OW66117   6.978   1.551   2.897  1.0038 -0.4415  0.3212
21559SOL    HW166118   6.912   1.527   2.962  0.1373 -1.3571 -0.8338
21559SOL    HW266119   7.061   1.550   2.945  0.3538 -0.7835  1.4696
21560SOL     OW66120   3.043   7.675   7.341 -0.2191  0.3488  0.5353
21560SOL    HW166121   3.036   7.605   7.405 -0.9470  0.7557  0.9181
21560SOL    HW266122   2.954   7.687   7.308  0.4013 -1.1110 -1.9670
21561SOL     OW66123   5.737   0.219   1.785 -0.3418 -0.2536  0.0116
21561SOL    HW166124   5.719   0.126   1.802 -0.5264 -0.0642  0.8753
21561SOL    HW266125   5.650   0.260   1.783 -0.3799 -0.3388 -1.9460
21562SOL     OW66126   0.236   4.871   1.574 -0.3988  0.5380 -0.0032
21562SOL    HW166127   0.296   4.807   1.612  0.4376  0.0201 -2.0624
21562SOL    HW266128   0.174   4.818   1.523  0.8533  1.3275 -2.4991
21563SOL     OW66129   4.453   2.389   7.340  0.3743  0.6853  0.3288
21563SOL    HW166130   4.406   2.311   7.308  1.2230 -0.6434  2.1616
21563SOL    HW266131   4.383   2.449   7.368 -0.2762  0.0864  0.0363
21564SOL     OW66132   6.821   0.863   3.049 -0.6427 -0.1554  0.0595
21564SOL    HW166133   6.887   0.898   2.990 -0.1056 -1.1361  0.0702
21564SOL    HW266134   6.857   0.780   3.080 -1.4113 -0.1963  0.8890
21565SOL     OW66135   5.043   6.891   3.768  0.8102 -0.3841 -0.3136
21565SOL    HW166136   4.979   6.822   3.749  1.4920 -0.9653 -0.5650
21565SOL    HW266137   4.993   6.958   3.814  0.5357 -1.9987  1.9387
21566SOL     OW66138   3.307   3.420   4.668  0.2432 -0.0065  0.1536
21566SOL    HW166139   3.222   3.452   4.638  0.4874  2.0723  1.4635
21566SOL    HW266140   3.369   3.450   4.603  0.1433 -0.2069 -0.0337
21567SOL     OW66141   0.365   5.564   3.458  0.0546 -0.2462 -0.1162
21567SOL    HW166142   0.305   5.625   3.500  0.6988 -0.5762  1.3424
21567SOL    HW266143   0.449   5.610   3.456  0.0868 -0.3232 -0.8538
21568SOL     OW66144   1.384   6.015  10.673  0.4119 -0.0451  0.2730
21568SOL    HW166145   1.402   5.958  10.598 -0.0200  0.0589  0.0872
21568SOL    HW266146   1.454   6.080  10.671  0.6934 -0.3439  0.2646
21569SOL     OW66147   5.541   5.504   8.896  0.3883 -0.3556  0.0125
21569SOL    HW166148   5.460   5.457   8.917 -0.3065  0.5427 -0.5628
21569SOL    HW266149   5.583   5.451   8.828 -0.6284  0.0637 -0.9859
21570SOL     OW66150   6.568   0.842   3.491  0.1851  0.4776  0.1422
21570SOL    HW166151   6.618   0.922   3.478  1.1655 -0.3398 -1.5361
21570SOL    HW266152   6.608   0.779   3.431 -1.5166 -0.8391  0.3056
21571SOL     OW66153   5.130   2.054   9.328  0.4403  0.1237 -0.1871
21571SOL    HW166154   5.180   2.134   9.313 -0.7441  0.6067 -1.8254
21571SOL    HW266155   5.049   2.066   9.278  0.0022 -1.8884 -0.0626
21572SOL     OW66156   4.208   2.676   5.056  0.5126  0.5017 -0.2371
21572SOL    HW166157   4.167   2.743   5.002 -0.4203 -0.0754 -0.2793
21572SOL    HW266158   4.163   2.681   5.140  0.0490 -0.4085 -0.4132
21573SOL     OW66159   0.337   6.459   2.940 -0.4851 -0.1144 -0.0454
21573SOL    HW166160   0.360   6.397   2.871 -1.1344 -1.4431  0.8851
21573SOL    HW266161   0.246   6.440   2.960  0.2896 -1.4577  2.7920
21574SOL     OW66162   4.925   4.239   4.697  0.0067  0.0622  0.1121
21574SOL    HW166163   4.857   4.177   4.673  1.3185 -0.2850 -3.2497
21574SOL    HW266164   4.886   4.325   4.679 -0.0773 -0.0704 -0.3634
21575SOL     OW66165   5.981   6.624   8.403  0.6424 -0.2033  0.0128
21575SOL    HW166166   5.916   6.579   8.349 -0.8431  1.7503  0.0882
21575SOL    HW266167   6.063   6.615   8.354 -0.0164 -1.2059 -0.9516
21576SOL     OW66168   3.044   0.917   0.405 -0.7900 -0.2948 -0.4061
21576SOL    HW166169   2.961   0.905   0.358 -0.8225  0.5351 -0.5740
21576SOL    HW266170   3.110   0.883   0.344 -0.9966 -0.9359 -0.2826
21577SOL     OW66171   2.784   3.913   5.405 -0.1669  0.3592  0.6109
21577SOL    HW166172   2.851   3.967   5.362  1.0109 -0.3787  1.4458
21577SOL    HW266173   2.831   3.870   5.476 -1.2426 -1.1755  0.4397
21578SOL     OW66174   5.290   3.899   1.120 -0.9759  0.3781 -0.5817
21578SOL    HW166175   5.236   3.909   1.198  0.7803  0.5740  0.6719
21578SOL    HW266176   5.343   3.821   1.138 -1.1072 -0.0604 -1.9620
21579SOL     OW66177   2.200   7.127   6.079  0.6599  0.6571 -0.0600
21579SOL    HW166178   2.150   7.081   6.013  1.1350  0.7909 -0.5260
21579SOL    HW266179   2.283   7.079   6.085  0.3271  0.1994  0.9858
21580SOL     OW66180   0.942   3.837   2.662  0.3680  0.0069 -0.1808
21580SOL    HW166181   0.915   3.763   2.718  1.9308 -0.9673 -0.6560
21580SOL    HW266182   0.891   3.826   2.582 -0.2995  0.1604  0.2168
21581SOL     OW66183   7.135   2.246   1.922  0.3778 -0.1645  0.4965
21581SOL    HW166184   7.207   2.306   1.938 -0.7130  1.0622  1.0077
21581SOL    HW266185   7.108   2.217   2.009 -0.3571  0.1699  0.3929
21582SOL     OW66186   3.185   4.259   5.529  0.0302 -0.4109  0.2664
21582SOL    HW166187   3.205   4.299   5.444  1.5858 -2.3461 -0.3575
21582SOL    HW266188   3.133   4.325   5.575  1.2692  1.7114 -1.2012
21583SOL     OW66189   3.962   5.311   1.770 -0.2122 -0.1479 -0.1433
21583SOL    HW166190   3.991   5.227   1.735  2.0272  1.4875 -2.6255
21583SOL    HW266191   3.981   5.374   1.700 -1.3609  2.5008  1.7636
21584SOL     OW66192   1.516   2.156   6.487 -0.1299 -0.3433  0.0868
21584SOL    HW166193   1.609   2.177   6.488  0.1550 -1.4499  1.4111
21584SOL    HW266194   1.501   2.113   6.403  0.4150  0.3662 -0.3809
21585SOL     OW66195   6.527   5.548   0.049 -0.4046 -0.1550  0.1389
21585SOL    HW166196   6.524   5.508  -0.038  0.0303 -0.4193  0.2442
21585SOL    HW266197   6.435   5.568   0.069 -0.3216  1.9104 -1.2934
21586SOL     OW66198   6.426   2.908   2.903 -0.2784 -0.1235  0.3800
21586SOL    HW166199   6.381   2.979   2.857 -0.6219 -0.1712  0.6492
21586SOL    HW266200   6.519   2.933   2.898 -0.5046  1.1098  1.7818
21587SOL     OW66201   5.548   7.608   4.636  0.0769 -0.6736 -0.3923
21587SOL    HW166202   5.566   7.543   4.704  3.2649 -0.9135 -1.3054
21587SOL    HW266203   5.516   7.557   4.562  0.3458 -0.9236 -0.3381
21588SOL     OW66204   3.192   5.764   8.802  0.0392 -0.2762 -0.0926
21588SOL    HW166205   3.229   5.821   8.734 -3.2206  1.5650 -0.5339
21588SOL    HW266206   3.203   5.676   8.768 -1.4643  0.5774 -3.0962
21589SOL     OW66207   5.846   6.879   1.213  0.1577 -0.3150  0.6959
21589SOL    HW166208   5.756   6.906   1.196 -0.0840 -0.2733  1.9494
21589SOL    HW266209   5.872   6.830   1.135 -0.8472 -0.0617  0.1964
21590SOL     OW66210   3.323   0.301   2.912  0.1647  0.2926 -0.1477
21590SOL    HW166211   3.323   0.235   2.843  0.3664 -0.3520  0.4575
21590SOL    HW266212   3.275   0.375   2.875 -2.3284 -1.1336  0.0235
21591SOL     OW66213   2.448   6.155   3.745 -0.0658 -0.0917 -0.0684
21591SOL    HW166214   2.458   6.073   3.696  0.0627  0.5027 -1.0668
21591SOL    HW266215   2.534   6.171   3.782 -0.1648 -0.5535  0.3687
21592SOL     OW66216   1.691   7.264   6.754  0.2026  0.4783 -0.0854
21592SOL    HW166217   1.735   7.271   6.670  0.7443 -1.4872 -0.0247
21592SOL    HW266218   1.600   7.289   6.736 -0.1269 -1.5617 -1.7154
21593SOL     OW66219   2.886   7.155   3.166 -0.1216  1.0757  0.5827
21593SOL    HW166220   2.828   7.228   3.142  1.0508  1.4946 -1.1520
21593SOL    HW266221   2.932   7.133   3.085  0.9716 -0.3245  1.5298
21594SOL     OW66222   1.526   0.420   7.312 -0.3909  0.0792  0.3780
21594SOL    HW166223   1.601   0.475   7.336 -0.0539  1.3780 -3.0042
21594SOL    HW266224   1.564   0.335   7.290 -0.3990 -0.3208  1.8127
21595SOL     OW66225   4.975   6.600   3.938 -0.6928  0.8984  0.3316
21595SOL    HW166226   5.015   6.528   3.891 -3.3681  0.6337 -1.8223
21595SOL    HW266227   5.036   6.673   3.927  1.3793 -0.5764  1.3444
21596SOL     OW66228   0.946   0.043   9.597  0.3604 -0.2092  0.0070
21596SOL    HW166229   0.976   0.133   9.610  1.1711 -0.5430  0.5813
21596SOL    HW266230   0.875   0.032   9.660  2.1164 -0.8058  1.9991
21597SOL     OW66231   6.031   5.509   8.993 -0.0026  0.3122  0.0552
21597SOL    HW166232   5.947   5.554   8.986  0.1969  0.8511  0.9707
21597SOL    HW266233   6.012   5.418   8.972 -0.7866  0.4530  0.1419
21598SOL     OW66234   6.833   3.752   4.906  0.1379 -0.4028  0.0036
21598SOL    HW166235   6.743   3.741   4.875 -0.8639  3.4432  1.0116
21598SOL    HW266236   6.828   3.737   5.000  0.4555  0.1335  0.1108
21599SOL     OW66237   6.913   0.704   2.253 -0.0840 -0.7078  0.1780
21599SOL    HW166238   6.972   0.780   2.252 -0.8470 -0.0851  1.1367
21599SOL    HW266239   6.919   0.668   2.164  0.4321  0.3564 -0.2359
21600SOL     OW66240   2.320   5.528   1.519 -0.2525  0.1641 -0.1960
21600SOL    HW166241   2.300   5.620   1.533 -0.5576  0.1162 -0.3048
21600SOL    HW266242   2.409   5.527   1.485  1.1003  0.1955  3.0571
21601SOL     OW66243   0.210   6.443   7.425 -0.1321  0.4017 -0.1875
21601SOL    HW166244   0.250   6.360   7.452  0.3803  0.8362  0.4101
21601SOL    HW266245   0.117   6.432   7.446 -0.5293 -0.8767 -2.2164
21602SOL     OW66246   0.302   3.562   9.635 -0.3707 -0.4910 -0.2606
21602SOL    HW166247   0.212   3.585   9.657  0.6323  3.0655  0.7735
21602SOL    HW266248   0.354   3.599   9.706  2.0542 -0.8947 -1.7389
21603SOL     OW66249   1.450   3.719  10.048  0.2222 -0.2692  0.8513
21603SOL    HW166250   1.487   3.803  10.021 -1.3658  0.3134  0.3896
21603SOL    HW266251   1.526   3.666  10.074  1.2451  1.3028  1.1764
21604SOL     OW66252   2.896   7.967   6.074  0.3549  0.3853 -0.0601
21604SOL    HW166253   2.919   7.932   6.160 -0.2667 -0.8480 -0.3763
21604SOL    HW266254   2.813   8.013   6.088  1.4645  2.3726  0.4831
21605SOL     OW66255   1.625   7.164   7.551 -0.0317 -0.0601 -0.1768
21605SOL    HW166256   1.688   7.218   7.599  0.8062 -0.5026 -0.7345
21605SOL    HW266257   1.547   7.219   7.543  0.5216  0.7706 -0.0516
21606SOL     OW66258   1.178   5.524  12.421 -0.7599  0.1368 -0.3546
21606SOL    HW166259   1.174   5.465  12.346 -0.8756  1.2412 -1.2628
21606SOL    HW266260   1.087   5.546  12.440 -0.6557  1.6971 -1.4522
21607SOL     OW66261   4.475   4.716   8.101  0.0459  0.1331  0.6114
21607SOL    HW166262   4.521   4.641   8.140  1.0370 -0.0156 -0.7484
21607SOL    HW266263   4.387   4.711   8.136  0.4620 -0.9081  1.5709
21608SOL     OW66264   6.035   2.515  12.090 -0.5877  0.5246  0.2009
21608SOL    HW166265   6.069   2.440  12.140  1.2198  1.3261  0.2620
21608SOL    HW266266   5.941   2.499  12.084 -0.5302 -0.7685  1.8773
21609SOL     OW66267   2.248   6.723   8.213  0.4269 -0.3109 -0.0645
21609SOL    HW166268   2.302   6.646   8.229  1.2395 -0.0096 -1.1714
21609SOL    HW266269   2.294   6.769   8.142  0.5255  1.7271  1.2428
21610SOL     OW66270   0.782   4.971  10.711 -0.6042  0.0895 -0.4673
21610SOL    HW166271   0.835   4.981  10.632  0.5380  1.8860  0.4778
21610SOL    HW266272   0.706   4.921  10.681  0.1090  0.1218 -2.5470
21611SOL     OW66273   4.287   7.221   2.642  0.8861  0.2236  0.1715
21611SOL    HW166274   4.360   7.209   2.581  0.3585 -1.8548 -0.1148
21611SOL    HW266275   4.249   7.134   2.651  0.5591  0.5767  3.0157
21612SOL     OW66276   2.100   2.278   0.218  0.6609  0.6311 -0.5505
21612SOL    HW166277   2.028   2.217   0.205  0.7089  0.3732  0.3385
21612SOL    HW266278   2.082   2.350   0.157 -0.0483  0.3140 -0.7233
21613SOL     OW66279   4.442   2.734   0.510  0.1338  0.0118  0.5732
21613SOL    HW166280   4.458   2.685   0.430 -3.6271 -0.6415  0.0005
21613SOL    HW266281   4.379   2.802   0.484  1.5963  2.1477  2.3058
21614SOL     OW66282   5.395   1.826   6.132  0.4395 -0.6105 -0.6598
21614SOL    HW166283   5.419   1.919   6.131 -0.7924 -0.2650 -1.6928
21614SOL    HW266284   5.303   1.825   6.105  1.2662 -2.3073 -4.1081
21615SOL     OW66285   0.501   4.964  11.845  0.0693 -0.6503 -0.0685
21615SOL    HW166286   0.503   4.894  11.910 -0.6926 -1.3546 -0.7699
21615SOL    HW266287   0.461   5.038  11.889 -0.4892 -1.1374  0.2527
21616SOL     OW66288   4.067   3.825   4.193 -0.1818 -0.4416  0.0258
21616SOL    HW166289   4.067   3.760   4.122  0.7130 -0.4051 -0.0111
21616SOL    HW266290   4.086   3.775   4.272  0.8554 -0.1807 -0.0505
21617SOL     OW66291   5.645   2.136   5.568  0.6069  0.1586  0.0329
21617SOL    HW166292   5.696   2.137   5.649  1.4146 -2.7174 -0.3124
21617SOL    HW266293   5.651   2.225   5.535  0.1032  1.5090  3.1647
21618SOL     OW66294   1.905   4.561   7.324  0.4566 -0.2707 -0.2232
21618SOL    HW166295   1.990   4.551   7.367  0.2678 -2.7040 -0.2603
21618SOL    HW266296   1.843   4.570   7.396  0.6734  0.9803 -0.1796
21619SOL     OW66297   4.259   5.728   7.246 -0.1421  0.3381  0.7240
21619SOL    HW166298   4.282   5.635   7.234  0.0657  0.2250  1.8788
21619SOL    HW266299   4.342   5.774   7.234  0.1336  0.1956  1.8970
21620SOL     OW66300   2.191   3.648  11.536  0.1350 -0.3862 -0.4146
21620SOL    HW166301   2.200   3.725  11.480 -2.4151 -0.3619 -0.8774
21620SOL    HW266302   2.268   3.595  11.515  1.8903  1.9001 -0.1841
21621SOL     OW66303   6.591   4.705   0.249 -0.3465  0.3478 -0.5996
21621SOL    HW166304   6.540   4.771   0.296  1.3701  0.9733  0.5194
21621SOL    HW266305   6.672   4.699   0.300 -0.3788 -2.5207 -0.7757
21622SOL     OW66306   6.180   6.213   6.141 -0.8294 -0.1613  0.3610
21622SOL    HW166307   6.261   6.180   6.101  1.0841  2.6325  1.6124
21622SOL    HW266308   6.126   6.238   6.067  1.1698  1.6267 -0.6014
21623SOL     OW66309   6.978   6.988   0.165  0.0537 -0.3081 -0.1150
21623SOL    HW166310   6.887   6.999   0.139 -0.0114  0.4875  0.4081
21623SOL    HW266311   7.028   7.000   0.084 -0.1432  2.0510  0.0461
21624SOL     OW66312   0.967   5.742   5.841  0.3290 -0.7032 -0.5752
21624SOL    HW166313   0.951   5.649   5.854  0.0201 -0.4160  1.5481
21624SOL    HW266314   0.887   5.785   5.872  1.3127  0.3226  0.6755
21625SOL     OW66315   3.078   2.637   3.157  0.9644 -0.6033  0.5440
21625SOL    HW166316   3.081   2.591   3.241  0.4722  0.0935  0.9486
21625SOL    HW266317   3.156   2.692   3.157  0.7543 -0.3044  0.7194
21626SOL     OW66318   6.350   1.781   5.501 -1.0486 -0.8461 -0.2265
21626SOL    HW166319   6.281   1.735   5.454 -0.5432 -1.0057 -0.8180
21626SOL    HW266320   6.417   1.714   5.518 -0.2722 -0.3328 -1.1629
21627SOL     OW66321   6.506   5.113  11.789 -0.0116 -0.0146  0.5093
21627SOL    HW166322   6.509   5.190  11.732  1.3317 -0.5530 -0.1997
21627SOL    HW266323   6.460   5.143  11.867 -0.4068  1.2161 -0.1732
21628SOL     OW66324   1.331   0.522   8.897 -0.1095  0.1112  0.2417
21628SOL    HW166325   1.300   0.458   8.961 -0.4357 -0.0896 -0.1151
21628SOL    HW266326   1.288   0.604   8.922  2.4668  0.9236  2.4423
21629SOL     OW66327   1.321   3.175   5.201  0.1273  0.0930 -0.0576
21629SOL    HW166328   1.376   3.099   5.218  0.0092  0.0858  0.3087
21629SOL    HW266329   1.361   3.218   5.126  0.1846 -0.3409 -0.2805
21630SOL     OW66330   6.178   7.290  11.713 -0.5955  0.1676 -0.2531
21630SOL    HW166331   6.095   7.328  11.685 -0.9845 -0.5805 -0.1339
21630SOL    HW266332   6.156   7.238  11.791  0.5933  2.9078  2.0940
21631SOL     OW66333   1.832   3.746  11.868  0.0252 -0.2710  0.4880
21631SOL    HW166334   1.824   3.833  11.908  0.6172  0.0711 -0.1009
21631SOL    HW266335   1.758   3.740  11.808  1.6349  1.1741 -1.8570
21632SOL     OW66336   5.007   7.654  10.018  0.0575  0.3026  0.4449
21632SOL    HW166337   4.952   7.606   9.956  1.6287  0.8013 -1.3972
21632SOL    HW266338   4.952   7.662  10.096 -0.9181 -2.9691  0.2578
21633SOL     OW66339   3.952   2.421   7.650 -0.0214 -0.4971 -0.1234
21633SOL    HW166340   3.933   2.463   7.734  1.4765 -1.8142  0.9424
21633SOL    HW266341   3.869   2.383   7.622 -0.9665  1.4987 -0.1837
21634SOL     OW66342   4.225   0.413   6.731  0.4816 -0.0877 -0.2058
21634SOL    HW166343   4.278   0.395   6.808  1.5463  0.0267 -0.8900
21634SOL    HW266344   4.178   0.494   6.753  0.8173 -0.0223  0.2952
21635SOL     OW66345   5.305   0.942   9.918  0.0690  0.0885  0.0333
21635SOL    HW166346   5.335   0.927   9.829  1.7750 -0.4540  0.6709
21635SOL    HW266347   5.303   0.856   9.959 -2.3687  0.0807  0.0847
21636SOL     OW66348   5.045   4.917   8.603 -1.2516  0.3077 -0.2980
21636SOL    HW166349   5.010   4.967   8.677 -1.9114  0.5583 -0.7714
21636SOL    HW266350   5.077   4.836   8.643 -1.3604  0.5480  0.3003
21637SOL     OW66351   6.392   4.197   6.466 -0.6055 -0.3506  0.2265
21637SOL    HW166352   6.451   4.131   6.431 -0.3528  0.4698 -0.9646
21637SOL    HW266353   6.404   4.273   6.409 -0.6345  0.8544  1.7538
21638SOL     OW66354   6.829   0.444   3.370  0.2731  0.3987  0.2397
21638SOL    HW166355   6.832   0.485   3.456 -2.0723  1.6423 -0.1836
21638SOL    HW266356   6.892   0.372   3.375  1.4298  1.4740  2.4066
21639SOL     OW66357   5.785   3.660  12.034 -0.2329  0.5061 -0.1538
21639SOL    HW166358   5.845   3.598  11.993 -0.6661  0.3643 -0.5751
21639SOL    HW266359   5.776   3.628  12.124 -0.0784  0.2345 -0.2317
21640SOL     OW66360   0.363   0.806   3.400  0.6091  0.1772 -0.2028
21640SOL    HW166361   0.346   0.759   3.482  1.0043 -0.9739 -0.7463
21640SOL    HW266362   0.277   0.829   3.366  0.3474 -0.8697 -0.2934
21641SOL     OW66363   4.061   0.226   8.500 -0.6709 -0.3194 -0.3706
21641SOL    HW166364   4.020   0.167   8.563 -0.2854 -0.7811 -0.5481
21641SOL    HW266365   4.025   0.200   8.415 -0.7019 -0.1221 -0.4199
21642SOL     OW66366   6.814   3.171   3.930 -0.1013  0.1224 -0.0895
21642SOL    HW166367   6.889   3.129   3.889 -1.4085 -1.5501 -0.8913
21642SOL    HW266368   6.850   3.216   4.007  1.7002 -0.5388 -0.5138
21643SOL     OW66369   1.243   1.603   1.468 -0.2396 -0.3584  0.3319
21643SOL    HW166370   1.184   1.529   1.456  1.4951 -1.9950  1.2644
21643SOL    HW266371   1.324   1.577   1.424  1.2832 -0.2162  2.8162
21644SOL     OW66372   6.254   3.993   4.755  0.2333  0.3445 -0.2894
21644SOL    HW166373   6.302   3.943   4.689  0.6249 -2.3055  1.8687
21644SOL    HW266374   6.166   4.002   4.717  0.8188  0.1880 -1.7804
21645SOL     OW66375   0.505   4.987   9.692 -0.2686  0.2664  0.4468
21645SOL    HW166376   0.569   5.046   9.732  0.4661 -0.3470  0.2083
21645SOL    HW266377   0.551   4.950   9.617 -1.5218  1.1662 -0.8066
21646SOL     OW66378   4.039   6.594  12.090 -0.1541 -0.1513  0.0809
21646SOL    HW166379   3.966   6.557  12.041 -0.3376  0.0958  0.1632
21646SOL    HW266380   4.030   6.689  12.077  0.7756 -0.1653 -0.8015
21647SOL     OW66381   7.363   0.194   8.021 -0.0370 -0.0192  0.1046
21647SOL    HW166382   7.316   0.168   7.942  0.3579  0.7049 -0.3836
21647SOL    HW266383   7.314   0.267   8.057  0.4862  0.4852 -0.1894
21648SOL     OW66384   0.772   1.467   2.233 -0.3380  0.3140 -0.4644
21648SOL    HW166385   0.810   1.452   2.147  0.6418  0.8922 -0.1528
21648SOL    HW266386   0.821   1.408   2.291  0.1926  1.1498 -0.0375
21649SOL     OW66387   1.517   6.734   3.163  0.5036 -0.2743  0.6817
21649SOL    HW166388   1.494   6.799   3.229  0.9633  1.9821 -1.2332
21649SOL    HW266389   1.605   6.706   3.186  0.9597  1.0547  0.6759
21650SOL     OW66390   1.927   7.614  12.101 -0.1546 -0.1055  0.0934
21650SOL    HW166391   1.845   7.570  12.081  0.6314 -1.1235 -1.0307
21650SOL    HW266392   1.918   7.640  12.193 -1.6419 -0.3773  0.0479
21651SOL     OW66393   4.787   3.720   0.205  0.7443 -0.3158 -0.0338
21651SOL    HW166394   4.699   3.688   0.227  0.6675  0.5787  1.0515
21651SOL    HW266395   4.800   3.693   0.114 -0.4310 -0.9421 -0.0403
21652SOL     OW66396   7.683   7.350   2.153 -0.1228  0.0514 -0.2152
21652SOL    HW166397   7.672   7.255   2.150  1.4154 -0.1591 -0.1765
21652SOL    HW266398   7.674   7.372   2.245 -0.3923 -0.0613 -0.2126
21653SOL     OW66399   2.313   3.611   0.290 -0.8477 -0.5858  0.1416
21653SOL    HW166400   2.221   3.599   0.313 -1.1192  2.1177  0.8166
21653SOL    HW266401   2.353   3.647   0.369  0.4782 -0.4045 -0.5795
21654SOL     OW66402   6.074   7.185   9.841 -0.5330 -0.4595  0.3970
21654SOL    HW166403   6.128   7.110   9.814  0.5307  0.2149  0.5762
21654SOL    HW266404   6.124   7.262   9.812 -1.8076  0.1901 -0.1807
21655SOL     OW66405   5.083   3.251   3.587  0.7261  0.2610 -0.3609
21655SOL    HW166406   5.042   3.220   3.507  1.9317 -1.1339 -0.4754
21655SOL    HW266407   5.138   3.324   3.559  1.8881 -0.8291 -0.9950
21656SOL     OW66408   0.286   5.458   2.547 -0.3012 -0.1986 -0.2101
21656SOL    HW166409   0.264   5.381   2.600 -2.4690  0.5440  0.0554
21656SOL    HW266410   0.334   5.515   2.607  0.8766 -1.0718 -0.2694
21657SOL     OW66411   7.847   2.716   0.644  0.3380  0.5735 -0.0480
21657SOL    HW166412   7.902   2.687   0.716  1.8785 -1.1777 -1.8299
21657SOL    HW266413   7.882   2.802   0.620  0.6450  0.5976  0.4834
21658SOL     OW66414   2.645   0.736   5.894  0.3829 -0.2357 -0.2331
21658SOL    HW166415   2.738   0.728   5.874  0.5769 -2.9620  1.2401
21658SOL    HW266416   2.643   0.766   5.985 -0.2843  1.8142 -0.8605
21659SOL     OW66417   3.143   4.887   2.406 -0.1628  0.1087 -0.3903
21659SOL    HW166418   3.156   4.979   2.431  1.1974 -0.0183 -0.5653
21659SOL    HW266419   3.211   4.871   2.341 -0.0988 -1.1589 -0.0247
21660SOL     OW66420   2.942   1.015   8.184  0.1265 -0.5015 -0.1522
21660SOL    HW166421   2.988   1.098   8.175  0.8550 -1.0523 -1.9815
21660SOL    HW266422   2.895   1.004   8.101 -1.4262 -1.0843  0.7537
21661SOL     OW66423   4.218   5.933  11.875  0.5176  0.3355  0.4771
21661SOL    HW166424   4.152   5.910  11.810  1.2263 -1.5128  0.3679
21661SOL    HW266425   4.284   5.983  11.827  0.8481 -0.6953 -0.1552
21662SOL     OW66426   7.649   7.630   6.380  0.3293  0.2568  0.1994
21662SOL    HW166427   7.595   7.707   6.366 -0.6414 -0.0382  2.0725
21662SOL    HW266428   7.650   7.617   6.475  1.2182 -1.4992  0.0017
21663SOL     OW66429   5.640   2.260  11.681  0.0227  0.1126  0.4676
21663SOL    HW166430   5.662   2.272  11.774 -0.0743 -0.6063  0.5879
21663SOL    HW266431   5.676   2.174  11.660 -0.2589  0.1307 -0.0749
21664SOL     OW66432   0.842   5.524   1.130  0.0618  0.1310  0.3357
21664SOL    HW166433   0.913   5.579   1.097 -1.7311  1.0692 -2.3376
21664SOL    HW266434   0.805   5.575   1.203  2.6420 -0.8751  2.5225
21665SOL     OW66435   6.176   5.583  11.194  0.0736  0.1057 -0.6228
21665SOL    HW166436   6.264   5.585  11.156  0.5153  0.0241  0.3797
21665SOL    HW266437   6.170   5.663  11.246 -0.0525 -0.4174  0.1770
21666SOL     OW66438   6.755   0.151   2.361 -0.0463 -0.0918  0.0375
21666SOL    HW166439   6.747   0.196   2.277 -0.9459  0.9294  0.6463
21666SOL    HW266440   6.676   0.177   2.410  1.3172  0.8326  1.8824
21667SOL     OW66441   7.162   1.817  10.169 -0.3163 -0.4616 -0.3152
21667SOL    HW166442   7.208   1.853  10.245  0.6408 -0.0222 -1.0738
21667SOL    HW266443   7.196   1.728  10.161 -2.1550 -1.3535  1.1339
21668SOL     OW66444   7.228   1.105   9.309 -0.4817 -0.0880  0.5265
21668SOL    HW166445   7.267   1.024   9.275  0.1839 -0.0862  1.2813
21668SOL    HW266446   7.151   1.119   9.253 -0.3011 -0.9493  0.0440
21669SOL     OW66447   4.681   7.211   0.344 -0.2181 -0.5008  0.2054
21669SOL    HW166448   4.668   7.227   0.438  1.3940 -0.0969  0.4020
21669SOL    HW266449   4.722   7.125   0.341 -0.7552 -0.7415 -0.1710
21670SOL     OW66450   0.653   1.252   5.374  0.1651  0.1469  0.5533
21670SOL    HW166451   0.682   1.167   5.341  0.8307  0.8441 -0.7459
21670SOL    HW266452   0.566   1.265   5.335 -0.4580 -0.4283  1.6952
21671SOL     OW66453   0.678   4.716   2.825  0.1607  0.0719 -0.2291
21671SOL    HW166454   0.690   4.798   2.874  2.4301 -0.6077  0.4318
21671SOL    HW266455   0.740   4.722   2.753  0.1398 -0.9386 -0.3402
21672SOL     OW66456   6.884   4.554   2.784 -0.3859 -0.0743 -0.3319
21672SOL    HW166457   6.876   4.554   2.688 -0.5894 -0.5256 -0.3170
21672SOL    HW266458   6.798   4.583   2.815  0.1922  1.7376 -0.3103
21673SOL     OW66459   4.295   7.509   4.217  0.1082  0.3528  0.2602
21673SOL    HW166460   4.219   7.451   4.218  0.8621 -0.6853  1.2243
21673SOL    HW266461   4.315   7.521   4.124 -1.7410  1.3906 -0.0439
21674SOL     OW66462   1.370   2.114   1.987  0.3884 -0.0351 -0.4679
21674SOL    HW166463   1.298   2.095   1.926 -0.9153 -1.7439  1.4848
21674SOL    HW266464   1.437   2.049   1.966  0.1730 -0.2712 -0.4258
21675SOL     OW66465   4.377   2.459   9.859  0.1271 -0.2083 -0.0589
21675SOL    HW166466   4.337   2.486   9.942  0.0839  0.3959 -0.2705
21675SOL    HW266467   4.329   2.510   9.792  1.8720  1.2887 -0.2475
21676SOL     OW66468   7.139   5.489   8.381  0.6349 -0.0733  0.0004
21676SOL    HW166469   7.188   5.411   8.355  0.6238 -0.0485 -0.0959
21676SOL    HW266470   7.165   5.555   8.317 -0.4404 -0.3894 -0.7994
21677SOL     OW66471   1.465   2.209   7.703 -0.5212 -1.1676 -0.1866
21677SOL    HW166472   1.397   2.269   7.673 -0.3858 -0.7217  0.3748
21677SOL    HW266473   1.513   2.186   7.623  0.6801  1.0505 -0.2113
21678SOL     OW66474   3.992   4.013   1.599  0.4803  0.4936  0.3108
21678SOL    HW166475   4.081   3.999   1.631 -0.1688  0.4084  2.2014
21678SOL    HW266476   3.968   4.100   1.632 -0.6120 -0.0662  1.0950
21679SOL     OW66477   2.334   5.973   2.380 -0.2633  0.2061 -0.1869
21679SOL    HW166478   2.242   5.986   2.357 -0.4050  0.6129  0.5407
21679SOL    HW266479   2.361   6.058   2.416  0.9789  0.7436 -2.2240
21680SOL     OW66480   5.713   5.861   3.721  0.3846 -0.2816 -0.0748
21680SOL    HW166481   5.631   5.908   3.712  0.1274 -0.7207 -0.0417
21680SOL    HW266482   5.695   5.773   3.686  0.5064 -0.7425  0.9756
21681SOL     OW66483   1.158   4.692   7.782  0.5134 -0.4800 -0.4087
21681SOL    HW166484   1.070   4.694   7.743  0.0326 -1.6661  0.5645
21681SOL    HW266485   1.211   4.642   7.720  0.0696 -1.2599 -0.1656
21682SOL     OW66486   2.954   6.815   1.396 -0.0832  0.0928 -0.1332
21682SOL    HW166487   2.885   6.850   1.338  0.9279 -0.7002 -1.8825
21682SOL    HW266488   2.907   6.788   1.474 -1.4532  1.6344 -0.3455
21683SOL     OW66489   7.094   5.299  11.618 -0.3466 -0.4747 -0.0590
21683SOL    HW166490   7.008   5.306  11.576 -1.5441 -0.5727  2.1859
21683SOL    HW266491   7.088   5.219  11.671  1.5895 -1.1448 -0.7599
21684SOL     OW66492   0.172   5.172   6.979  0.0525  0.0554 -0.0707
21684SOL    HW166493   0.082   5.145   6.966 -0.1614  0.6602  0.1190
21684SOL    HW266494   0.213   5.163   6.892 -0.6455  1.4424 -0.5671
21685SOL     OW66495   4.837   3.281  11.580 -0.0746  0.1929 -0.2515
21685SOL    HW166496   4.762   3.340  11.576 -0.2754  0.1959  2.2049
21685SOL    HW266497   4.807   3.201  11.537 -0.7668  0.8666 -1.0621
21686SOL     OW66498   5.540   2.691   5.159 -0.3021 -0.7274  0.4945
21686SOL    HW166499   5.463   2.665   5.108 -0.8454 -0.4139  1.1377
21686SOL    HW266500   5.508   2.697   5.249  0.3463 -0.0556  0.6893
21687SOL     OW66501   4.953   5.097  12.057 -0.4331  0.4356  0.2961
21687SOL    HW166502   4.935   5.074  12.148 -0.6022  3.8617  1.2741
21687SOL    HW266503   4.877   5.147  12.029 -1.5288 -2.5479 -2.7010
21688SOL     OW66504   6.385   4.295   1.922  0.4917  0.2036 -0.2036
21688SOL    HW166505   6.429   4.344   1.992 -1.4997  1.8784 -0.0356
21688SOL    HW266506   6.432   4.319   1.842  2.4046 -1.2529  0.4141
21689SOL     OW66507   5.546   6.447   8.481  0.1376 -0.1517  0.3996
21689SOL    HW166508   5.612   6.484   8.539  0.1300  3.0153 -1.3957
21689SOL    HW266509   5.593   6.425   8.401 -0.5224 -0.6105  0.1219
21690SOL     OW66510   7.877   2.112  11.962 -0.3829  0.1478  0.0440
21690SOL    HW166511   7.829   2.193  11.946  0.4379  0.5658 -0.3634
21690SOL    HW266512   7.842   2.079  12.045 -1.2418  0.5275 -0.1547
21691SOL     OW66513   4.391   1.769   3.642  0.3128 -0.1313 -0.3711
21691SOL    HW166514   4.434   1.848   3.610  0.8557  0.7980  2.3917
21691SOL    HW266515   4.450   1.734   3.708 -1.2176 -1.2710  0.4612
21692SOL     OW66516   0.248   4.470   4.819  0.0094  0.2804 -0.1104
21692SOL    HW166517   0.195   4.401   4.857 -2.8323  1.9522 -0.7395
21692SOL    HW266518   0.252   4.538   4.887 -0.9386  1.2605 -1.0113
21693SOL     OW66519   3.167   2.974   3.437 -0.0497 -0.6680  0.8231
21693SOL    HW166520   3.128   2.891   3.464 -0.6657 -0.5745  0.2313
21693SOL    HW266521   3.229   2.950   3.368 -0.3459 -0.6203  0.5390
21694SOL     OW66522   5.403   0.636   7.633  0.3274 -0.0454  0.3706
21694SOL    HW166523   5.315   0.613   7.605  1.4356 -2.0411 -1.7952
21694SOL    HW266524   5.428   0.566   7.694  0.9161 -0.3280 -0.1817
21695SOL     OW66525   7.309   3.565   5.398 -0.2119  0.5029 -0.5104
21695SOL    HW166526   7.281   3.518   5.477  0.5818  1.9939  0.7125
21695SOL    HW266527   7.375   3.628   5.429 -0.3348  1.5680 -2.2537
21696SOL     OW66528   7.250   5.317   4.990  0.0677  0.4156 -0.5933
21696SOL    HW166529   7.338   5.279   4.991 -0.1081 -0.0207 -1.2808
21696SOL    HW266530   7.221   5.307   4.899 -0.3560  1.3389 -0.5658
21697SOL     OW66531   5.695   1.985   8.669  1.0885 -0.3637 -0.0322
21697SOL    HW166532   5.763   2.050   8.655  0.5211  0.4620  0.8708
21697SOL    HW266533   5.655   1.972   8.583  0.3331  1.5081 -0.0144
21698SOL     OW66534   3.494   1.557   0.266 -0.5632  0.1875 -0.1634
21698SOL    HW166535   3.513   1.505   0.344  1.5796  1.1694  0.0659
21698SOL    HW266536   3.475   1.493   0.198  1.5762 -0.9433  0.2030
21699SOL     OW66537   5.793   4.496   9.306  0.0428 -0.1168 -1.0870
21699SOL    HW166538   5.763   4.471   9.219 -0.6885 -0.2804 -0.7996
21699SOL    HW266539   5.827   4.415   9.345  1.8909  0.2709 -1.7909
21700SOL     OW66540   4.204   5.180   0.411 -0.5460 -0.0042  0.3946
21700SOL    HW166541   4.256   5.260   0.410 -1.2617  0.4907 -1.1508
21700SOL    HW266542   4.141   5.192   0.482 -0.0540  0.3957  0.7626
21701SOL     OW66543   7.447   4.218  11.337 -0.2856 -0.1175 -0.3590
21701SOL    HW166544   7.377   4.152  11.341  1.4648 -2.0336  3.0967
21701SOL    HW266545   7.443   4.262  11.422  1.2605  1.3668 -1.0030
21702SOL     OW66546   0.357   3.100  11.548 -0.1378  0.0692 -0.3653
21702SOL    HW166547   0.381   3.189  11.523  0.2709  0.4358  1.2209
21702SOL    HW266548   0.406   3.043  11.489  0.6359  0.8794 -0.5078
21703SOL     OW66549   0.349   3.320   4.240  0.0021  0.1787 -0.2181
21703SOL    HW166550   0.412   3.249   4.254  0.2688  0.5125  0.3206
21703SOL    HW266551   0.272   3.293   4.290  0.7523  1.1010  1.5506
21704SOL     OW66552   4.336   5.305   3.132  0.6197 -0.1162  0.4325
21704SOL    HW166553   4.425   5.277   3.110  0.0594 -0.9093 -0.9279
21704SOL    HW266554   4.287   5.223   3.142 -0.3053  0.3179 -0.3657
21705SOL     OW66555   6.419   5.411   7.233 -0.2222  0.4437 -0.2536
21705SOL    HW166556   6.379   5.415   7.320  0.4367 -1.1817  0.1608
21705SOL    HW266557   6.347   5.382   7.176 -0.6572  1.5221 -0.2703
21706SOL     OW66558   6.698   4.724   5.456  0.1446 -0.1756  0.0784
21706SOL    HW166559   6.782   4.763   5.434 -0.4063  1.6500  1.0320
21706SOL    HW266560   6.685   4.744   5.548 -1.3820 -0.3257 -0.0681
21707SOL     OW66561   5.847   4.367  10.760 -0.4337  0.0375  0.9458
21707SOL    HW166562   5.779   4.375  10.694  0.7698 -0.3256 -0.3977
21707SOL    HW266563   5.873   4.457  10.779  1.1415  0.1190 -1.2264
21708SOL     OW66564   5.444   5.107   2.977  0.1527  0.1454  0.4249
21708SOL    HW166565   5.420   5.158   2.900 -0.1351  0.6006  0.8046
21708SOL    HW266566   5.490   5.169   3.034 -0.6877  0.1465  1.1364
21709SOL     OW66567   2.733   3.234   1.536  0.6346  0.2470 -0.6706
21709SOL    HW166568   2.816   3.251   1.489  0.2771  1.5897 -0.8615
21709SOL    HW266569   2.754   3.248   1.628  0.4682  1.3036 -0.7817
21710SOL     OW66570   0.306   7.387   5.187 -0.5300  0.1727 -0.2623
21710SOL    HW166571   0.385   7.366   5.237  0.0243 -0.6658 -1.4409
21710SOL    HW266572   0.249   7.311   5.200 -0.3094 -0.1342 -1.0151
21711SOL     OW66573   0.185   6.476   5.161 -0.6305  0.0866  0.1514
21711SOL    HW166574   0.202   6.396   5.210 -0.6729 -0.2592 -0.3804
21711SOL    HW266575   0.184   6.545   5.226 -0.0093 -0.2686  0.5467
21712SOL     OW66576   4.860   7.080   4.568 -0.1187 -0.0958 -0.1963
21712SOL    HW166577   4.810   6.999   4.563 -0.3642  0.0025  0.5698
21712SOL    HW266578   4.908   7.073   4.651  0.3408  0.2694 -0.4267
21713SOL     OW66579   0.513   3.121   8.721  0.1353  0.3298  0.0728
21713SOL    HW166580   0.456   3.082   8.787  1.1393 -0.5778  0.4462
21713SOL    HW266581   0.527   3.210   8.750  1.0556 -0.2383  1.4389
21714SOL     OW66582   0.597   4.470   5.983 -0.9414 -0.0117 -0.2070
21714SOL    HW166583   0.623   4.458   5.892  0.7092 -0.8959  0.3369
21714SOL    HW266584   0.559   4.385   6.008 -1.7132  0.3400 -0.1535
21715SOL     OW66585   7.667   7.230   5.708  0.2716 -0.4135  0.4055
21715SOL    HW166586   7.598   7.175   5.745 -0.0709 -0.2416  0.0369
21715SOL    HW266587   7.631   7.318   5.709 -0.0859 -0.5158 -1.0865
21716SOL     OW66588   3.030   1.570   8.257  0.0743 -0.1628  0.0265
21716SOL    HW166589   3.095   1.622   8.210 -0.0264  0.9256  1.0581
21716SOL    HW266590   3.081   1.504   8.303  0.2834 -0.3975 -0.5276
21717SOL     OW66591   2.776   4.832   1.149  0.4397  0.1491  0.3479
21717SOL    HW166592   2.747   4.923   1.149  2.1691  0.7493 -0.5591
21717SOL    HW266593   2.826   4.822   1.230  1.8809  0.6313 -0.4270
21718SOL     OW66594   6.748   0.833   4.939  0.1778 -0.4038  0.0004
21718SOL    HW166595   6.838   0.848   4.968 -0.1383  2.2998 -0.1865
21718SOL    HW266596   6.696   0.899   4.985 -1.6214 -1.3583 -0.5297
21719SOL     OW66597   2.626   7.153   8.745  0.0047 -0.1652 -0.1805
21719SOL    HW166598   2.552   7.093   8.747 -1.2385  1.1875 -2.2267
21719SOL    HW266599   2.593   7.232   8.703  2.0043  1.3945  0.9804
21720SOL     OW66600   6.685   1.916   7.501  0.4412  0.1888  0.2469
21720SOL    HW166601   6.660   1.922   7.593  1.0244 -0.1765  0.4358
21720SOL    HW266602   6.683   1.822   7.482  0.8315  0.2207  0.0383
21721SOL     OW66603   1.400   3.146   2.154 -0.3479 -0.3811  0.2844
21721SOL    HW166604   1.360   3.060   2.145  0.3602 -0.6924  0.0874
21721SOL    HW266605   1.482   3.130   2.201 -0.5193  0.2695  0.8217
21722SOL     OW66606   1.671   2.129  10.169  0.1768  0.2255  0.0186
21722SOL    HW166607   1.686   2.196  10.236  0.4557  0.1892 -0.0062
21722SOL    HW266608   1.750   2.075  10.172 -0.3746 -0.5720  0.5719
21723SOL     OW66609   6.593   1.828   7.888  0.3437  0.9301  0.6159
21723SOL    HW166610   6.673   1.848   7.839 -0.2481  2.1960  0.1409
21723SOL    HW266611   6.539   1.779   7.827  1.0452 -0.6185  1.1888
21724SOL     OW66612   5.113   0.180   4.437 -0.1798 -0.4037  0.0226
21724SOL    HW166613   5.202   0.213   4.447  0.1746 -1.3633  0.1956
21724SOL    HW266614   5.088   0.149   4.524 -0.8105  0.1536  0.0478
21725SOL     OW66615   5.222   5.379   1.224 -0.3026  0.3077  0.2790
21725SOL    HW166616   5.228   5.464   1.180  0.9573  0.2345  0.2663
21725SOL    HW266617   5.171   5.325   1.165 -0.9292  0.9897  0.1809
21726SOL     OW66618   6.520   5.581  11.507 -0.1741  0.3289 -0.0124
21726SOL    HW166619   6.471   5.664  11.509  0.9215  0.9984  0.3972
21726SOL    HW266620   6.564   5.582  11.422 -1.2448 -0.5106 -0.5917
21727SOL     OW66621   5.052   2.305   4.403  0.5656  0.4707  0.3958
21727SOL    HW166622   5.120   2.242   4.380 -0.5903 -0.6667 -0.0036
21727SOL    HW266623   5.037   2.292   4.496 -1.4184 -1.7152 -0.1191
21728SOL     OW66624   2.754   1.407   6.120  0.2975  0.5414  0.4252
21728SOL    HW166625   2.840   1.445   6.139  1.1179 -1.8592  1.8484
21728SOL    HW266626   2.711   1.401   6.205 -0.4673 -0.1413  0.0056
21729SOL     OW66627   1.715   4.673   8.594 -0.0353 -0.4954 -0.1061
21729SOL    HW166628   1.741   4.765   8.583  1.3358 -0.8827 -0.3168
21729SOL    HW266629   1.638   4.676   8.649  0.2080  0.7686  0.1946
21730SOL     OW66630   6.089   5.862   9.034 -0.4161  0.0662  0.3331
21730SOL    HW166631   6.120   5.810   9.109  1.4530 -0.4929 -0.7774
21730SOL    HW266632   6.151   5.843   8.964 -1.5327  1.3750 -1.0749
21731SOL     OW66633   1.302   5.567   7.595  0.4604 -0.0486  0.4753
21731SOL    HW166634   1.347   5.608   7.669 -0.0587 -0.1426  0.8518
21731SOL    HW266635   1.261   5.489   7.633 -0.1811  0.1460  0.1888
21732SOL     OW66636   5.893   6.924   7.813  0.5395  0.9672 -0.0287
21732SOL    HW166637   5.823   6.861   7.831  1.8571 -0.3757  0.6409
21732SOL    HW266638   5.867   6.967   7.732 -0.2160 -0.7645 -0.7469
21733SOL     OW66639   7.216   2.829  11.638  0.1341 -0.2994  0.0145
21733SOL    HW166640   7.139   2.840  11.694  1.2978  0.4522  1.5296
21733SOL    HW266641   7.267   2.909  11.651  0.2376  0.1519 -2.5320
21734SOL     OW66642   0.785   6.271  10.930  0.3383 -0.5672 -0.3736
21734SOL    HW166643   0.856   6.331  10.955  0.0573 -0.8460  1.1900
21734SOL    HW266644   0.758   6.301  10.843  1.2979  0.5405 -0.3143
21735SOL     OW66645   2.990   2.293  10.858 -0.2810 -0.4164 -0.1589
21735SOL    HW166646   3.045   2.217  10.878  0.3296 -0.1188 -0.6836
21735SOL    HW266647   3.028   2.365  10.909  1.3391  0.3746 -2.3263
21736SOL     OW66648   0.557   7.201   4.045 -0.8888 -0.2024 -0.2434
21736SOL    HW166649   0.483   7.158   4.002 -0.2003 -1.2826 -0.3886
21736SOL    HW266650   0.544   7.294   4.029 -1.4285 -0.4876 -1.5559
21737SOL     OW66651   2.907   4.538   5.552 -0.1820 -0.5125  0.8153
21737SOL    HW166652   2.974   4.601   5.579 -0.2868  0.6094 -1.3538
21737SOL    HW266653   2.830   4.591   5.533 -0.4434 -1.3403 -0.5474
21738SOL     OW66654   6.373   3.175   2.839 -0.3004  0.1623 -0.4426
21738SOL    HW166655   6.283   3.170   2.806 -0.5359 -0.0787  0.2253
21738SOL    HW266656   6.380   3.263   2.876 -0.9015 -0.4744  1.2803
21739SOL     OW66657   0.642   7.485   2.048 -0.2983  0.0510  0.4532
21739SOL    HW166658   0.730   7.514   2.023 -0.3056  0.1762  0.5740
21739SOL    HW266659   0.652   7.393   2.069 -0.5897 -0.5157 -1.6314
21740SOL     OW66660   6.815   0.182   2.835  0.3939 -0.1217  0.5163
21740SOL    HW166661   6.829   0.131   2.915 -1.2733 -0.0399  0.8929
21740SOL    HW266662   6.738   0.143   2.795  0.7053  0.3916 -0.6172
21741SOL     OW66663   6.624   6.320   7.437 -0.3510 -0.0998  0.4376
21741SOL    HW166664   6.582   6.278   7.513  1.1445 -1.8942  0.3412
21741SOL    HW266665   6.640   6.248   7.376 -0.0848  1.0665 -0.9181
21742SOL     OW66666   1.957   4.297   2.877 -0.4314  0.1331  0.2101
21742SOL    HW166667   1.934   4.230   2.812 -0.8765  0.8399 -0.3778
21742SOL    HW266668   1.885   4.295   2.939 -1.2710  1.1710 -0.6994
21743SOL     OW66669   0.510   2.752  11.038  0.5152 -0.3103  0.8281
21743SOL    HW166670   0.425   2.709  11.032  0.6022 -0.7203  2.3442
21743SOL    HW266671   0.491   2.838  11.077  0.7699 -0.3305  0.9994
21744SOL     OW66672   2.112   5.088   0.490  0.0434  0.4026 -0.2348
21744SOL    HW166673   2.018   5.077   0.500  0.1301 -1.6797 -1.2441
21744SOL    HW266674   2.151   5.025   0.550  0.7577  0.1607 -0.9254
21745SOL     OW66675   1.466   7.520  11.924 -0.2808 -0.6297 -0.0795
21745SOL    HW166676   1.500   7.546  11.838 -0.1451  1.3192  0.5260
21745SOL    HW266677   1.389   7.574  11.938  0.4836  0.1281  1.5927
21746SOL     OW66678   4.801   3.383  10.734 -0.1153 -0.0849  0.1991
21746SOL    HW166679   4.877   3.389  10.676  0.8055 -1.3456  1.2197
21746SOL    HW266680   4.727   3.373  10.674  0.8730 -1.9542 -0.8030
21747SOL     OW66681   0.616   3.049   2.188 -0.2229  0.2547 -0.5472
21747SOL    HW166682   0.577   3.106   2.121 -0.7831  0.9761  0.3612
21747SOL    HW266683   0.705   3.083   2.198 -0.5761  1.0521  0.0411
21748SOL     OW66684   2.170   4.408   2.347  0.1908  0.2078  0.0501
21748SOL    HW166685   2.197   4.419   2.438 -3.5186 -1.0878  1.5216
21748SOL    HW266686   2.216   4.329   2.318  2.6532  1.5199  0.1555
21749SOL     OW66687   2.017   4.433   3.130 -0.0007 -0.0724 -0.7725
21749SOL    HW166688   2.004   4.397   3.042 -0.4109 -2.5275  0.1903
21749SOL    HW266689   2.044   4.523   3.116 -0.9048 -0.1199 -3.3872
21750SOL     OW66690   2.255   7.052   3.669 -0.2151  0.3432 -0.4365
21750SOL    HW166691   2.160   7.058   3.678 -0.1550  0.4635  0.1452
21750SOL    HW266692   2.273   6.958   3.668 -0.2539  0.3269  0.4051
21751SOL     OW66693   3.067   2.512   6.213 -0.0494 -0.3655  0.1400
21751SOL    HW166694   3.005   2.551   6.275 -0.9468 -0.0013 -0.9619
21751SOL    HW266695   3.106   2.586   6.168  0.8792 -0.6163  0.5003
21752SOL     OW66696   4.213   2.837   1.522  0.4597 -0.2030  0.7384
21752SOL    HW166697   4.232   2.890   1.599 -4.1358  1.4011  1.1142
21752SOL    HW266698   4.143   2.885   1.477  2.6879 -1.1465 -4.4556
21753SOL     OW66699   2.174   5.183   2.260  0.1420  0.5590 -0.0581
21753SOL    HW166700   2.131   5.115   2.312  0.7144  1.7990  2.1563
21753SOL    HW266701   2.266   5.178   2.286  0.2525  1.9222 -0.1056
21754SOL     OW66702   0.862   7.765  11.923 -0.0617  0.3976  0.0923
21754SOL    HW166703   0.767   7.755  11.925  0.0250 -0.3993  0.4145
21754SOL    HW266704   0.876   7.859  11.914 -0.8914  0.4540 -0.7519
21755SOL     OW66705   5.269   5.652   5.638 -0.2258 -0.1107 -0.0568
21755SOL    HW166706   5.264   5.687   5.727  0.2354  0.2151 -0.1538
21755SOL    HW266707   5.348   5.597   5.638 -1.6899 -2.3423  0.4945
21756SOL     OW66708   4.038   5.264   4.560  0.6183  0.1775  0.8216
21756SOL    HW166709   3.990   5.267   4.643  0.5457 -1.7396  0.9040
21756SOL    HW266710   3.983   5.208   4.504  0.1980  2.1831 -0.8662
21757SOL     OW66711   0.785   0.012   2.891  0.3978 -1.0585  0.1885
21757SOL    HW166712   0.709  -0.040   2.915 -0.6423  0.5621  0.5504
21757SOL    HW266713   0.790   0.080   2.958  1.8333 -0.8033 -0.1520
21758SOL     OW66714   7.385   1.837   7.370 -0.2679 -0.2729 -0.1207
21758SOL    HW166715   7.381   1.815   7.463 -0.0052 -1.3606 -0.3433
21758SOL    HW266716   7.377   1.932   7.367  1.8721  0.0161  1.1605
21759SOL     OW66717   5.925   2.910   0.414 -0.4564  0.3093  0.1073
21759SOL    HW166718   5.919   2.987   0.358 -0.5749  0.0864 -0.1848
21759SOL    HW266719   5.866   2.928   0.487 -0.0306  0.7566  0.3537
21760SOL     OW66720   5.834   2.876   9.446 -0.1713  0.0941  0.4924
21760SOL    HW166721   5.786   2.809   9.495  0.1367  0.4515  1.3036
21760SOL    HW266722   5.784   2.887   9.365 -0.2146 -1.1259  0.3363
21761SOL     OW66723   7.349   6.891   0.332  0.1406 -0.2591  0.2125
21761SOL    HW166724   7.431   6.846   0.312 -0.6692 -0.8440 -2.1761
21761SOL    HW266725   7.369   6.984   0.320  0.1785 -0.4751 -1.8276
21762SOL     OW66726   0.110   4.501   0.408 -0.3792  0.6694 -0.1344
21762SOL    HW166727   0.078   4.544   0.328 -0.4348 -1.4736 -1.3615
21762SOL    HW266728   0.204   4.518   0.407 -0.3730  0.6394 -0.6774
21763SOL     OW66729   5.161   3.439   5.585 -0.6230 -0.4930 -0.0406
21763SOL    HW166730   5.253   3.431   5.560 -0.4932  1.9490 -0.5415
21763SOL    HW266731   5.118   3.367   5.540  0.8655 -1.0450 -0.6540
21764SOL     OW66732   4.000   2.481  12.106 -0.1139 -0.2275  0.3278
21764SOL    HW166733   3.951   2.421  12.049 -1.4033  1.3156 -0.2533
21764SOL    HW266734   4.034   2.549  12.047 -0.6427  0.8700  1.2528
21765SOL     OW66735   0.860   3.286   2.315 -0.1223  0.1915 -0.7136
21765SOL    HW166736   0.897   3.325   2.394 -0.5055  1.7870 -1.2755
21765SOL    HW266737   0.881   3.193   2.322 -0.5781  0.1925  1.4939
21766SOL     OW66738   5.049   1.253   0.765 -0.1935  0.5743 -0.1373
21766SOL    HW166739   5.000   1.233   0.685  1.1019 -1.6889 -0.4345
21766SOL    HW266740   4.985   1.245   0.835 -0.8483  0.3040 -0.7516
21767SOL     OW66741   1.202   1.877   5.160 -0.1186  0.0183  0.0391
21767SOL    HW166742   1.142   1.808   5.188  0.0801  0.1800  0.8875
21767SOL    HW266743   1.267   1.831   5.106  0.7034 -0.6930  1.5694
21768SOL     OW66744   5.557   3.723   9.943  0.3442  0.0868 -0.3482
21768SOL    HW166745   5.492   3.785   9.977 -0.3793  0.1603 -1.8146
21768SOL    HW266746   5.598   3.687  10.022 -2.5388 -1.1376  0.7606
21769SOL     OW66747   0.668   4.145   9.720  0.2964  0.0137 -0.3484
21769SOL    HW166748   0.611   4.120   9.647 -1.0502  0.7996  0.3835
21769SOL    HW266749   0.732   4.074   9.727 -0.0890 -0.4872 -1.7318
21770SOL     OW66750   6.905   0.633   3.183 -0.0278  0.7657  0.2562
21770SOL    HW166751   6.910   0.560   3.245  0.7142 -0.9441 -1.7017
21770SOL    HW266752   6.977   0.691   3.209 -0.1436  0.4318  1.3843
21771SOL     OW66753   1.032   5.731   7.916 -0.3291 -0.0269 -0.2660
21771SOL    HW166754   0.965   5.775   7.969  0.3093 -0.1408  0.6470
21771SOL    HW266755   1.099   5.798   7.903 -0.1073 -0.2443 -0.2428
21772SOL     OW66756   1.517   2.581   6.402 -0.0989  0.0633 -0.6628
21772SOL    HW166757   1.560   2.546   6.324  0.1375  0.0270 -0.5138
21772SOL    HW266758   1.546   2.672   6.407  0.8380 -0.2673  0.0669
21773SOL     OW66759   1.782   3.025   1.727  0.2158 -0.8916  0.5867
21773SOL    HW166760   1.687   3.009   1.721  0.3541 -1.2843 -0.8660
21773SOL    HW266761   1.794   3.113   1.693  0.3211 -0.5899  1.3768
21774SOL     OW66762   3.887   2.493   4.171  0.0565  0.2018  0.1037
21774SOL    HW166763   3.843   2.437   4.236  2.2146 -0.7813  0.8007
21774SOL    HW266764   3.979   2.493   4.197  0.3146  3.5383 -0.2955
21775SOL     OW66765   7.142   6.744  10.685  0.5333  0.2361 -0.1763
21775SOL    HW166766   7.078   6.812  10.705  1.1967  1.0880 -0.8647
21775SOL    HW266767   7.098   6.688  10.622  0.1226  0.2569  0.0893
21776SOL     OW66768   4.189   6.733  10.131  0.0741  0.0335 -0.1062
21776SOL    HW166769   4.280   6.758  10.111  0.5207 -0.0764  1.6145
21776SOL    HW266770   4.136   6.793  10.080  1.1134  0.1184 -1.1352
21777SOL     OW66771   3.769   5.235  10.902 -0.4276 -0.4414 -0.3204
21777SOL    HW166772   3.814   5.231  10.818 -0.1414 -1.9593 -0.1280
21777SOL    HW266773   3.834   5.273  10.962 -0.6361  0.6505 -0.7593
21778SOL     OW66774   5.363   3.002   0.313  0.5966  0.6034 -0.0819
21778SOL    HW166775   5.338   2.999   0.220  0.5562 -2.8864 -0.1050
21778SOL    HW266776   5.288   2.964   0.359  1.6310 -0.1329  1.0558
21779SOL     OW66777   4.941   5.602   7.381 -0.4119  0.0493  0.4101
21779SOL    HW166778   4.980   5.526   7.424 -0.0003  0.5138  0.8712
21779SOL    HW266779   4.849   5.598   7.407 -0.3128 -0.0701  0.7584
21780SOL     OW66780   6.036   3.079  10.556  0.8919 -0.5357 -0.0835
21780SOL    HW166781   6.084   2.996  10.565  1.1463 -0.4852 -0.8504
21780SOL    HW266782   5.949   3.060  10.592  1.1312 -0.9608  0.2856
21781SOL     OW66783   4.117   0.594   7.033  0.1122  0.6181  0.2932
21781SOL    HW166784   4.040   0.605   6.978  0.6685  0.4705 -0.5365
21781SOL    HW266785   4.084   0.603   7.123 -0.9342  0.1135 -0.0244
21782SOL     OW66786   0.736   0.454   1.261 -0.3498  0.2265  0.0038
21782SOL    HW166787   0.718   0.546   1.281 -1.6454  0.3803 -1.6405
21782SOL    HW266788   0.807   0.457   1.196 -0.0448  0.0362  0.3269
21783SOL     OW66789   4.371   0.429   7.625  0.4134  0.1775 -0.2917
21783SOL    HW166790   4.416   0.438   7.541  0.8501  0.5078 -0.0235
21783SOL    HW266791   4.359   0.334   7.635  0.9710  0.0910 -0.4062
21784SOL     OW66792   4.528   6.646   5.213  0.0116 -0.1360  0.2126
21784SOL    HW166793   4.501   6.563   5.251 -1.7529  0.0503 -0.5060
21784SOL    HW266794   4.541   6.704   5.288 -3.2206  0.1760  0.6872
21785SOL     OW66795   2.110   0.038  12.182  0.3725  0.1593 -0.8357
21785SOL    HW166796   2.058  -0.011  12.119  1.2580 -2.0443  0.0329
21785SOL    HW266797   2.189  -0.015  12.194  0.6060  0.9007  1.4629
21786SOL     OW66798   6.961   0.916   3.503  0.2457  0.2879  0.6989
21786SOL    HW166799   6.981   0.899   3.595 -0.9695  0.8179  1.0801
21786SOL    HW266800   6.865   0.918   3.499  0.2727 -0.3660 -0.7067
21787SOL     OW66801   3.895   6.908   2.566 -0.8444  0.1724  0.7079
21787SOL    HW166802   3.883   6.846   2.638 -1.1554 -2.1467 -1.2386
21787SOL    HW266803   3.836   6.878   2.497  2.5905 -0.5203 -2.2317
21788SOL     OW66804   6.056   5.730  11.729 -0.5830  0.3700  0.1476
21788SOL    HW166805   6.080   5.638  11.740  3.2906  0.8662 -2.1831
21788SOL    HW266806   6.060   5.766  11.818  1.4061 -1.0674  0.7357
21789SOL     OW66807   2.411   5.855   5.007 -0.3916 -0.2094 -0.2509
21789SOL    HW166808   2.428   5.942   5.043 -2.2904 -0.3697  1.1564
21789SOL    HW266809   2.473   5.847   4.934  2.2727  0.9098  1.7334
21790SOL     OW66810   4.805   7.691   9.437 -0.2851 -0.2307 -0.2421
21790SOL    HW166811   4.823   7.601   9.412  0.8507 -0.3699  0.9796
21790SOL    HW266812   4.821   7.694   9.531  0.0172  1.3212 -0.3179
21791SOL     OW66813   6.522   1.746   6.918 -0.0612  0.0247 -0.0202
21791SOL    HW166814   6.505   1.654   6.895  0.0924 -0.0981  0.3459
21791SOL    HW266815   6.475   1.796   6.852  0.3893 -0.3224 -0.6111
21792SOL     OW66816   3.567   5.978   7.218 -0.0978  0.3321 -0.5111
21792SOL    HW166817   3.559   6.070   7.191 -2.1581 -0.1580 -1.8198
21792SOL    HW266818   3.585   5.931   7.136 -2.4058 -0.7616 -0.4544
21793SOL     OW66819   5.364   0.672   8.787  0.3375  0.7271 -0.4395
21793SOL    HW166820   5.379   0.761   8.755  1.4104  0.3564 -1.0259
21793SOL    HW266821   5.451   0.641   8.813 -0.1019  0.0244  0.2250
21794SOL     OW66822   0.693   0.350  11.223  0.3296 -0.2600 -0.7562
21794SOL    HW166823   0.615   0.384  11.181 -1.0853  1.8688  3.0971
21794SOL    HW266824   0.753   0.424  11.228  0.7701 -0.6490  0.1727
21795SOL     OW66825   0.881   6.601  11.435 -0.0158 -0.2750  0.2280
21795SOL    HW166826   0.829   6.614  11.515  1.4354  1.8364  0.9089
21795SOL    HW266827   0.965   6.567  11.465  1.1339  2.0560 -0.1516
21796SOL     OW66828   1.458   6.849  11.810 -0.2602 -0.4436  0.1835
21796SOL    HW166829   1.510   6.857  11.890  0.5175 -1.0343 -0.2447
21796SOL    HW266830   1.439   6.756  11.803  0.2863 -0.5062 -0.6769
21797SOL     OW66831   3.817   5.608   4.341 -0.3442 -0.4050  0.2512
21797SOL    HW166832   3.898   5.573   4.303 -0.1273  0.8881 -0.5691
21797SOL    HW266833   3.847   5.673   4.405 -0.6832  0.7215 -0.6800
21798SOL     OW66834   4.785   5.079   2.234  0.0772  0.0650 -0.2127
21798SOL    HW166835   4.756   5.017   2.168  0.2265 -0.1068 -0.1160
21798SOL    HW266836   4.781   5.164   2.190  0.7482 -0.1134 -0.6313
21799SOL     OW66837   2.852   1.764  11.482  0.2949 -0.4987  0.1326
21799SOL    HW166838   2.877   1.674  11.499 -1.5290 -1.1585 -0.4625
21799SOL    HW266839   2.883   1.782  11.393  1.0287 -0.3803  0.4054
21800SOL     OW66840   4.099   5.659   4.885 -0.2769  0.0946  0.4167
21800SOL    HW166841   4.164   5.658   4.815  0.2615  0.4961  0.8971
21800SOL    HW266842   4.116   5.579   4.934 -2.1171 -1.3721 -1.1858
21801SOL     OW66843   7.885   0.496   2.190  0.4653  0.1407  0.3810
21801SOL    HW166844   7.916   0.410   2.162  1.8116  0.7303 -0.0337
21801SOL    HW266845   7.823   0.522   2.122 -0.1191 -0.5861  0.6281
21802SOL     OW66846   6.272   6.079  10.000  0.1375  0.4800  0.3183
21802SOL    HW166847   6.239   6.119   9.919 -0.3046  0.1207  0.3146
21802SOL    HW266848   6.200   6.024  10.030  0.9628 -0.7992 -0.0086
21803SOL     OW66849   7.877   3.164  10.769  0.3874 -0.6893 -0.1882
21803SOL    HW166850   7.848   3.091  10.714  1.5179  0.3149 -2.2539
21803SOL    HW266851   7.958   3.194  10.728  0.1631  1.4888  0.8148
21804SOL     OW66852   6.608   1.275   5.290 -0.1460  0.7124 -0.3448
21804SOL    HW166853   6.518   1.303   5.309  0.1067  0.0991  2.1118
21804SOL    HW266854   6.600   1.181   5.271  0.0439  0.5061  0.5751
21805SOL     OW66855   6.147   7.891  12.141  0.2052 -0.6669 -0.1638
21805SOL    HW166856   6.102   7.827  12.196 -0.0941 -0.6517 -0.3861
21805SOL    HW266857   6.119   7.976  12.173 -0.9916 -0.6585 -1.1477
21806SOL     OW66858   2.021   2.718   8.767  0.4519 -0.2933 -0.6949
21806SOL    HW166859   1.935   2.760   8.775  1.3095  1.7192 -1.5574
21806SOL    HW266860   2.047   2.700   8.858 -1.6874 -2.8425 -0.4483
21807SOL     OW66861   7.974   4.089   6.700  0.3847 -0.5006 -0.0425
21807SOL    HW166862   7.954   4.135   6.619  0.7930 -0.3518 -0.0605
21807SOL    HW266863   8.068   4.070   6.695  1.0350  1.7593  1.4994
21808SOL     OW66864   6.422   3.870   8.113  0.0406 -0.0512  0.2787
21808SOL    HW166865   6.500   3.915   8.145  0.9925 -1.0918 -0.5296
21808SOL    HW266866   6.437   3.778   8.131  1.2371 -0.9418 -4.0453
21809SOL     OW66867   5.990   4.125   7.989  0.5646  0.5250 -0.1572
21809SOL    HW166868   6.013   4.035   7.965  0.5170  0.2295  0.8733
21809SOL    HW266869   6.031   4.138   8.075 -0.7637  0.9475  0.4339
21810SOL     OW66870   3.197   6.474   1.087 -0.1299  0.0885 -0.0865
21810SOL    HW166871   3.210   6.434   1.173 -1.6872  0.4352  0.3349
21810SOL    HW266872   3.261   6.545   1.083 -1.1230  1.1213  1.4723
21811SOL     OW66873   7.620   3.613  11.594 -0.4387  0.4614 -0.2573
21811SOL    HW166874   7.574   3.652  11.520  0.8943  2.3599 -0.1817
21811SOL    HW266875   7.709   3.597  11.561  1.1854  4.2247  1.5539
21812SOL     OW66876   5.394   2.416  10.941 -0.3358  0.2218  0.5322
21812SOL    HW166877   5.319   2.461  10.979  0.6831  1.6431  0.9947
21812SOL    HW266878   5.377   2.415  10.847 -0.5770  1.2526  0.5543
21813SOL     OW66879   0.274   3.308   0.074 -0.0300  0.7651  0.2028
21813SOL    HW166880   0.274   3.231   0.132 -1.3014  0.5337 -0.0729
21813SOL    HW266881   0.206   3.365   0.110 -1.9092 -0.0273 -1.8235
21814SOL     OW66882   3.608   7.025   2.488  0.0434  0.0444 -0.3581
21814SOL    HW166883   3.578   6.987   2.570  2.0506  1.4518  1.1222
21814SOL    HW266884   3.621   6.949   2.430  1.2812 -1.3252  1.5691
21815SOL     OW66885   7.581   1.769  10.680  0.1335  0.2692  0.7558
21815SOL    HW166886   7.548   1.857  10.659  0.8979  0.2603 -0.5600
21815SOL    HW266887   7.524   1.710  10.630 -0.0891  0.0430  1.2751
21816SOL     OW66888   6.049   4.688   6.064 -0.0087 -0.6861 -0.2248
21816SOL    HW166889   6.083   4.645   5.986 -1.6631  0.4532 -1.6469
21816SOL    HW266890   6.028   4.617   6.124  1.2771 -1.5785 -0.7905
21817SOL     OW66891   7.281   7.614   6.483  0.1743 -0.0304 -0.7599
21817SOL    HW166892   7.350   7.569   6.433 -1.9674 -3.4839 -0.9434
21817SOL    HW266893   7.202   7.602   6.430 -1.3917 -0.1870  1.4767
21818SOL     OW66894   7.600   3.932  11.419  0.7877  0.3757  0.1833
21818SOL    HW166895   7.581   3.839  11.404  0.5330 -0.2855  3.6992
21818SOL    HW266896   7.525   3.978  11.381  1.8324 -0.5458 -3.3887
21819SOL     OW66897   3.187   5.261   1.446 -0.2686  0.5016 -0.1153
21819SOL    HW166898   3.221   5.343   1.481 -1.2128  1.3127 -1.0226
21819SOL    HW266899   3.092   5.276   1.440 -0.3395 -0.2989 -1.1920
21820SOL     OW66900   5.924   1.325   8.977  0.1211  0.0282  0.2466
21820SOL    HW166901   5.910   1.412   8.939 -1.5796 -0.4003 -0.1628
21820SOL    HW266902   5.992   1.286   8.923 -0.4354  0.4078 -0.7562
21821SOL     OW66903   1.417   3.312  11.050 -0.2083  0.2484  0.3246
21821SOL    HW166904   1.446   3.321  11.141 -1.3965  0.4772  0.6951
21821SOL    HW266905   1.383   3.399  11.028  0.0307  0.1772 -0.3223
21822SOL     OW66906   0.127   2.279  11.785 -0.8258  0.5280 -0.2201
21822SOL    HW166907   0.033   2.292  11.789 -1.0852 -1.2189  0.4173
21822SOL    HW266908   0.140   2.213  11.717 -0.4402 -1.6648  1.8297
21823SOL     OW66909   6.027   1.968   4.808 -0.3424 -0.1874  0.3399
21823SOL    HW166910   6.044   1.901   4.742 -0.3752 -0.0426  0.1841
21823SOL    HW266911   5.932   1.983   4.802 -0.3733 -0.2953  0.5373
21824SOL     OW66912   2.655   4.501   0.155 -0.4594 -0.2296  0.3764
21824SOL    HW166913   2.593   4.520   0.085  0.8496  0.3121 -0.6897
21824SOL    HW266914   2.741   4.516   0.115  0.4437 -2.4890  1.3094
21825SOL     OW66915   4.850   4.272   2.537 -0.1924  0.0157  0.3718
21825SOL    HW166916   4.768   4.292   2.491 -0.1549  0.9487  0.6904
21825SOL    HW266917   4.891   4.204   2.484  0.6839  2.2453 -1.9895
21826SOL     OW66918   2.954   4.919   5.420  0.5381  0.5614 -0.4367
21826SOL    HW166919   2.966   4.851   5.354 -2.2278  1.1753 -1.7405
21826SOL    HW266920   2.941   4.871   5.502  0.7237 -0.3848 -0.9503
21827SOL     OW66921   4.890   6.212   1.081  0.9474  0.0236 -0.1511
21827SOL    HW166922   4.897   6.117   1.069  0.0802 -0.0238 -0.4326
21827SOL    HW266923   4.879   6.246   0.992  2.5848  0.5364 -0.1826
21828SOL     OW66924   4.546   6.364   0.430 -0.5560 -0.1551  0.2761
21828SOL    HW166925   4.497   6.350   0.349  0.4426 -1.5867 -0.1042
21828SOL    HW266926   4.507   6.303   0.493  0.6185 -1.2214  0.0023
21829SOL     OW66927   6.210   7.042   5.371 -0.1020 -0.0906  0.4888
21829SOL    HW166928   6.253   6.961   5.397  2.1970  0.9985  0.3139
21829SOL    HW266929   6.116   7.023   5.379  0.3896 -2.2558  1.9178
21830SOL     OW66930   3.744   0.877   4.560  1.0306  0.5201 -0.1389
21830SOL    HW166931   3.675   0.911   4.503 -0.6392 -0.2041  1.3499
21830SOL    HW266932   3.768   0.951   4.616 -0.1262  0.2067  0.7940
21831SOL     OW66933   2.023   4.191   7.739  0.0944 -0.0183 -0.3353
21831SOL    HW166934   2.082   4.116   7.744  0.7289  0.5480  2.9545
21831SOL    HW266935   1.935   4.153   7.740  0.4020 -0.7480 -0.7976
21832SOL     OW66936   6.700   1.847   9.589 -0.6673  0.4960 -0.0396
21832SOL    HW166937   6.750   1.884   9.517  1.2481 -0.6570  0.6132
21832SOL    HW266938   6.765   1.830   9.657 -2.1926  0.2574  1.4478
21833SOL     OW66939   6.188   5.517   1.586  0.6494  0.0007 -0.2559
21833SOL    HW166940   6.215   5.476   1.504  0.8415 -3.6961  1.4797
21833SOL    HW266941   6.267   5.558   1.621  0.8770  0.4074 -1.2235
21834SOL     OW66942   0.115   0.609   7.192 -0.4551  0.0357  0.1920
21834SOL    HW166943   0.135   0.694   7.152  0.1231  0.3774  1.1754
21834SOL    HW266944   0.032   0.625   7.239 -0.5546 -0.0585  0.0499
21835SOL     OW66945   6.414   1.866  11.387  0.3680 -0.5776 -0.1945
21835SOL    HW166946   6.351   1.912  11.332 -0.3050  0.8548  1.6503
21835SOL    HW266947   6.364   1.792  11.422 -0.8202  1.1837  2.1730
21836SOL     OW66948   3.513   0.229  11.252 -0.1572  0.1778 -0.1755
21836SOL    HW166949   3.598   0.198  11.221  0.1728  1.5878 -0.7738
21836SOL    HW266950   3.512   0.322  11.229 -1.1118  0.6161  1.4616
21837SOL     OW66951   1.854   5.761   1.190  0.4519  0.3014  0.4561
21837SOL    HW166952   1.910   5.771   1.268  1.4403 -0.3753 -0.1390
21837SOL    HW266953   1.882   5.678   1.152 -0.8677  0.0357  0.0383
21838SOL     OW66954   4.466   2.638   4.180 -0.0959 -0.0845 -0.4088
21838SOL    HW166955   4.561   2.640   4.189 -0.0338 -3.5675  1.3853
21838SOL    HW266956   4.434   2.685   4.256  0.1391  1.3222 -1.1517
21839SOL     OW66957   4.033   5.410   7.166 -0.0693  0.2004  0.4511
21839SOL    HW166958   4.006   5.459   7.244 -1.4073  0.4517 -0.1411
21839SOL    HW266959   3.962   5.424   7.103  0.7932 -0.3321 -0.6755
21840SOL     OW66960   3.536   6.333   1.109  0.1130 -0.1560 -0.5105
21840SOL    HW166961   3.509   6.409   1.160  1.0121 -0.3316  0.2663
21840SOL    HW266962   3.517   6.356   1.018 -0.0218  0.8255 -0.2438
21841SOL     OW66963   2.337   7.536   4.488 -0.1395 -0.2541 -0.0228
21841SOL    HW166964   2.383   7.531   4.405  0.5506 -1.7401  0.4048
21841SOL    HW266965   2.296   7.450   4.498 -0.8450  0.1610  0.8268
21842SOL     OW66966   0.927   5.145   5.152  0.7586 -0.1868  0.0911
21842SOL    HW166967   0.950   5.090   5.228 -0.6635 -1.6751 -0.4891
21842SOL    HW266968   0.843   5.184   5.176  0.4468 -0.4307 -0.5744
21843SOL     OW66969   4.252   1.050   0.526 -0.2725  0.2252  0.2165
21843SOL    HW166970   4.216   1.110   0.592 -0.2490  1.4595 -0.8509
21843SOL    HW266971   4.193   1.058   0.451 -0.5938 -1.5471  0.2383
21844SOL     OW66972   3.923   3.275   5.880  0.2213  0.3954  0.2913
21844SOL    HW166973   3.903   3.199   5.826  0.3576  1.3707 -1.1900
21844SOL    HW266974   3.838   3.302   5.916  0.1594 -0.3797  0.7610
21845SOL     OW66975   3.852   4.610   7.834  0.4385 -0.1162  0.1024
21845SOL    HW166976   3.767   4.576   7.863 -0.1689 -0.3786 -1.8325
21845SOL    HW266977   3.913   4.583   7.903 -0.9497 -0.2787  1.3381
21846SOL     OW66978   7.448   0.039   4.271 -0.4890 -0.1065 -0.6581
21846SOL    HW166979   7.531   0.074   4.302 -0.1853  0.8970 -2.4428
21846SOL    HW266980   7.465   0.015   4.180 -2.0759 -0.1331 -0.9792
21847SOL     OW66981   3.758   7.731   6.859 -0.4944  0.1734 -0.3491
21847SOL    HW166982   3.834   7.690   6.818 -1.2830  0.6529 -2.4057
21847SOL    HW266983   3.706   7.763   6.786 -3.1595 -0.9625  0.9114
21848SOL     OW66984   5.196   6.422  10.167 -0.0009 -0.0637  0.5895
21848SOL    HW166985   5.169   6.330  10.165 -0.2324  0.0100  0.3148
21848SOL    HW266986   5.288   6.419  10.195 -0.2884 -0.3061  1.5289
21849SOL     OW66987   3.164   1.124   4.056  0.2550  0.3191 -0.2502
21849SOL    HW166988   3.112   1.116   3.975  1.4500 -2.2381 -0.8622
21849SOL    HW266989   3.222   1.198   4.040  1.1349 -0.7149 -2.2008
21850SOL     OW66990   3.211   3.353   3.053  0.4755 -0.6081 -0.0255
21850SOL    HW166991   3.206   3.282   2.990  1.7190 -1.0222  0.3253
21850SOL    HW266992   3.127   3.349   3.100 -0.7607  0.1107 -2.0093
21851SOL     OW66993   7.066   0.345   9.677  0.1106 -0.7298  0.3215
21851SOL    HW166994   7.059   0.254   9.706  1.7013 -1.2676 -0.8475
21851SOL    HW266995   7.109   0.390   9.749 -1.4126 -0.6750  1.2509
21852SOL     OW66996   2.713   2.210  10.888  0.3600 -0.1473 -0.2213
21852SOL    HW166997   2.774   2.283  10.902  0.5599  0.0355 -1.9010
21852SOL    HW266998   2.642   2.227  10.949  2.7191 -1.3096  3.1683
21853SOL     OW66999   4.293   2.988   8.141 -0.2257 -0.2238 -0.7864
21853SOL    HW167000   4.326   2.929   8.073  0.3853  1.1230 -1.7275
21853SOL    HW267001   4.318   2.947   8.224  0.1449 -1.2811 -1.4137
21854SOL     OW67002   7.117   7.427  11.932 -0.2558 -0.0940 -0.1057
21854SOL    HW167003   7.164   7.480  11.868  0.0666 -0.3274 -0.0656
21854SOL    HW267004   7.114   7.481  12.011  0.3973 -0.2798  0.0490
21855SOL     OW67005   5.031   6.588   0.295 -0.0060 -0.2897 -0.1928
21855SOL    HW167006   4.974   6.548   0.361  0.0514  0.3742  0.2676
21855SOL    HW267007   5.039   6.521   0.227  1.3079 -1.6812  1.2270
21856SOL     OW67008   6.202   1.733   8.835 -0.3540 -0.2805 -0.1281
21856SOL    HW167009   6.293   1.703   8.830 -0.3111 -0.6600  1.9607
21856SOL    HW267010   6.162   1.678   8.902 -1.6049  1.1298  0.3504
21857SOL     OW67011   6.287   5.431   9.059 -0.2547  0.2294  0.6268
21857SOL    HW167012   6.206   5.455   9.013 -0.3642 -2.0352 -0.5027
21857SOL    HW267013   6.309   5.345   9.025  1.6778  0.0107  2.2525
21858SOL     OW67014   5.050   2.044   7.104 -0.1918  0.1250  0.2551
21858SOL    HW167015   5.071   2.000   7.021  0.1112 -1.1331  0.9711
21858SOL    HW267016   5.126   2.027   7.160 -0.8741  0.0124  1.1649
21859SOL     OW67017   7.390   2.102   4.483  0.7199 -0.2204  0.1199
21859SOL    HW167018   7.318   2.158   4.453  1.1006  0.0230 -0.3610
21859SOL    HW267019   7.351   2.015   4.494  0.1439  0.1133  0.7894
21860SOL     OW67020   3.382   2.641   9.184  0.8426  0.3046  0.2812
21860SOL    HW167021   3.320   2.713   9.167  1.2986  1.1547  1.9676
21860SOL    HW267022   3.389   2.595   9.100 -2.7355 -0.3688  0.1883
21861SOL     OW67023   5.072   5.863  11.227 -0.5364 -0.2116 -0.4055
21861SOL    HW167024   5.084   5.849  11.321 -0.5640  0.9930 -0.2083
21861SOL    HW267025   4.989   5.910  11.220  0.3360  1.3208 -0.8639
21862SOL     OW67026   4.286   0.122   0.619  0.0605  0.7290 -0.3508
21862SOL    HW167027   4.375   0.151   0.598 -0.2421  0.9202 -1.4166
21862SOL    HW267028   4.290   0.027   0.618  0.5259  0.7146  0.8596
21863SOL     OW67029   0.527   2.032   5.738 -0.1629  0.5220 -0.3627
21863SOL    HW167030   0.503   1.976   5.665  0.0281 -0.0197 -0.0125
21863SOL    HW267031   0.445   2.045   5.786 -0.3509  1.1323 -0.8417
21864SOL     OW67032   5.006   1.602   1.871  0.0157 -0.2092  0.6816
21864SOL    HW167033   4.930   1.618   1.815  0.1535 -0.0178  0.5497
21864SOL    HW267034   5.082   1.621   1.816  0.1434  0.5328  1.1061
21865SOL     OW67035   0.626   2.820   4.085 -0.0215 -0.4598  0.0333
21865SOL    HW167036   0.670   2.803   4.002  0.0795 -0.2029  0.0325
21865SOL    HW267037   0.689   2.791   4.152 -0.6782 -2.0226  0.0071
21866SOL     OW67038   4.267   2.315   7.567 -0.0901 -0.1697 -0.5519
21866SOL    HW167039   4.343   2.373   7.569  1.0652 -1.4948 -2.3532
21866SOL    HW267040   4.197   2.368   7.528  0.0592  0.8738  0.5461
21867SOL     OW67041   5.129   4.339   2.883 -0.1190  0.2993  0.0515
21867SOL    HW167042   5.114   4.296   2.967  0.9009  0.4395  0.3211
21867SOL    HW267043   5.059   4.404   2.877 -1.0493 -0.6744  0.1177
21868SOL     OW67044   5.680   4.079  12.412  0.4974 -0.9534 -0.0464
21868SOL    HW167045   5.727   4.158  12.440 -0.4446 -0.3637 -0.1004
21868SOL    HW267046   5.638   4.105  12.330 -2.7626 -0.3170  1.6647
21869SOL     OW67047   2.596   3.208  10.245  0.0346 -0.6874  0.7412
21869SOL    HW167048   2.690   3.203  10.264  0.0127 -0.5632  0.8891
21869SOL    HW267049   2.563   3.274  10.306  0.1054  0.3603 -0.3137
21870SOL     OW67050   5.131   0.817   0.350 -0.0360  0.1526  0.2515
21870SOL    HW167051   5.050   0.835   0.397 -0.4207 -1.4390  0.2453
21870SOL    HW267052   5.107   0.824   0.257 -0.4034 -1.1229  0.2276
21871SOL     OW67053   6.386   6.650   3.239 -0.3650 -0.5393  0.1823
21871SOL    HW167054   6.348   6.689   3.318 -0.6081 -1.1560  0.3760
21871SOL    HW267055   6.391   6.556   3.259  0.5739 -0.5576 -0.1300
21872SOL     OW67056   2.973   2.568   6.586  0.6305 -0.3214 -0.5513
21872SOL    HW167057   2.885   2.530   6.598  0.5293 -0.4234 -1.5368
21872SOL    HW267058   2.967   2.616   6.504  0.2008  3.4945  1.5063
21873SOL     OW67059   1.679   2.237   6.131 -0.0843 -0.2405 -0.1905
21873SOL    HW167060   1.696   2.236   6.037  1.0053  1.7758 -0.0810
21873SOL    HW267061   1.585   2.255   6.139 -0.0372  0.3488 -0.9006
21874SOL     OW67062   1.952   1.249   5.843  0.0153  0.0293 -0.2055
21874SOL    HW167063   2.024   1.299   5.804  0.0387 -0.7880 -1.2827
21874SOL    HW267064   1.943   1.173   5.785  1.0458 -2.0917  2.2188
21875SOL     OW67065   0.929   7.966   3.354 -0.4274 -0.6131  0.2016
21875SOL    HW167066   0.926   7.942   3.447  0.9116  0.5429  0.5788
21875SOL    HW267067   0.973   8.050   3.353  2.0704 -1.8239 -1.6967
21876SOL     OW67068   7.247   4.904   6.750 -0.0328  0.0525 -0.5522
21876SOL    HW167069   7.191   4.899   6.828  0.8567 -1.2948  0.0408
21876SOL    HW267070   7.244   4.995   6.724 -0.8427  0.4127  0.7038
21877SOL     OW67071   7.953   3.503   4.037 -0.5343 -0.2166 -0.9774
21877SOL    HW167072   7.975   3.419   3.996  0.1860  0.7431 -2.6457
21877SOL    HW267073   8.037   3.539   4.065 -0.9379 -0.4688  0.6519
21878SOL     OW67074   0.032   3.844   9.868 -0.2666 -0.2704  0.4675
21878SOL    HW167075   0.058   3.894   9.945 -0.9631  0.0326  0.5120
21878SOL    HW267076   0.110   3.842   9.813  0.6522 -1.5621  1.7294
21879SOL     OW67077   0.859   6.992   1.730  0.3625 -0.4116 -0.5488
21879SOL    HW167078   0.817   6.915   1.693  2.3944 -1.5418 -0.6645
21879SOL    HW267079   0.868   7.052   1.656 -3.0418  0.9215 -0.0712
21880SOL     OW67080   6.795   3.616   6.374 -0.5409 -0.4057  0.4682
21880SOL    HW167081   6.833   3.617   6.462  1.4975 -0.3231 -0.3478
21880SOL    HW267082   6.851   3.674   6.323  0.9027 -3.5211 -1.8366
21881SOL     OW67083   6.711   1.702   2.831  0.0155  0.4174 -0.0763
21881SOL    HW167084   6.730   1.755   2.754 -0.0122  0.8517  0.2151
21881SOL    HW267085   6.794   1.659   2.852  0.1952  0.8253  0.0554
21882SOL     OW67086   1.527   6.964   5.921 -0.5448 -0.0833  0.6356
21882SOL    HW167087   1.561   6.894   5.864 -1.8334 -0.1678 -0.0578
21882SOL    HW267088   1.605   7.001   5.962  0.3239 -0.7045 -0.4072
21883SOL     OW67089   4.687   5.426   5.453  0.7318  0.1610  0.2662
21883SOL    HW167090   4.747   5.469   5.392  2.7851 -0.4001  1.7753
21883SOL    HW267091   4.639   5.498   5.494  0.3402  0.6245 -0.9517
21884SOL     OW67092   5.120   1.235   4.484  0.3282  0.0782 -0.0706
21884SOL    HW167093   5.159   1.322   4.494  0.2513  0.2383 -1.1462
21884SOL    HW267094   5.026   1.251   4.477  0.2929 -0.1097 -0.0468
21885SOL     OW67095   1.922   3.119   4.058 -0.2041 -0.0333 -0.2117
21885SOL    HW167096   1.919   3.141   4.151 -2.2022 -2.5033  0.4102
21885SOL    HW267097   1.884   3.196   4.015  0.2361  0.9292  1.0408
21886SOL     OW67098   6.867   0.885  10.100  0.4291 -0.1891 -0.4596
21886SOL    HW167099   6.937   0.821  10.114  0.7874  0.1123 -0.8357
21886SOL    HW267100   6.906   0.951  10.043  0.1837  0.5825  0.2504
21887SOL     OW67101   6.556   5.005   4.785 -0.1944 -0.5243  0.3732
21887SOL    HW167102   6.474   5.037   4.824 -0.8600  0.7014 -1.8722
21887SOL    HW267103   6.587   5.078   4.732  2.7000 -0.7543  1.5615
21888SOL     OW67104   4.673   1.516   2.046 -0.3242 -0.2123 -0.6957
21888SOL    HW167105   4.660   1.443   1.986  1.1202  0.1317 -1.4922
21888SOL    HW267106   4.665   1.478   2.133  0.4122 -1.3442 -1.0945
21889SOL     OW67107   7.894   3.815   6.381 -0.1029 -0.4093 -0.3465
21889SOL    HW167108   7.954   3.811   6.307  0.0031  3.4000 -0.6928
21889SOL    HW267109   7.936   3.762   6.449  3.1965  1.1402 -0.9558
21890SOL     OW67110   2.547   3.166   6.573 -0.0629 -0.3413 -0.1000
21890SOL    HW167111   2.545   3.261   6.589  1.3399 -0.6412  2.4827
21890SOL    HW267112   2.461   3.135   6.600  0.5333 -0.1291  2.2623
21891SOL     OW67113   0.854   1.902   6.662  0.1822 -0.1290 -0.1807
21891SOL    HW167114   0.770   1.945   6.647  1.3900  1.9507 -1.5190
21891SOL    HW267115   0.842   1.853   6.744 -2.5384 -0.5913 -0.7730
21892SOL     OW67116   7.640   4.570   6.418  0.2740 -0.5824 -0.6318
21892SOL    HW167117   7.547   4.596   6.422  0.5822  0.4527  0.7441
21892SOL    HW267118   7.638   4.479   6.390 -1.1355 -0.4023 -1.2020
21893SOL     OW67119   6.747   1.295   3.068 -0.1150 -0.3326  0.2683
21893SOL    HW167120   6.781   1.224   3.123  1.8992 -0.3302 -0.8884
21893SOL    HW267121   6.792   1.373   3.098  0.6341 -0.2439 -1.0149
21894SOL     OW67122   0.604   5.809   6.338  0.3598  0.3977 -0.0811
21894SOL    HW167123   0.695   5.821   6.364  1.1047  1.6034 -2.8329
21894SOL    HW267124   0.584   5.887   6.286 -1.7014 -0.6578 -0.9907
21895SOL     OW67125   6.768   7.463   6.928  0.3218  0.2310 -0.4060
21895SOL    HW167126   6.697   7.510   6.883  0.2427  1.0465  0.5331
21895SOL    HW267127   6.823   7.532   6.965  1.3617 -0.4019 -0.7337
21896SOL     OW67128   6.364   4.796   8.492 -0.1053  0.0958  0.9153
21896SOL    HW167129   6.352   4.882   8.453  0.0590 -0.1894  0.2221
21896SOL    HW267130   6.282   4.778   8.538 -0.8690 -0.1618 -0.4937
21897SOL     OW67131   0.426   2.088   9.688  0.0256 -0.0750  0.7924
21897SOL    HW167132   0.477   2.169   9.681 -0.6724  0.3345  0.3530
21897SOL    HW267133   0.391   2.075   9.600  0.4694 -1.0890  0.7534
21898SOL     OW67134   1.727   2.635   5.499 -0.7350 -0.7114  0.0769
21898SOL    HW167135   1.800   2.656   5.441 -2.1184 -0.2338 -1.5768
21898SOL    HW267136   1.750   2.550   5.537 -0.9028 -2.3881 -3.2335
21899SOL     OW67137   3.100   0.267   5.367  0.4822  0.3010 -0.0814
21899SOL    HW167138   3.171   0.209   5.396  1.1012  0.9177 -0.3560
21899SOL    HW267139   3.101   0.339   5.429 -1.2123 -0.6351  1.1247
21900SOL     OW67140   5.850   6.851   0.195 -0.3023 -0.4727  0.1341
21900SOL    HW167141   5.933   6.861   0.242 -1.2773 -0.3237  1.9142
21900SOL    HW267142   5.875   6.824   0.107  1.6091 -1.3227  0.8919
21901SOL     OW67143   2.490   5.822  10.570 -0.4279  0.5746 -0.6397
21901SOL    HW167144   2.441   5.863  10.642  2.5231 -2.0078  3.2608
21901SOL    HW267145   2.457   5.732  10.568  2.1678 -0.4844  0.3468
21902SOL     OW67146   5.908   5.007   8.735 -0.1897 -0.1827 -0.2964
21902SOL    HW167147   5.826   4.973   8.770 -0.0725  0.6735  0.9033
21902SOL    HW267148   5.918   4.966   8.650 -1.4632 -0.9065 -0.1100
21903SOL     OW67149   1.445   0.817   3.117 -0.1955  0.1000  0.4193
21903SOL    HW167150   1.406   0.834   3.203 -0.0457  2.4576  0.0924
21903SOL    HW267151   1.412   0.731   3.092 -1.2607 -0.0855  2.2879
21904SOL     OW67152   2.756   1.632   4.755  0.3553  0.1109 -0.1067
21904SOL    HW167153   2.761   1.616   4.661  2.0090 -1.4412  0.1885
21904SOL    HW267154   2.768   1.545   4.795  0.0139  0.7741  1.5473
21905SOL     OW67155   5.001   2.653  11.621 -0.1488  0.0654  0.1585
21905SOL    HW167156   5.059   2.698  11.683  0.6489 -1.0865  0.2903
21905SOL    HW267157   5.015   2.560  11.639 -0.1542 -0.2866 -1.5283
21906SOL     OW67158   1.991   5.014   3.389 -0.1598 -0.1052  0.6169
21906SOL    HW167159   1.983   5.024   3.484 -0.1718  1.3708  0.4895
21906SOL    HW267160   1.905   5.039   3.356 -0.6252 -1.9906  0.2604
21907SOL     OW67161   4.384   0.168   1.186  0.5106  0.4088 -0.1389
21907SOL    HW167162   4.403   0.091   1.132 -3.0787  0.5370 -1.9158
21907SOL    HW267163   4.430   0.240   1.143  0.7249 -0.1314 -0.8242
21908SOL     OW67164   6.761   1.914   5.100 -0.2703  0.1508  0.2250
21908SOL    HW167165   6.701   1.879   5.166 -0.2064 -1.2619 -0.4445
21908SOL    HW267166   6.746   1.861   5.022  1.2985  0.2835 -0.2038
21909SOL     OW67167   6.516   3.503   4.639 -0.1742 -0.2263 -0.1118
21909SOL    HW167168   6.536   3.410   4.632  0.2107 -0.1258 -0.3835
21909SOL    HW267169   6.476   3.527   4.555  1.4309  0.2524 -0.7756
21910SOL     OW67170   5.180   5.707   4.144  0.0117 -0.0376  0.3740
21910SOL    HW167171   5.172   5.793   4.184  0.8685  0.1633  0.1531
21910SOL    HW267172   5.273   5.701   4.121 -0.1760 -0.7434 -0.2241
21911SOL     OW67173   6.592   3.700   4.823  0.1240  0.9865 -0.0299
21911SOL    HW167174   6.547   3.630   4.775  1.7940 -1.3677  1.6250
21911SOL    HW267175   6.530   3.726   4.892 -0.4349  1.0612 -0.5475
21912SOL     OW67176   3.422   1.009   4.043  0.0842  0.3322  0.4891
21912SOL    HW167177   3.337   1.053   4.035  0.9314  2.0857  0.6668
21912SOL    HW267178   3.440   0.975   3.955 -1.3555 -1.2057  0.7414
21913SOL     OW67179   2.919   3.824   9.139 -0.3437  0.1639  0.1440
21913SOL    HW167180   2.936   3.815   9.233  0.8814  1.5513  0.0849
21913SOL    HW267181   2.861   3.899   9.131 -1.4154 -0.6695 -0.1487
21914SOL     OW67182   5.455   3.325  11.391 -0.1348  0.4385  0.8783
21914SOL    HW167183   5.401   3.258  11.348 -0.1607  2.0925 -1.9203
21914SOL    HW267184   5.436   3.315  11.484 -0.4289 -3.1446  0.5872
21915SOL     OW67185   3.146   7.415   2.139  0.1882 -0.3529  0.3989
21915SOL    HW167186   3.143   7.380   2.228 -0.6598  3.0918  1.8806
21915SOL    HW267187   3.228   7.464   2.135  0.5510 -1.0262 -1.0035
21916SOL     OW67188   0.851   1.824   5.536  0.3816 -0.7823  0.1712
21916SOL    HW167189   0.924   1.822   5.598  1.5536  3.1485 -0.7732
21916SOL    HW267190   0.886   1.781   5.458  0.2464 -2.3627  0.9488
21917SOL     OW67191   2.492   6.200   7.083 -0.1686 -0.0377 -0.3514
21917SOL    HW167192   2.451   6.115   7.071  0.9047 -0.8501  1.4018
21917SOL    HW267193   2.583   6.188   7.056  0.3618  0.1161  1.2680
21918SOL     OW67194   0.831   7.331   0.081 -0.4217 -0.0637 -0.6633
21918SOL    HW167195   0.839   7.317   0.175 -0.5348 -0.7843 -0.7543
21918SOL    HW267196   0.738   7.316   0.063 -0.3505 -0.2002 -0.9269
21919SOL     OW67197   2.273   0.082   6.318 -0.4012 -0.5999 -0.0232
21919SOL    HW167198   2.271   0.168   6.359 -1.2167 -1.3713  1.6490
21919SOL    HW267199   2.205   0.086   6.250 -1.3457 -0.3298  0.9189
21920SOL     OW67200   6.136   2.920   0.582  0.3710  0.3858 -0.4944
21920SOL    HW167201   6.062   2.906   0.522  0.4159 -0.7573 -0.3032
21920SOL    HW267202   6.095   2.944   0.665  0.2576  0.7300 -0.6478
21921SOL     OW67203   3.519   6.701   2.018 -0.7948 -0.4760 -0.0431
21921SOL    HW167204   3.502   6.790   1.988  0.6389 -0.5066 -1.0930
21921SOL    HW267205   3.614   6.692   2.011 -0.8419 -1.8410  0.7785
21922SOL     OW67206   4.574   6.368   4.326  0.2580  0.3918  0.1510
21922SOL    HW167207   4.638   6.327   4.269 -0.3328 -0.2693 -0.0461
21922SOL    HW267208   4.580   6.319   4.408  1.0273  1.2660  0.6382
21923SOL     OW67209   4.319   1.095   2.542 -0.1919 -0.6800  0.4286
21923SOL    HW167210   4.359   1.114   2.627  0.4801 -2.9579  0.6960
21923SOL    HW267211   4.372   1.144   2.479  0.7599 -0.7882  1.1233
21924SOL     OW67212   2.965   0.157   3.200 -0.0095 -0.3401  0.2876
21924SOL    HW167213   2.872   0.172   3.217 -0.5670 -2.2451 -0.6639
21924SOL    HW267214   2.999   0.241   3.172 -2.0443 -0.0685 -1.6628
21925SOL     OW67215   2.356   5.353   2.688  0.2966 -0.3009  0.1323
21925SOL    HW167216   2.335   5.422   2.751 -0.6952 -2.2434  2.0457
21925SOL    HW267217   2.275   5.304   2.678  1.0269 -1.3446 -0.9911
21926SOL     OW67218   7.664   3.240   4.302 -0.0931 -0.3574 -0.2859
21926SOL    HW167219   7.719   3.318   4.303  0.0129 -0.4321 -0.2290
21926SOL    HW267220   7.652   3.221   4.208  1.9722 -1.7142 -0.3549
21927SOL     OW67221   7.787   7.956   5.581 -0.0745  0.7145  0.5350
21927SOL    HW167222   7.787   7.989   5.491  1.8143 -1.0045 -0.1810
21927SOL    HW267223   7.734   8.019   5.630  0.4492  2.7605 -1.3743
21928SOL     OW67224   7.864   3.970  11.369  0.1111  0.0279  0.9272
21928SOL    HW167225   7.823   4.048  11.331  0.7508 -0.4109 -0.7622
21928SOL    HW267226   7.793   3.928  11.418 -0.5415  1.0626  0.9063
21929SOL     OW67227   7.254   0.027   2.082  0.0702  0.2117 -0.2030
21929SOL    HW167228   7.293  -0.035   2.021 -0.3724  0.4700 -0.7618
21929SOL    HW267229   7.303   0.015   2.163 -0.2810 -1.1488 -0.1707
21930SOL     OW67230   4.780   2.218   5.234  0.2379  0.0110 -0.0810
21930SOL    HW167231   4.845   2.271   5.280 -0.0368  0.4851 -0.2375
21930SOL    HW267232   4.804   2.127   5.255  1.9581  0.0972 -1.4695
21931SOL     OW67233   0.751   4.497   7.176  0.4247  0.2563 -0.2794
21931SOL    HW167234   0.769   4.412   7.217  0.8625 -1.3337 -3.4277
21931SOL    HW267235   0.838   4.530   7.152  0.1556  0.9024 -0.3765
21932SOL     OW67236   6.195   1.515   7.281  0.3164 -0.0182 -0.2856
21932SOL    HW167237   6.227   1.472   7.202  0.4063  0.7479 -0.6768
21932SOL    HW267238   6.256   1.588   7.295 -0.9366  1.1696 -0.7534
21933SOL     OW67239   0.294   1.125  11.293  0.5508  0.7011  0.0389
21933SOL    HW167240   0.291   1.178  11.214  1.0672  0.3481 -0.2220
21933SOL    HW267241   0.387   1.113  11.311  0.8936 -5.0612 -3.3081
21934SOL     OW67242   6.529   5.535   7.001  0.3162 -0.3569  0.0067
21934SOL    HW167243   6.543   5.459   6.945  0.0764  0.3973 -1.1075
21934SOL    HW267244   6.493   5.499   7.082 -0.6409 -1.3491 -0.8386
21935SOL     OW67245   4.951   1.288   9.147 -0.6980  0.0025 -0.1460
21935SOL    HW167246   4.979   1.321   9.232 -0.5543  0.8450 -0.5130
21935SOL    HW267247   5.013   1.325   9.085 -2.2908  1.5242 -0.9153
21936SOL     OW67248   6.099   3.002   7.590  0.3026  0.3665  0.9650
21936SOL    HW167249   6.188   3.031   7.571  0.4153  0.2618  1.3340
21936SOL    HW267250   6.043   3.062   7.540  0.5600  0.8182  1.2081
21937SOL     OW67251   5.995   3.823   1.323 -0.5850  0.5154 -0.4224
21937SOL    HW167252   6.017   3.753   1.262 -0.0252  0.1015  0.2338
21937SOL    HW267253   5.980   3.899   1.268  1.1593  0.4807 -1.0217
21938SOL     OW67254   3.656   6.949   2.808  0.3446 -0.0335  0.6773
21938SOL    HW167255   3.726   6.910   2.860 -0.9796 -0.4390  2.2191
21938SOL    HW267256   3.607   6.874   2.773 -0.0925  0.2399  0.6951
21939SOL     OW67257   7.053   0.159   8.435  0.4937 -0.1669  0.2602
21939SOL    HW167258   6.981   0.158   8.372 -0.3674  0.3133  1.2021
21939SOL    HW267259   7.121   0.105   8.395  0.2147  0.6122 -1.3322
21940SOL     OW67260   1.220   1.076   7.755 -0.3523  0.3949 -0.1432
21940SOL    HW167261   1.243   0.989   7.722 -1.3074  0.0439  0.0812
21940SOL    HW267262   1.180   1.059   7.840  0.6960  1.1751  0.5276
21941SOL     OW67263   7.968   6.891   5.576  0.2333  0.1188  0.3880
21941SOL    HW167264   7.947   6.916   5.486  0.1050  0.6121  0.5501
21941SOL    HW267265   8.051   6.934   5.594  0.2552  0.0265  0.5086
21942SOL     OW67266   2.813   3.097  11.484 -0.0348 -0.2144 -0.2273
21942SOL    HW167267   2.811   3.083  11.579  1.6118 -0.5896 -0.2094
21942SOL    HW267268   2.737   3.152  11.467 -0.2683  0.0169  1.3436
21943SOL     OW67269   4.554   6.381   5.854 -0.6040  0.3106 -0.1366
21943SOL    HW167270   4.504   6.418   5.781 -1.2453  1.0499  0.6609
21943SOL    HW267271   4.487   6.356   5.918 -0.0031  0.5471  0.5936
21944SOL     OW67272   2.231   2.655  10.025 -0.0057 -0.6919  0.4613
21944SOL    HW167273   2.199   2.586   9.967 -0.9860 -0.1785  0.3620
21944SOL    HW267274   2.154   2.682  10.074  0.8326 -1.2031  2.1225
21945SOL     OW67275   5.509   2.139   4.939  0.0817 -0.2962 -0.0248
21945SOL    HW167276   5.430   2.189   4.919  0.2637  0.0140  0.0172
21945SOL    HW267277   5.482   2.077   5.006 -0.4969 -1.2341 -1.0944
21946SOL     OW67278   7.581   3.264   8.697 -0.2301  0.0572 -0.4566
21946SOL    HW167279   7.530   3.212   8.635 -1.3515 -1.0075  1.2635
21946SOL    HW267280   7.635   3.200   8.743  0.7660  0.8548 -0.4766
21947SOL     OW67281   2.998   7.612   5.552 -0.4021  0.0069 -0.5799
21947SOL    HW167282   2.928   7.621   5.488  0.5604  0.9333 -1.5489
21947SOL    HW267283   2.984   7.683   5.614 -0.3381  0.1826 -0.7649
21948SOL     OW67284   3.391   6.528   5.690 -0.1345 -0.0528 -0.1439
21948SOL    HW167285   3.482   6.505   5.711  0.1896 -0.3775 -1.7647
21948SOL    HW267286   3.397   6.583   5.612 -1.3250  0.0710 -0.1723
21949SOL     OW67287   3.687   6.808   0.249  0.6237 -0.1098 -0.5278
21949SOL    HW167288   3.651   6.760   0.174  0.3657  0.2754 -0.6574
21949SOL    HW267289   3.627   6.882   0.260  0.4710 -0.3516  0.2705
21950SOL     OW67290   1.286   7.973   5.415 -0.9963  0.2480 -0.0765
21950SOL    HW167291   1.223   7.918   5.368 -0.4401  0.1750 -0.7435
21950SOL    HW267292   1.296   8.051   5.360 -0.1931  0.0771 -0.1796
21951SOL     OW67293   1.616   2.340  11.014 -0.3248 -0.1814  0.3426
21951SOL    HW167294   1.592   2.312  11.102 -0.2754 -0.1280  0.3732
21951SOL    HW267295   1.593   2.433  11.012 -1.3186 -0.4267 -0.0516
21952SOL     OW67296   7.240   5.466  10.597 -0.7120 -0.0242  0.1341
21952SOL    HW167297   7.297   5.404  10.642 -0.0208  0.0806 -0.5750
21952SOL    HW267298   7.223   5.535  10.662 -0.2328 -0.1848  0.4333
21953SOL     OW67299   5.884   5.604   2.909  0.0340  0.0464  0.4964
21953SOL    HW167300   5.790   5.599   2.928 -0.0061  0.4576  0.4078
21953SOL    HW267301   5.924   5.548   2.976 -0.1286  1.3016  1.7050
21954SOL     OW67302   3.999   6.243   1.409 -0.4556 -0.0218  0.5932
21954SOL    HW167303   4.061   6.247   1.482 -1.2465 -0.5682  1.3125
21954SOL    HW267304   3.934   6.178   1.436  0.1730 -1.5515 -1.3569
21955SOL     OW67305   4.933   6.321  11.790 -0.3567  0.6378 -0.5990
21955SOL    HW167306   4.911   6.348  11.701 -1.4264 -0.5895 -0.7344
21955SOL    HW267307   4.850   6.291  11.827  0.5270 -1.3227 -0.0935
21956SOL     OW67308   0.826   4.928   2.009  0.3287 -0.2097  0.4547
21956SOL    HW167309   0.773   4.963   2.081 -0.0600 -1.6079  0.8925
21956SOL    HW267310   0.809   4.987   1.935 -1.2222 -0.1651  0.8186
21957SOL     OW67311   0.496   0.767  11.625 -0.0331  0.2598  0.2208
21957SOL    HW167312   0.532   0.817  11.552 -0.1968  0.0482 -0.0070
21957SOL    HW267313   0.568   0.711  11.654  0.2033  0.7526  0.5893
21958SOL     OW67314   7.429   5.203   8.868 -0.3930  0.4825  0.3273
21958SOL    HW167315   7.457   5.273   8.809 -0.9278  0.3823 -0.0573
21958SOL    HW267316   7.400   5.133   8.809  0.1220 -0.0532  0.7095
21959SOL     OW67317   4.493   2.667   3.715 -0.6445  0.9514  0.9800
21959SOL    HW167318   4.424   2.691   3.777  0.1621  2.8459  1.2166
21959SOL    HW267319   4.574   2.692   3.760  0.0822  0.4061 -0.0004
21960SOL     OW67320   4.835   1.686   4.540 -0.3018 -0.0939 -0.3712
21960SOL    HW167321   4.760   1.631   4.563  0.6957 -1.4663 -0.2861
21960SOL    HW267322   4.830   1.761   4.600 -1.0700 -0.6351  0.2588
21961SOL     OW67323   7.370   6.126   5.684  0.6641 -0.0697 -0.5894
21961SOL    HW167324   7.281   6.092   5.694  0.5201  0.7610  1.5613
21961SOL    HW267325   7.381   6.137   5.590 -2.3121  1.7712 -0.8805
21962SOL     OW67326   6.801   5.369   8.071 -0.5465  0.1219  0.0331
21962SOL    HW167327   6.814   5.336   7.982 -1.0704 -0.4519  0.1684
21962SOL    HW267328   6.866   5.323   8.124 -0.4782  0.1983  0.0171
21963SOL     OW67329   3.701   7.145   6.696 -0.0681  0.1549 -0.1152
21963SOL    HW167330   3.727   7.229   6.733  0.0230  0.6073 -1.1686
21963SOL    HW267331   3.766   7.083   6.728 -0.5720  0.3166  1.2948
21964SOL     OW67332   4.709   4.964   1.987  0.4120  0.5657  0.1990
21964SOL    HW167333   4.629   4.991   2.032 -0.0625 -1.1445  0.4546
21964SOL    HW267334   4.701   4.999   1.899  0.0115  1.5180  0.6040
21965SOL     OW67335   3.499   0.191   7.659  0.0609 -0.0138  0.4122
21965SOL    HW167336   3.543   0.109   7.637 -0.3839  0.5728 -3.1424
21965SOL    HW267337   3.425   0.164   7.714  1.6937 -1.5636  1.9727
21966SOL     OW67338   1.803   7.876   1.526 -0.0751 -0.3553  0.2243
21966SOL    HW167339   1.864   7.920   1.467  0.4074 -0.0223  0.9679
21966SOL    HW267340   1.725   7.931   1.524 -0.1706 -0.5006 -0.3202
21967SOL     OW67341   7.024   6.884   2.541 -0.1303 -0.2954 -0.1270
21967SOL    HW167342   6.983   6.970   2.541  0.1058 -0.1193  2.1346
21967SOL    HW267343   7.102   6.894   2.487 -0.6009  0.6350 -0.6607
21968SOL     OW67344   4.729   0.456   1.453 -0.2937  0.0484 -0.0589
21968SOL    HW167345   4.688   0.477   1.370  1.1222  2.9714 -0.1566
21968SOL    HW267346   4.823   0.470   1.437  0.0290  0.4575  1.9489
21969SOL     OW67347   2.535   0.629  10.972 -0.4228  0.1647 -0.4328
21969SOL    HW167348   2.440   0.621  10.965 -0.3184 -1.5734 -0.4308
21969SOL    HW267349   2.553   0.722  10.959 -2.2231  0.7538  0.8760
21970SOL     OW67350   5.740   5.873   6.718  0.1660 -0.3547  0.0375
21970SOL    HW167351   5.664   5.919   6.753 -0.1176 -1.7970  1.4257
21970SOL    HW267352   5.803   5.872   6.791 -0.1724 -2.8672  0.3884
21971SOL     OW67353   7.482   4.120   7.244 -0.3625  0.0361 -0.0331
21971SOL    HW167354   7.530   4.124   7.327  1.6901 -2.1552 -0.9761
21971SOL    HW267355   7.450   4.030   7.239  1.0890 -0.4371 -2.3257
21972SOL     OW67356   4.836   2.027   1.698  0.0710  0.0408 -0.6385
21972SOL    HW167357   4.888   1.960   1.654 -1.0791 -0.5264 -1.2062
21972SOL    HW267358   4.750   2.021   1.655 -1.4929 -1.3087  2.3927
21973SOL     OW67359   7.109   6.347   9.819  0.3344 -0.0041 -0.3299
21973SOL    HW167360   7.137   6.330   9.729  1.0407  1.9652 -0.5340
21973SOL    HW267361   7.019   6.376   9.811 -0.4988 -2.3372 -0.0900
21974SOL     OW67362   0.645   4.695  10.394  0.5517 -0.2947 -0.9751
21974SOL    HW167363   0.709   4.711  10.463  1.6600 -0.0470 -2.0141
21974SOL    HW267364   0.681   4.621  10.344 -0.1554 -0.3922 -1.3507
21975SOL     OW67365   2.394   5.717   3.869 -0.1581  0.0431  0.2567
21975SOL    HW167366   2.397   5.662   3.791 -0.7334 -0.3141  0.4773
21975SOL    HW267367   2.478   5.701   3.913 -0.2742 -0.5754  0.2606
21976SOL     OW67368   6.718   6.538  10.968 -0.4064  0.4723 -0.6094
21976SOL    HW167369   6.739   6.479  10.896 -1.7640 -0.7333 -0.0705
21976SOL    HW267370   6.680   6.615  10.926 -0.2742  0.2037 -1.2367
21977SOL     OW67371   5.027   1.432   4.775 -0.0611  0.1715 -0.1599
21977SOL    HW167372   4.975   1.500   4.816 -0.5710 -1.1285  1.4712
21977SOL    HW267373   4.964   1.363   4.753  0.6827 -0.5886  0.0226
21978SOL     OW67374   5.054   5.183   4.132  0.0449 -0.2396  0.2356
21978SOL    HW167375   5.026   5.144   4.214 -1.4419  2.1686  0.9552
21978SOL    HW267376   5.061   5.277   4.150 -0.5366  0.4152 -2.4073
21979SOL     OW67377   5.479   7.703   0.571 -0.7660 -0.3080  0.1481
21979SOL    HW167378   5.486   7.610   0.593 -0.9989 -0.7798 -1.6399
21979SOL    HW267379   5.551   7.718   0.510 -0.3332  0.8554  0.9290
21980SOL     OW67380   0.073   6.838   2.631 -0.4841 -0.1292 -0.2488
21980SOL    HW167381   0.046   6.765   2.575 -3.3671 -0.2576  1.1063
21980SOL    HW267382   0.090   6.799   2.716 -2.3245  0.7280  0.5707
21981SOL     OW67383   0.934   4.362  10.624 -0.0543  0.2077 -0.1270
21981SOL    HW167384   1.007   4.423  10.611  0.9390  0.0212  3.5965
21981SOL    HW267385   0.976   4.277  10.636 -1.2288 -0.6741 -1.8846
21982SOL     OW67386   5.374   2.979   5.868  0.4802  0.2825 -0.2494
21982SOL    HW167387   5.321   2.954   5.792 -1.0826 -0.8844  1.1330
21982SOL    HW267388   5.312   3.024   5.926  1.5368  0.8006  0.5107
21983SOL     OW67389   1.174   1.882  10.650  0.1469  0.4524 -0.7392
21983SOL    HW167390   1.206   1.807  10.699 -0.1785  0.0420 -1.1501
21983SOL    HW267391   1.080   1.882  10.664  0.3119  1.7679  0.6232
21984SOL     OW67392   6.056   4.731  11.941  0.3623  0.1176 -0.7510
21984SOL    HW167393   5.991   4.781  11.892  0.7503 -0.0772 -1.4845
21984SOL    HW267394   6.078   4.786  12.015 -0.9126  0.0246 -0.2782
21985SOL     OW67395   4.369   2.765   3.959  0.3379  0.2171  0.1814
21985SOL    HW167396   4.400   2.851   3.984 -0.2014  0.8156 -1.1186
21985SOL    HW267397   4.386   2.710   4.036  2.0282  1.1232  0.5068
21986SOL     OW67398   3.642   1.073  10.215 -0.3613 -0.1126  0.7942
21986SOL    HW167399   3.587   1.052  10.291 -0.7186  1.1062  0.8950
21986SOL    HW267400   3.705   1.137  10.248  0.4303 -0.6753  0.4046
21987SOL     OW67401   6.460   2.761   3.764 -0.7412 -0.2051  0.1009
21987SOL    HW167402   6.488   2.830   3.704  1.7961  1.0800  2.5167
21987SOL    HW267403   6.505   2.683   3.734  0.1289  0.3150  0.0107
21988SOL     OW67404   0.376   5.067   9.090 -0.4634  0.3051  0.1272
21988SOL    HW167405   0.290   5.105   9.109 -0.2505  1.6989 -1.4042
21988SOL    HW267406   0.398   5.017   9.168 -2.6463 -0.0800  0.5813
21989SOL     OW67407   6.581   1.357   6.172 -0.0516 -0.4547  0.1052
21989SOL    HW167408   6.645   1.427   6.153 -0.3522 -0.2212 -0.0485
21989SOL    HW267409   6.587   1.346   6.267 -0.9003  0.6614  0.3063
21990SOL     OW67410   2.674   1.615  10.175 -0.1522  0.7894  0.1698
21990SOL    HW167411   2.657   1.645  10.085  2.4189 -1.7994 -1.3753
21990SOL    HW267412   2.603   1.554  10.194 -0.5292  1.0880 -0.2491
21991SOL     OW67413   6.320   2.834   9.142 -0.5135 -0.1837 -0.5808
21991SOL    HW167414   6.331   2.822   9.048 -1.3984  0.3779 -0.7713
21991SOL    HW267415   6.283   2.750   9.173 -0.1322 -0.4013 -0.7166
21992SOL     OW67416   7.093   2.407   7.891 -0.3700 -0.2759  0.3476
21992SOL    HW167417   7.077   2.462   7.814  1.2107 -0.6042 -0.2376
21992SOL    HW267418   7.167   2.449   7.935 -0.0003 -1.1910  0.6102
21993SOL     OW67419   0.317   5.917  11.178 -0.2758 -0.2218 -0.1874
21993SOL    HW167420   0.406   5.883  11.176 -0.2193 -0.0622 -0.4580
21993SOL    HW267421   0.289   5.916  11.086 -0.4169  0.0840 -0.1488
21994SOL     OW67422   0.298   5.558   4.651  0.3753  0.0767  0.5015
21994SOL    HW167423   0.351   5.522   4.580 -0.4002  0.4308 -0.2760
21994SOL    HW267424   0.227   5.605   4.606  1.4725  2.8502  1.4289
21995SOL     OW67425   0.209   3.562   1.675  0.7514 -0.2432 -0.0991
21995SOL    HW167426   0.241   3.532   1.590 -0.2919 -0.2458 -0.5065
21995SOL    HW267427   0.173   3.649   1.657 -0.8936 -0.8873  0.0032
21996SOL     OW67428   3.534   5.453  11.726  0.0297  0.0100  0.6122
21996SOL    HW167429   3.523   5.376  11.782 -1.0370 -0.7052 -0.5248
21996SOL    HW267430   3.547   5.417  11.639  1.2347  1.1089  0.3123
21997SOL     OW67431   1.249   6.523   0.024  0.8822 -0.1864 -0.1411
21997SOL    HW167432   1.343   6.513   0.041  0.7399 -1.0297  0.1678
21997SOL    HW267433   1.212   6.436   0.037  0.1692 -0.0342 -1.0416
21998SOL     OW67434   4.606   2.746   2.490 -0.3670 -0.1931 -0.1229
21998SOL    HW167435   4.595   2.838   2.464  2.2391 -0.2770 -1.8927
21998SOL    HW267436   4.560   2.740   2.574 -1.6752  2.4002 -0.5469
21999SOL     OW67437   0.102   0.486   6.938 -0.7244  0.2365  0.1251
21999SOL    HW167438   0.096   0.526   7.024  0.6263 -2.6906  1.7052
21999SOL    HW267439   0.188   0.512   6.904 -0.3306 -0.3727  0.6447
22000SOL     OW67440   0.830   3.818   7.877  0.0748  0.1206 -0.9783
22000SOL    HW167441   0.835   3.725   7.900  3.9852  0.8962  2.5531
22000SOL    HW267442   0.888   3.827   7.801  1.1117 -0.1840 -0.2538
22001SOL     OW67443   5.437   7.686   6.608  0.4128 -0.0208 -0.8741
22001SOL    HW167444   5.354   7.691   6.657  1.0102  1.9986  0.0352
22001SOL    HW267445   5.454   7.592   6.601 -0.9427 -0.4454  0.6719
22002SOL     OW67446   1.674   3.209  12.340  0.0107 -0.1896  0.2884
22002SOL    HW167447   1.646   3.246  12.256  0.2520 -1.7321 -0.5267
22002SOL    HW267448   1.593   3.179  12.381 -0.0019 -0.4866  0.0543
22003SOL     OW67449   6.186   7.367   2.929  0.0292 -0.1627 -0.9252
22003SOL    HW167450   6.182   7.457   2.897  0.9698 -0.1535 -1.0357
22003SOL    HW267451   6.141   7.315   2.862  1.2993 -0.0424 -1.8947
22004SOL     OW67452   1.648   5.769  11.666  0.3121 -0.4015  0.3832
22004SOL    HW167453   1.656   5.861  11.640 -0.3619 -0.5242 -0.2992
22004SOL    HW267454   1.603   5.772  11.750  1.9760 -0.0238  1.2962
22005SOL     OW67455   1.207   7.666  12.008 -0.5895 -0.0516  0.3001
22005SOL    HW167456   1.239   7.755  11.989 -1.2932  0.1616  0.1012
22005SOL    HW267457   1.187   7.667  12.101 -0.2291 -0.1206  0.3809
22006SOL     OW67458   1.060   0.560   2.804  0.6398  0.2830  0.6371
22006SOL    HW167459   1.000   0.535   2.874 -1.1094 -0.0721 -0.9209
22006SOL    HW267460   1.011   0.621   2.749  1.6428 -0.1068 -0.7678
22007SOL     OW67461   1.720   4.322  11.490 -0.1283 -0.0589  0.1859
22007SOL    HW167462   1.793   4.301  11.432 -0.2047 -1.2402  0.4811
22007SOL    HW267463   1.642   4.289  11.445 -0.1234 -1.5100  1.1814
22008SOL     OW67464   1.529   7.540  11.677 -0.5034  0.1235  0.0629
22008SOL    HW167465   1.591   7.482  11.634 -0.0242  0.8911 -0.2956
22008SOL    HW267466   1.543   7.625  11.637 -2.1354  0.2225 -0.3794
22009SOL     OW67467   4.750   3.481   3.415  0.0251  0.0108 -0.7893
22009SOL    HW167468   4.712   3.569   3.419  0.1874  0.1255 -1.5197
22009SOL    HW267469   4.843   3.496   3.397 -0.1891 -0.3274 -2.2828
22010SOL     OW67470   3.715   2.025  11.243  0.3431  0.2519  0.4848
22010SOL    HW167471   3.727   2.110  11.200  0.1930  0.3438  0.6297
22010SOL    HW267472   3.805   1.992  11.255  0.4835  1.0546  1.7902
22011SOL     OW67473   5.179   3.955   1.369  0.1718 -0.4913 -0.2258
22011SOL    HW167474   5.192   3.991   1.456  0.2302 -2.1631  0.4958
22011SOL    HW267475   5.158   3.863   1.384 -1.8462 -0.3826 -1.8747
22012SOL     OW67476   5.049   3.983   2.910 -0.3136  0.2605 -0.1410
22012SOL    HW167477   5.008   4.046   2.851 -0.4288  1.5655  1.2809
22012SOL    HW267478   5.051   4.027   2.995  0.1660 -1.4240  0.7659
22013SOL     OW67479   2.478   3.388   2.320 -0.0914  0.2033 -0.0386
22013SOL    HW167480   2.465   3.317   2.383 -0.2076  0.2625  0.0022
22013SOL    HW267481   2.485   3.343   2.236  1.4393 -0.0020  0.1617
22014SOL     OW67482   2.853   2.357   4.343  0.3265 -0.1497 -0.0972
22014SOL    HW167483   2.931   2.301   4.345  0.0468 -0.5407 -0.1517
22014SOL    HW267484   2.857   2.401   4.259 -0.1765 -1.1225 -0.6431
22015SOL     OW67485   6.213   0.034  10.938 -0.3758 -0.6481  0.3914
22015SOL    HW167486   6.283   0.097  10.956 -1.8360  0.4978  2.4886
22015SOL    HW267487   6.258  -0.050  10.930  1.3669  0.2529  0.2190
22016SOL     OW67488   3.413   1.224  11.036  0.3689  0.1962  0.2709
22016SOL    HW167489   3.389   1.206  11.127  2.2304 -1.3076  0.5390
22016SOL    HW267490   3.482   1.290  11.042  2.5316 -1.9217  0.2579
22017SOL     OW67491   0.590   7.723  11.918 -0.1828  0.3410  0.0966
22017SOL    HW167492   0.511   7.725  11.972  0.8862 -0.8015  1.8305
22017SOL    HW267493   0.560   7.703  11.830 -1.7306 -1.1688  0.9265
22018SOL     OW67494   7.798   1.914   4.584 -0.4476  0.1124  0.1829
22018SOL    HW167495   7.768   1.948   4.499  0.4742  1.5223  0.3886
22018SOL    HW267496   7.731   1.850   4.609 -1.2632  0.4077 -1.1346
22019SOL     OW67497   0.195   4.244   4.624  0.3108  1.0043 -0.3424
22019SOL    HW167498   0.278   4.292   4.633  0.4548  0.6649  0.1961
22019SOL    HW267499   0.182   4.238   4.529  1.1561  0.6471 -0.4501
22020SOL     OW67500   1.198   1.871   9.718 -0.9443  0.3094 -0.2539
22020SOL    HW167501   1.173   1.792   9.767 -0.3669  0.1641 -0.1914
22020SOL    HW267502   1.291   1.882   9.736 -0.9714  0.8726 -0.4583
22021SOL     OW67503   7.447   5.824  11.149 -0.0267 -0.6688 -0.2988
22021SOL    HW167504   7.427   5.876  11.071 -2.2204 -0.6261  0.2100
22021SOL    HW267505   7.485   5.887  11.210  1.1030 -0.5661 -1.0799
22022SOL     OW67506   1.055   7.503   6.362  0.2153  0.4965 -0.2429
22022SOL    HW167507   1.131   7.493   6.306  1.2011  1.4244  0.8504
22022SOL    HW267508   1.091   7.529   6.447 -1.3704  2.5169 -0.0835
22023SOL     OW67509   4.134   1.117  10.640 -0.1726  0.5271  0.4705
22023SOL    HW167510   4.177   1.141  10.722 -1.8466  1.1311  1.2181
22023SOL    HW267511   4.046   1.091  10.666  0.0196 -1.6819 -0.8856
22024SOL     OW67512   2.366   5.901   4.600  0.5483  0.1836 -0.0268
22024SOL    HW167513   2.272   5.902   4.618  0.7110  0.7576  0.8433
22024SOL    HW267514   2.372   5.883   4.506 -0.4074 -0.4236  0.0147
22025SOL     OW67515   3.791   0.226  10.504  0.2231  0.2026 -0.6260
22025SOL    HW167516   3.802   0.235  10.599  1.4229 -0.4791 -0.6684
22025SOL    HW267517   3.736   0.148  10.494  0.4922 -0.0062 -0.4942
22026SOL     OW67518   0.042   2.338   2.875  0.1874 -0.0720 -0.0245
22026SOL    HW167519   0.020   2.308   2.963 -1.0698  0.1489 -0.2468
22026SOL    HW267520   0.007   2.427   2.871  1.3567  0.3817 -0.3301
22027SOL     OW67521   2.968   3.553   6.521  0.7471  0.2551  0.2194
22027SOL    HW167522   2.953   3.464   6.487 -0.3083  0.1029  1.0255
22027SOL    HW267523   3.063   3.560   6.528  0.8189 -1.1328  0.9357
22028SOL     OW67524   6.813   4.887   2.884 -0.4821 -0.1432  0.1468
22028SOL    HW167525   6.750   4.823   2.852  0.5571 -0.7906 -0.6268
22028SOL    HW267526   6.894   4.838   2.895  1.1529  1.5259 -3.1467
22029SOL     OW67527   4.110   5.675   4.044 -0.0284  0.3811 -0.0677
22029SOL    HW167528   4.088   5.603   4.103 -0.2750 -0.4869 -1.1864
22029SOL    HW267529   4.148   5.742   4.101  0.5433 -0.7695  0.9576
22030SOL     OW67530   2.608   7.136  10.336  0.2874  0.0924 -0.0209
22030SOL    HW167531   2.546   7.207  10.348 -0.6216 -0.3136 -1.9999
22030SOL    HW267532   2.563   7.058  10.369  1.1405  0.2893  1.7921
22031SOL     OW67533   2.366   1.909   5.318  0.3082  0.4263  0.1121
22031SOL    HW167534   2.429   1.980   5.329  1.4938 -0.5166 -0.4207
22031SOL    HW267535   2.350   1.906   5.223 -1.0482  1.0643  0.2973
22032SOL     OW67536   1.652   6.820   7.119  0.6678 -0.0466 -0.2598
22032SOL    HW167537   1.631   6.885   7.187  1.0457  0.6490 -0.7889
22032SOL    HW267538   1.738   6.847   7.086  1.5036 -1.6910  0.5125
22033SOL     OW67539   7.555   5.062   0.577  0.0475  0.5306  0.0182
22033SOL    HW167540   7.589   5.133   0.631  0.2311 -0.8993  1.8898
22033SOL    HW267541   7.625   4.997   0.575 -0.7141 -0.3104 -0.2744
22034SOL     OW67542   3.134   3.281   0.894  0.0134  0.5783  0.2761
22034SOL    HW167543   3.092   3.206   0.851  0.7049  1.3354 -1.8881
22034SOL    HW267544   3.227   3.270   0.874  0.5891  0.2360  2.8772
22035SOL     OW67545   1.361   0.618   8.143  0.6271 -0.1078 -0.0898
22035SOL    HW167546   1.400   0.567   8.213  0.3821 -0.8027 -0.4501
22035SOL    HW267547   1.290   0.563   8.110  0.0455  0.6736 -0.1625
22036SOL     OW67548   3.072   3.088   0.696 -0.2508 -0.2781 -0.1685
22036SOL    HW167549   3.100   3.099   0.605  1.0859 -1.2049  0.1003
22036SOL    HW267550   3.008   3.018   0.693  1.8157 -2.2706 -0.1036
22037SOL     OW67551   1.238   0.941   9.528 -0.2031  0.1076 -0.8394
22037SOL    HW167552   1.168   0.985   9.575 -1.0542 -1.0995 -0.9332
22037SOL    HW267553   1.296   1.012   9.500 -1.2155  1.1064 -0.4972
22038SOL     OW67554   1.751   7.900   2.977 -0.6157  0.3730  0.3918
22038SOL    HW167555   1.789   7.924   3.061  0.2487 -0.2552  0.1868
22038SOL    HW267556   1.779   7.810   2.962  0.8846  1.0730 -1.4586
22039SOL     OW67557   1.373   4.358   3.273 -0.2804  0.1620 -0.4006
22039SOL    HW167558   1.323   4.288   3.315 -1.2926  0.1866 -1.5219
22039SOL    HW267559   1.462   4.323   3.266 -0.0948  0.1135  1.5996
22040SOL     OW67560   1.029   3.266   8.572 -0.6183  0.6393  0.0546
22040SOL    HW167561   0.957   3.259   8.634 -0.4354  0.0441  0.2051
22040SOL    HW267562   1.098   3.312   8.620 -1.1397  1.8325 -0.3154
22041SOL     OW67563   6.238   6.699  10.540  0.1841  0.0863 -0.1932
22041SOL    HW167564   6.168   6.665  10.596  0.0933  2.4159  1.2842
22041SOL    HW267565   6.318   6.657  10.573 -0.0616  0.3262  0.7328
22042SOL     OW67566   0.092   5.659  10.380  0.1861  0.2725  0.2662
22042SOL    HW167567   0.076   5.628  10.469 -1.2122 -0.0568 -0.0789
22042SOL    HW267568   0.125   5.582  10.334  0.9022  0.4410  0.4843
22043SOL     OW67569   2.826   3.837  11.858  0.2688 -0.4152  0.0002
22043SOL    HW167570   2.773   3.826  11.937  2.0371 -0.8401  1.1973
22043SOL    HW267571   2.777   3.791  11.790 -0.6364 -1.2261  1.1569
22044SOL     OW67572   3.815   7.500  11.559 -0.0344 -0.1631 -0.2684
22044SOL    HW167573   3.894   7.530  11.606 -0.0117 -0.5640 -0.0485
22044SOL    HW267574   3.747   7.563  11.585 -0.6829 -1.8005  2.3744
22045SOL     OW67575   0.073   5.462   3.860  0.4799  0.0085  0.3518
22045SOL    HW167576   0.105   5.374   3.838 -1.2350 -0.1119 -2.1325
22045SOL    HW267577  -0.022   5.450   3.872 -0.0876  1.7173 -1.8022
22046SOL     OW67578   1.725   0.825   6.517  0.0338 -0.0997 -0.0221
22046SOL    HW167579   1.816   0.852   6.502  0.3008  0.4842  2.2676
22046SOL    HW267580   1.720   0.738   6.477  1.8351 -0.4679  0.4422
22047SOL     OW67581   3.385   7.026   3.020  0.0152  0.0198 -1.0541
22047SOL    HW167582   3.358   7.090   2.954 -0.9924  0.9002  0.1689
22047SOL    HW267583   3.386   7.075   3.102  4.7830 -0.0891 -0.7991
22048SOL     OW67584   7.404   4.185   5.517 -0.2296 -0.2009 -0.1674
22048SOL    HW167585   7.419   4.196   5.611  2.4440  0.0920 -0.5529
22048SOL    HW267586   7.394   4.274   5.484 -2.2573 -0.3410 -0.0850
22049SOL     OW67587   1.560   4.639   0.334  0.1039  0.2622  0.3175
22049SOL    HW167588   1.608   4.704   0.282  0.0407 -0.0840 -0.1805
22049SOL    HW267589   1.585   4.658   0.424  2.3570 -0.8240 -0.0055
22050SOL     OW67590   0.652   3.876  11.485 -0.5187  0.0122 -0.1728
22050SOL    HW167591   0.581   3.909  11.540 -1.7036 -3.4433  0.6229
22050SOL    HW267592   0.647   3.780  11.493  3.0626 -0.4791 -1.6145
22051SOL     OW67593   1.775   6.821   8.915 -0.1120  0.2649  0.2131
22051SOL    HW167594   1.690   6.778   8.909  0.0701 -0.2489  1.1161
22051SOL    HW267595   1.764   6.885   8.986 -0.3356  1.6552 -1.0108
22052SOL     OW67596   1.150   7.561   3.460  0.2415  0.2590 -0.2964
22052SOL    HW167597   1.224   7.621   3.454  0.2110  0.1797 -1.5901
22052SOL    HW267598   1.075   7.612   3.431 -0.0589  0.0602  0.1198
22053SOL     OW67599   4.764   2.928   9.843 -0.1847  0.7731 -0.1112
22053SOL    HW167600   4.792   2.856   9.786 -0.6707  0.6617 -0.2174
22053SOL    HW267601   4.832   2.934   9.910 -0.6124 -0.4104  0.4519
22054SOL     OW67602   2.831   4.429   1.613 -0.6819  0.7438  1.0928
22054SOL    HW167603   2.857   4.521   1.605  0.9666  0.2868  0.8517
22054SOL    HW267604   2.789   4.409   1.529 -1.1491  1.3018  1.1879
22055SOL     OW67605   6.573   0.979  11.680  0.5074 -0.2704  0.5430
22055SOL    HW167606   6.563   0.989  11.585 -0.7204 -0.4197  0.6432
22055SOL    HW267607   6.508   0.914  11.704 -0.5112  1.1271  1.7386
22056SOL     OW67608   5.378   5.739   8.797 -0.1986 -0.1139  0.1206
22056SOL    HW167609   5.444   5.694   8.850  0.0407  0.7138  0.5363
22056SOL    HW267610   5.312   5.672   8.779 -0.0635 -0.5194  1.0883
22057SOL     OW67611   3.884   7.348   7.565  0.3710  0.1192  0.1461
22057SOL    HW167612   3.833   7.300   7.500  0.7286 -0.6822  0.4342
22057SOL    HW267613   3.825   7.355   7.641  0.2801  0.2372  0.0653
22058SOL     OW67614   1.981   7.162   1.418 -0.1126  0.7816 -0.6940
22058SOL    HW167615   1.959   7.254   1.432  1.7061  1.4616 -1.9502
22058SOL    HW267616   1.921   7.134   1.349 -2.6320  0.1046  1.5641
22059SOL     OW67617   3.282   7.981   2.824 -0.7296  0.2691 -0.4454
22059SOL    HW167618   3.276   7.923   2.900 -1.1315  1.0212  0.1150
22059SOL    HW267619   3.193   7.984   2.789 -0.9177  1.2735  0.0915
22060SOL     OW67620   6.615   2.958   2.598  0.2686 -0.3570 -1.2143
22060SOL    HW167621   6.636   2.945   2.690  2.6750  0.2945 -1.5861
22060SOL    HW267622   6.553   3.030   2.597  0.1207 -0.4516 -0.1047
22061SOL     OW67623   0.131   7.475   8.809  0.1270  0.0143  0.1599
22061SOL    HW167624   0.048   7.476   8.761 -0.9410 -1.2417  1.8625
22061SOL    HW267625   0.193   7.434   8.750 -0.6962  0.1470 -0.8178
22062SOL     OW67626   6.758   6.292   1.006 -1.0492 -0.4350 -0.5234
22062SOL    HW167627   6.724   6.209   1.039  0.2187 -0.8895 -0.3320
22062SOL    HW267628   6.812   6.326   1.077  0.0117 -0.3936 -1.3316
22063SOL     OW67629   4.717   7.656   2.616 -0.5223 -0.2118 -0.2031
22063SOL    HW167630   4.742   7.671   2.525  0.5951 -3.1285 -0.4810
22063SOL    HW267631   4.794   7.683   2.666 -1.2632  1.7258 -0.0097
22064SOL     OW67632   1.082   6.639   0.966 -0.0285 -0.2965 -0.0615
22064SOL    HW167633   1.033   6.718   0.991 -1.3612 -0.6385 -1.4261
22064SOL    HW267634   1.031   6.602   0.894  0.8421 -2.1420  0.2253
22065SOL     OW67635   6.231   0.899   7.142  0.0674  0.4830  0.4076
22065SOL    HW167636   6.318   0.859   7.136 -1.3045 -2.8874  0.8775
22065SOL    HW267637   6.243   0.971   7.203  2.4011 -0.2612  0.9545
22066SOL     OW67638   3.529   7.332   4.363  0.0324 -0.0731  0.4624
22066SOL    HW167639   3.457   7.280   4.397 -0.0672  0.8442  1.7458
22066SOL    HW267640   3.579   7.272   4.308 -0.6455 -1.2351  1.0781
22067SOL     OW67641   2.615   4.491   0.415  0.6407  0.2301 -0.0434
22067SOL    HW167642   2.525   4.467   0.438  0.6526 -1.1509 -1.2453
22067SOL    HW267643   2.607   4.534   0.330  1.2869 -2.4693 -1.5969
22068SOL     OW67644   7.729   6.077   5.597  0.5203  0.6322  0.3317
22068SOL    HW167645   7.680   6.028   5.532  1.4647  0.9328 -0.6278
22068SOL    HW267646   7.782   6.011   5.643 -0.2044  0.4108  0.8748
22069SOL     OW67647   2.107   7.429   1.179 -0.6299 -0.1290  0.1609
22069SOL    HW167648   2.012   7.432   1.186 -0.7106 -0.9438 -0.4575
22069SOL    HW267649   2.131   7.514   1.140 -1.1157  0.0111  0.1607
22070SOL     OW67650   6.750   6.732  11.820 -0.0233 -0.1111 -0.1859
22070SOL    HW167651   6.751   6.773  11.906  0.2209  1.6679 -0.9880
22070SOL    HW267652   6.796   6.649  11.833  1.7060  0.9651  1.0243
22071SOL     OW67653   3.004   4.505   3.116  0.5611 -0.5472  0.3603
22071SOL    HW167654   3.053   4.524   3.036  1.1453  0.6645  0.9801
22071SOL    HW267655   2.912   4.505   3.088  0.6806  1.0166 -0.1103
22072SOL     OW67656   7.494   0.736   8.344 -0.3019  0.1044  0.2854
22072SOL    HW167657   7.544   0.782   8.277  0.3534 -1.0823 -0.0552
22072SOL    HW267658   7.505   0.643   8.324 -2.1062 -0.2110  0.6003
22073SOL     OW67659   6.360   3.282   3.606 -0.2428 -0.0490  0.1816
22073SOL    HW167660   6.330   3.354   3.551 -0.1615 -1.2598 -1.5355
22073SOL    HW267661   6.287   3.266   3.666 -0.8141  0.5605 -0.3410
22074SOL     OW67662   1.061   6.274   4.768 -0.3319  0.0198  0.1124
22074SOL    HW167663   1.013   6.355   4.751 -0.5248  0.0605  0.8131
22074SOL    HW267664   1.082   6.277   4.862 -1.1349 -1.1448  0.3583
22075SOL     OW67665   1.081   0.404   3.644  0.5536  0.3386  0.4407
22075SOL    HW167666   1.031   0.381   3.566 -4.2038 -0.7223  3.3700
22075SOL    HW267667   1.129   0.324   3.665 -0.5735 -0.4478  0.1588
22076SOL     OW67668   7.486   3.682  11.379 -0.3046  0.6984  0.0399
22076SOL    HW167669   7.493   3.631  11.298 -0.8407  1.3233 -0.4087
22076SOL    HW267670   7.392   3.681  11.399 -0.2214  0.8715  0.4480
22077SOL     OW67671   2.535   3.936   2.420 -0.9854 -0.4033  0.2321
22077SOL    HW167672   2.454   3.981   2.394 -1.1141 -1.6180 -1.6497
22077SOL    HW267673   2.507   3.846   2.438 -0.1154 -0.7435 -0.0831
22078SOL     OW67674   7.087   7.550  10.058 -0.5160 -0.0965 -0.2695
22078SOL    HW167675   7.133   7.517  10.135  0.4586  0.8605 -0.4151
22078SOL    HW267676   7.021   7.610  10.092 -0.9208 -0.6058 -0.1296
22079SOL     OW67677   2.709   1.036   8.639  0.1669 -0.0808 -0.0481
22079SOL    HW167678   2.734   1.083   8.718  0.0943  0.6240 -0.4388
22079SOL    HW267679   2.614   1.031   8.643  0.2673 -1.9332  0.9680
22080SOL     OW67680   6.889   2.203  12.092 -0.0352 -0.6580 -0.3317
22080SOL    HW167681   6.804   2.161  12.076 -0.5546  0.7670 -1.6961
22080SOL    HW267682   6.950   2.131  12.103 -1.2429 -1.7354 -0.4152
22081SOL     OW67683   5.987   7.806   9.029 -0.1893  0.3193  0.1577
22081SOL    HW167684   6.068   7.854   9.015  0.6809 -1.5464 -1.6796
22081SOL    HW267685   5.918   7.869   9.006  0.8060  1.3502 -0.0912
22082SOL     OW67686   4.205   5.206   7.951  0.3970 -0.1252  0.2114
22082SOL    HW167687   4.293   5.176   7.930  0.4332  0.1371 -0.0283
22082SOL    HW267688   4.218   5.294   7.987  0.2834 -0.3274  0.7595
22083SOL     OW67689   6.112   0.384  11.881 -0.2245  0.0583 -0.1262
22083SOL    HW167690   6.018   0.392  11.868 -0.2101  0.3634 -0.0487
22083SOL    HW267691   6.142   0.329  11.809 -0.7461 -1.6978  0.9429
22084SOL     OW67692   1.232   3.402  11.814  0.2745  0.1021 -0.1302
22084SOL    HW167693   1.164   3.441  11.869 -0.7089 -1.5357 -0.0918
22084SOL    HW267694   1.197   3.410  11.725  0.7218  0.5809 -0.2594
22085SOL     OW67695   0.113   7.795   4.780 -0.0556  0.7435  0.3120
22085SOL    HW167696   0.143   7.725   4.723 -0.1550  0.4200  0.6516
22085SOL    HW267697   0.053   7.847   4.727  0.4588  0.9043 -0.1154
22086SOL     OW67698   7.264   1.310   2.227 -0.0926 -0.1338  0.1598
22086SOL    HW167699   7.235   1.319   2.318 -0.9997  0.3743 -0.1738
22086SOL    HW267700   7.351   1.351   2.226 -0.2207  0.1597  0.7255
22087SOL     OW67701   6.049   3.767   4.409  0.6034 -0.0330  0.0823
22087SOL    HW167702   6.013   3.749   4.322  0.6129 -0.6643  0.2016
22087SOL    HW267703   6.059   3.681   4.449  0.7230  0.2425  0.6627
22088SOL     OW67704   5.290   2.073   3.591 -0.4689 -0.4243 -0.5342
22088SOL    HW167705   5.256   2.101   3.506 -0.5985  1.3720  0.0635
22088SOL    HW267706   5.377   2.112   3.595  0.1558 -1.7894 -0.4580
22089SOL     OW67707   6.188   7.840   8.488 -0.3077  0.0344 -0.0435
22089SOL    HW167708   6.281   7.818   8.476 -0.5393 -0.3748 -1.1871
22089SOL    HW267709   6.153   7.846   8.399 -1.3270  0.4506  0.3712
22090SOL     OW67710   3.692   7.578   1.596 -0.0449  0.4098  0.9936
22090SOL    HW167711   3.597   7.585   1.598 -0.2113  0.2114 -1.8036
22090SOL    HW267712   3.709   7.490   1.563  1.1408  0.2616  1.9200
22091SOL     OW67713   0.394   4.939   3.722  0.3938  0.4586 -0.1802
22091SOL    HW167714   0.446   4.992   3.661  0.9283  2.3924  1.7980
22091SOL    HW267715   0.459   4.889   3.771  0.1429  0.4034  0.0989
22092SOL     OW67716   7.157   4.289   4.433 -0.1187 -0.0318  0.0332
22092SOL    HW167717   7.148   4.205   4.478  0.5399 -0.0672  0.0995
22092SOL    HW267718   7.237   4.280   4.381 -0.0149  0.5741  0.0805
22093SOL     OW67719   2.812   2.147   9.720 -0.2576  0.0385  0.0395
22093SOL    HW167720   2.898   2.149   9.678 -0.0132  0.4670  0.5515
22093SOL    HW267721   2.803   2.234   9.759 -1.1680  0.2053 -0.4963
22094SOL     OW67722   0.344   5.267   0.133 -0.2815 -0.0444  0.9572
22094SOL    HW167723   0.287   5.192   0.151 -0.0378 -0.2517  0.8679
22094SOL    HW267724   0.418   5.230   0.084 -0.7994  0.4515 -0.2492
22095SOL     OW67725   7.437   6.540   1.744  0.2935  0.3794  0.2134
22095SOL    HW167726   7.493   6.556   1.668  0.0621  1.7342  0.2933
22095SOL    HW267727   7.371   6.610   1.741 -1.4446 -1.1834  0.1046
22096SOL     OW67728   3.828   5.993   4.667 -0.4859 -0.1945 -0.2387
22096SOL    HW167729   3.813   6.067   4.608 -0.3838 -0.0573 -0.0969
22096SOL    HW267730   3.772   6.011   4.742 -1.4838 -0.9558 -0.7858
22097SOL     OW67731   2.398   6.829   8.020  0.6547 -0.0427 -0.3440
22097SOL    HW167732   2.349   6.838   7.939 -0.0583  0.7735  0.1518
22097SOL    HW267733   2.473   6.888   8.010 -0.1697  1.1250  0.1002
22098SOL     OW67734   5.647   6.107  11.637 -0.1063 -0.0893  0.4753
22098SOL    HW167735   5.559   6.135  11.614  0.2995  0.8181 -0.0213
22098SOL    HW267736   5.687   6.084  11.553  0.6395  1.0387  0.5013
22099SOL     OW67737   1.498   5.790  12.263 -0.0955  0.3758  0.3355
22099SOL    HW167738   1.438   5.854  12.303 -1.3380 -0.1480 -0.6132
22099SOL    HW267739   1.532   5.834  12.185  0.7536  0.6583  0.8536
22100SOL     OW67740   6.673   3.982   1.689  0.2825  0.1219  0.1464
22100SOL    HW167741   6.670   3.991   1.785 -0.2086 -1.0916  0.2644
22100SOL    HW267742   6.766   3.989   1.667  0.5604 -0.9472  0.8771
22101SOL     OW67743   4.340   4.092   7.405  0.5157  0.1281 -0.4213
22101SOL    HW167744   4.414   4.143   7.374  0.4861  0.0544 -0.6144
22101SOL    HW267745   4.319   4.033   7.333  1.2687 -0.9504  0.2212
22102SOL     OW67746   2.019   0.461   1.885  0.5935 -0.1983  0.2409
22102SOL    HW167747   1.923   0.456   1.884  0.4839  1.2933 -0.9538
22102SOL    HW267748   2.047   0.395   1.822  0.4444 -1.5186  1.5140
22103SOL     OW67749   1.394   2.729  10.482  0.0945  0.3938 -1.1573
22103SOL    HW167750   1.454   2.694  10.548 -2.4521 -1.2119  0.4835
22103SOL    HW267751   1.382   2.821  10.507 -1.2101 -0.2995  1.0951
22104SOL     OW67752   6.612   3.269  12.178  0.4786  0.5765  0.4534
22104SOL    HW167753   6.534   3.324  12.183  0.6372  0.7778  0.7610
22104SOL    HW267754   6.631   3.261  12.085 -1.2565 -1.3933  0.2046
22105SOL     OW67755   1.846   4.648   4.113 -0.4526 -0.3536  0.3509
22105SOL    HW167756   1.924   4.696   4.141  0.6571 -1.9584  0.1492
22105SOL    HW267757   1.773   4.695   4.155  0.7108  0.4208  1.6120
22106SOL     OW67758   1.944   2.649   2.067 -0.2066  0.2096 -0.6407
22106SOL    HW167759   2.032   2.613   2.060 -0.3587 -0.1463 -0.7631
22106SOL    HW267760   1.886   2.573   2.056 -0.5127  0.2741  0.4239
22107SOL     OW67761   0.924   5.144  12.038 -0.0393 -0.2072 -0.2485
22107SOL    HW167762   0.837   5.167  12.005 -0.1777 -2.5163 -1.7290
22107SOL    HW267763   0.910   5.126  12.131 -1.3703 -1.4072 -0.6454
22108SOL     OW67764   4.660   7.111  10.008  0.3113  0.3468  0.4925
22108SOL    HW167765   4.686   7.020   9.996  0.3249  0.3773  0.2773
22108SOL    HW267766   4.566   7.111   9.990  0.3264  0.3887  0.4138
22109SOL     OW67767   4.561   1.498   4.982  0.4545  0.6015  0.0778
22109SOL    HW167768   4.606   1.416   4.963  1.3154  1.4245 -1.6321
22109SOL    HW267769   4.510   1.480   5.061  1.7264 -1.1478  0.5464
22110SOL     OW67770   6.156   2.123   9.745  0.2416  0.4797  0.0617
22110SOL    HW167771   6.204   2.201   9.775 -1.5248  1.8345 -0.4516
22110SOL    HW267772   6.124   2.082   9.825  1.7313 -0.1206  0.3755
22111SOL     OW67773   1.576   1.949   1.945  0.4272 -0.3163  0.3789
22111SOL    HW167774   1.537   1.882   2.001 -1.2994  0.7221  0.5138
22111SOL    HW267775   1.608   1.901   1.869 -0.0748 -1.3872  0.8234
22112SOL     OW67776   0.179   7.097   0.552 -0.0052  0.0494 -0.0427
22112SOL    HW167777   0.255   7.126   0.602  0.1728 -1.2274  0.4649
22112SOL    HW267778   0.125   7.176   0.543  0.4484  0.5394  1.2759
22113SOL     OW67779   7.865   3.906   6.915 -0.2554  0.1927 -0.3263
22113SOL    HW167780   7.800   3.969   6.945  0.7281  1.3281 -0.4858
22113SOL    HW267781   7.908   3.950   6.842  1.4842  0.0011  0.5262
22114SOL     OW67782   1.000   3.504   9.820  0.7347 -0.2163 -0.4026
22114SOL    HW167783   1.075   3.540   9.868  0.0421 -0.7160  1.1185
22114SOL    HW267784   0.985   3.418   9.859 -0.8702  0.0317 -0.3945
22115SOL     OW67785   1.995   0.778  12.209  0.1374 -0.3409  0.0131
22115SOL    HW167786   1.909   0.815  12.191  0.3227 -0.9343 -2.4212
22115SOL    HW267787   2.042   0.848  12.255 -1.3755  0.2611  0.6771
22116SOL     OW67788   0.005   1.476  10.846 -0.4678 -0.0114  0.0584
22116SOL    HW167789  -0.039   1.538  10.788 -0.7190 -0.4016 -0.1739
22116SOL    HW267790  -0.032   1.391  10.823 -0.0440 -0.2649  0.2949
22117SOL     OW67791   1.503   3.096   4.150 -0.0616 -0.2272  0.1226
22117SOL    HW167792   1.568   3.027   4.162 -0.0799 -0.2153  0.2906
22117SOL    HW267793   1.542   3.174   4.190 -0.8998 -0.6251  1.8104
22118SOL     OW67794   1.023   1.189   2.797  0.7519 -0.3441  0.0821
22118SOL    HW167795   1.066   1.153   2.875  1.2023 -1.3581 -0.6167
22118SOL    HW267796   0.933   1.158   2.803  0.7249 -0.2230  0.3168
22119SOL     OW67797   0.937   1.495   9.325 -0.7671  0.4115 -0.1532
22119SOL    HW167798   1.031   1.496   9.347 -0.8642 -1.5996  0.6033
22119SOL    HW267799   0.914   1.587   9.313  0.8755  1.1183  1.5603
22120SOL     OW67800   4.530   1.322   7.941  0.6029  0.4362 -0.3659
22120SOL    HW167801   4.533   1.289   8.030 -2.0530  2.2202  0.4992
22120SOL    HW267802   4.533   1.243   7.886  0.3189 -0.8371  1.3660
22121SOL     OW67803   2.887   7.601  12.381 -0.3812 -0.4701 -0.4745
22121SOL    HW167804   2.876   7.588  12.287  2.0032  1.1898 -1.0520
22121SOL    HW267805   2.846   7.686  12.398  3.0753  1.4459 -0.9784
22122SOL     OW67806   2.682   4.228   0.207  0.0274 -0.7428  0.1504
22122SOL    HW167807   2.765   4.211   0.162  0.8177 -0.5022  1.4706
22122SOL    HW267808   2.674   4.324   0.208 -0.2219 -0.7617  0.1104
22123SOL     OW67809   4.885   5.449   7.661  0.2582  0.0688 -0.3416
22123SOL    HW167810   4.832   5.420   7.586 -0.0159 -1.4500  0.4115
22123SOL    HW267811   4.828   5.511   7.707 -0.2952 -0.4041 -0.3743
22124SOL     OW67812   0.755   7.582   7.004 -0.7465 -0.5184 -0.5071
22124SOL    HW167813   0.848   7.576   6.983 -0.1778  3.4912 -0.0235
22124SOL    HW267814   0.718   7.500   6.974  3.1334 -2.9169  0.5700
22125SOL     OW67815   4.182   4.123  11.652 -0.3628 -0.3160 -0.1313
22125SOL    HW167816   4.252   4.059  11.666 -0.0732 -0.2655 -1.2557
22125SOL    HW267817   4.213   4.202  11.697  1.2920  0.3489 -2.2535
22126SOL     OW67818   5.286   5.243   5.469  0.1859 -0.1888  0.4601
22126SOL    HW167819   5.277   5.161   5.517 -0.2168  0.5792  1.7364
22126SOL    HW267820   5.205   5.291   5.487 -0.0687  0.0522 -1.1539
22127SOL     OW67821   6.807   2.783  12.155  0.2445 -0.3168 -0.0329
22127SOL    HW167822   6.894   2.815  12.179  1.6330 -1.1562 -3.3644
22127SOL    HW267823   6.823   2.696  12.118 -2.0365 -0.5295 -0.6680
22128SOL     OW67824   5.195   3.425   8.814 -0.4963 -0.0703 -0.4725
22128SOL    HW167825   5.128   3.494   8.808 -0.1898  0.2527 -0.2052
22128SOL    HW267826   5.165   3.369   8.885  0.5075  1.1692  0.9734
22129SOL     OW67827   4.159   7.175   8.001  0.1468  0.2261 -0.0221
22129SOL    HW167828   4.079   7.219   8.029 -1.5723 -1.3930 -2.0447
22129SOL    HW267829   4.217   7.246   7.974 -1.1827  1.4023  0.0866
22130SOL     OW67830   7.080   6.181   5.724  0.2752 -0.3241  0.3986
22130SOL    HW167831   7.040   6.178   5.812 -1.6623  1.1053 -0.3632
22130SOL    HW267832   7.082   6.274   5.702  1.7103 -0.5860 -0.6907
22131SOL     OW67833   7.684   5.835   9.902 -0.3348 -0.6201  0.4784
22131SOL    HW167834   7.598   5.825   9.862  0.4136 -0.2974 -1.3402
22131SOL    HW267835   7.707   5.748   9.934 -0.1929 -1.3796 -1.5545
22132SOL     OW67836   2.850   4.104   9.402  0.0782  0.3915 -0.1136
22132SOL    HW167837   2.847   4.185   9.453 -0.1207  0.8990 -0.9190
22132SOL    HW267838   2.943   4.090   9.384  0.5092 -1.3718  2.8236
22133SOL     OW67839   0.594   6.569  11.007  0.2970 -0.0533 -0.6084
22133SOL    HW167840   0.516   6.521  11.036 -0.1548  1.7151  1.3178
22133SOL    HW267841   0.668   6.521  11.045 -0.1492  0.7580  1.3653
22134SOL     OW67842   2.133   3.249   7.174 -0.6604  0.3682 -0.3524
22134SOL    HW167843   2.111   3.229   7.265 -0.4295  0.3910 -0.2919
22134SOL    HW267844   2.078   3.324   7.152 -0.3133  0.7129 -0.0581
22135SOL     OW67845   1.645   5.870  12.054 -0.5277 -0.0252 -0.4316
22135SOL    HW167846   1.701   5.925  12.000  0.5544 -1.0385 -0.3934
22135SOL    HW267847   1.589   5.823  11.992 -0.6520  0.2529 -0.5322
22136SOL     OW67848   7.647   3.036   2.095 -0.5290  0.1775  0.2405
22136SOL    HW167849   7.694   3.099   2.150 -0.2271  1.1233 -1.0581
22136SOL    HW267850   7.556   3.064   2.100 -0.7396 -0.6839  1.4799
22137SOL     OW67851   7.888   5.372  11.859  0.3413 -0.0478  0.0896
22137SOL    HW167852   7.969   5.373  11.807  0.3126  1.1827  0.0327
22137SOL    HW267853   7.826   5.322  11.806  1.0900 -1.1114  0.1910
22138SOL     OW67854   2.009   2.398   0.465  0.5374 -0.4700  0.4684
22138SOL    HW167855   2.032   2.361   0.380 -0.7887 -0.6886  0.1881
22138SOL    HW267856   2.093   2.420   0.505  1.1745 -0.0408 -1.0410
22139SOL     OW67857   2.275   7.641   0.355  0.0031 -0.0551 -0.3414
22139SOL    HW167858   2.251   7.709   0.293 -0.3040  2.0318  1.8810
22139SOL    HW267859   2.195   7.624   0.405  0.5370 -0.7284  0.3142
22140SOL     OW67860   1.227   6.669   4.541 -0.1806 -0.3915  0.1115
22140SOL    HW167861   1.292   6.599   4.529  1.0481  0.9282 -1.4409
22140SOL    HW267862   1.157   6.649   4.479  0.6669  0.2373 -1.1067
22141SOL     OW67863   3.796   5.944   2.507  0.0868 -0.4793  0.6179
22141SOL    HW167864   3.782   5.862   2.555  3.5569 -0.6442  1.6921
22141SOL    HW267865   3.891   5.950   2.498 -0.2048  0.4506 -4.9142
22142SOL     OW67866   7.360   2.412  12.334  0.0359 -0.5963  0.4502
22142SOL    HW167867   7.455   2.397  12.328  0.2046  0.1981  0.8714
22142SOL    HW267868   7.325   2.381  12.251  0.6971 -0.7350  0.2163
22143SOL     OW67869   6.341   4.270   7.424  0.0647  0.4213 -0.1943
22143SOL    HW167870   6.367   4.212   7.495 -1.2834  0.8260  0.6740
22143SOL    HW267871   6.249   4.290   7.442  0.2047  1.9815 -1.0477
22144SOL     OW67872   3.035   0.793   5.580 -0.3071 -0.1355  0.2032
22144SOL    HW167873   2.998   0.874   5.613 -2.6136  0.6395 -3.6418
22144SOL    HW267874   3.106   0.820   5.523  0.3383 -1.0090  0.5650
22145SOL     OW67875   6.531   5.123   8.189  1.0066  0.5620  0.2959
22145SOL    HW167876   6.567   5.196   8.240 -1.1597  1.3677  0.7651
22145SOL    HW267877   6.493   5.164   8.111 -2.1869  0.3439  1.5811
22146SOL     OW67878   6.411   7.049   8.418  0.0514 -0.4665  0.4511
22146SOL    HW167879   6.450   6.991   8.352  1.1862  1.3992 -0.5913
22146SOL    HW267880   6.346   7.100   8.370 -0.8540 -0.7464  1.3318
22147SOL     OW67881   7.942   0.500   1.812 -0.0457  0.2728 -0.1010
22147SOL    HW167882   7.864   0.508   1.868 -0.1412 -2.7770  0.3919
22147SOL    HW267883   8.015   0.498   1.873  0.2387  1.1345 -0.4134
22148SOL     OW67884   2.084   4.100  10.214  0.2964  0.2942 -0.5288
22148SOL    HW167885   2.152   4.120  10.278  0.9723 -1.3782 -0.6605
22148SOL    HW267886   2.002   4.102  10.264  0.5080  1.6110 -0.2120
22149SOL     OW67887   4.341   1.371   7.297 -0.0568 -0.0745 -0.4550
22149SOL    HW167888   4.302   1.296   7.253 -0.0485 -1.5230  1.8683
22149SOL    HW267889   4.418   1.336   7.342 -0.4312  1.1474  1.2383
22150SOL     OW67890   4.968   2.527  11.258 -0.3061  0.1668 -0.1063
22150SOL    HW167891   4.912   2.605  11.259  0.5055  0.7528  0.8557
22150SOL    HW267892   4.929   2.469  11.323 -0.1383  0.3311  0.1425
22151SOL     OW67893   5.410   2.696   2.620 -0.2055 -0.5809 -0.7055
22151SOL    HW167894   5.326   2.650   2.612 -0.5530  0.1572 -1.4309
22151SOL    HW267895   5.391   2.785   2.590  0.7328 -0.2860 -0.4338
22152SOL     OW67896   6.097   6.072   1.635 -0.5224 -0.2473  0.2054
22152SOL    HW167897   6.102   5.982   1.603 -0.0186  0.0068 -0.4522
22152SOL    HW267898   6.076   6.124   1.558 -0.3612  0.2582  0.4965
22153SOL     OW67899   0.595   3.967   2.179 -0.0392 -0.0746  0.3404
22153SOL    HW167900   0.624   3.962   2.087 -0.6352 -0.0525  0.1449
22153SOL    HW267901   0.673   3.993   2.227  1.0884 -2.8618  0.2443
22154SOL     OW67902   0.488   7.755   6.163  0.0882  0.4466  0.6292
22154SOL    HW167903   0.479   7.681   6.103 -0.3728  1.5351 -0.6885
22154SOL    HW267904   0.398   7.781   6.183  0.2348  1.5292 -0.0542
22155SOL     OW67905   0.048   7.401  11.282 -0.1520 -0.4117  0.1341
22155SOL    HW167906   0.083   7.470  11.224 -3.6063  0.4895 -1.1677
22155SOL    HW267907   0.080   7.320  11.244  0.9315  0.3309 -0.6077
22156SOL     OW67908   6.301   3.530   3.529 -0.3898 -0.2792 -0.3629
22156SOL    HW167909   6.350   3.612   3.522 -1.8583  0.5990 -0.7313
22156SOL    HW267910   6.226   3.541   3.470 -1.8156 -0.9715  1.2231
22157SOL     OW67911   0.455   3.885   5.995 -0.5090 -0.2701 -0.4059
22157SOL    HW167912   0.434   3.903   6.086  3.3424 -0.3266  0.6447
22157SOL    HW267913   0.547   3.858   5.996 -0.4788 -0.8525 -4.2510
22158SOL     OW67914   6.002   5.915   8.773 -0.1032  0.3476  0.0340
22158SOL    HW167915   5.977   6.005   8.792  0.0979  0.1697  1.1943
22158SOL    HW267916   5.981   5.867   8.852 -1.1533 -0.8396 -0.9169
22159SOL     OW67917   4.350   4.726   6.331  0.6388  0.3165 -0.5564
22159SOL    HW167918   4.304   4.648   6.300  0.9628 -0.5680  1.0908
22159SOL    HW267919   4.375   4.706   6.421  0.5245  2.4209  0.0147
22160SOL     OW67920   7.481   1.786   9.865  0.0862 -0.3280  0.1873
22160SOL    HW167921   7.523   1.754   9.785  1.5626  0.9084  0.4346
22160SOL    HW267922   7.414   1.720   9.885 -0.6498 -0.4339 -2.3086
22161SOL     OW67923   6.439   5.230   3.155 -0.4332 -0.0284  0.7004
22161SOL    HW167924   6.382   5.154   3.166  0.5628 -1.1774 -1.4532
22161SOL    HW267925   6.520   5.206   3.200  0.9218 -1.5721 -2.2805
22162SOL     OW67926   5.115   2.255  10.726  0.2174  0.1861  0.4011
22162SOL    HW167927   5.108   2.246  10.821  4.2908 -3.3398  0.6827
22162SOL    HW267928   5.194   2.306  10.713 -0.1199  0.3519 -1.1487
22163SOL     OW67929   1.679   5.753  11.353 -0.6591  0.2267  0.1767
22163SOL    HW167930   1.753   5.804  11.386 -0.6682 -0.7851  1.8546
22163SOL    HW267931   1.688   5.756  11.258  0.6222  1.4322  0.3075
22164SOL     OW67932   1.116   6.447   6.825 -0.3993  0.2126 -0.1160
22164SOL    HW167933   1.035   6.439   6.876  0.5208 -0.4921  1.3114
22164SOL    HW267934   1.143   6.538   6.836 -0.7026  0.3030 -0.1161
22165SOL     OW67935   4.948   5.266   7.196 -0.3327  0.0988 -0.0858
22165SOL    HW167936   4.933   5.301   7.284 -0.9133 -0.7653  0.1644
22165SOL    HW267937   5.021   5.205   7.207 -0.6385 -0.2761 -0.1327
22166SOL     OW67938   3.838   6.736   4.203  0.3527  0.0869  0.6607
22166SOL    HW167939   3.799   6.745   4.116  0.1672 -0.1026  0.7242
22166SOL    HW267940   3.909   6.801   4.204 -0.2045  0.7044  0.6767
22167SOL     OW67941   7.295   5.610   6.351  0.3477  0.0695  0.0978
22167SOL    HW167942   7.249   5.527   6.365  1.7026 -0.9742 -1.3019
22167SOL    HW267943   7.252   5.649   6.275  0.1243  0.3540  0.3668
22168SOL     OW67944   0.085   3.937  10.121 -0.0167  0.0940 -0.0769
22168SOL    HW167945   0.010   3.987  10.153  0.8146  1.5115 -0.2566
22168SOL    HW267946   0.159   3.970  10.172  0.6285 -0.6664 -0.5003
22169SOL     OW67947   5.615   7.783  11.079 -0.0311 -0.1308 -0.1379
22169SOL    HW167948   5.706   7.798  11.052  0.1410 -2.3993 -1.1104
22169SOL    HW267949   5.565   7.851  11.035  1.1062  0.6185 -0.3088
22170SOL     OW67950   7.974   5.207  11.304 -0.2422 -0.8803 -0.1339
22170SOL    HW167951   7.894   5.260  11.306  0.9122  0.9659 -0.4915
22170SOL    HW267952   7.967   5.151  11.381 -0.7114  1.0630  1.3164
22171SOL     OW67953   4.100   6.866   1.681 -0.2650 -0.1044  0.2737
22171SOL    HW167954   4.048   6.934   1.639  1.3602  2.1155  1.6445
22171SOL    HW267955   4.101   6.890   1.774  0.3484 -2.0415  0.8270
22172SOL     OW67956   3.190   0.518   5.501 -0.0524  0.0170  0.4542
22172SOL    HW167957   3.149   0.580   5.561 -0.3840  0.1245  0.1190
22172SOL    HW267958   3.195   0.565   5.418 -0.0463 -0.3022  0.2729
22173SOL     OW67959   0.094   1.462  11.778 -0.2075 -0.4181 -0.4785
22173SOL    HW167960   0.141   1.510  11.710 -0.9814 -0.8925 -1.3723
22173SOL    HW267961   0.021   1.519  11.802  0.0580 -0.2554 -0.0381
22174SOL     OW67962   3.479   1.008   2.312  0.2199 -0.8296  0.6976
22174SOL    HW167963   3.508   1.098   2.328 -2.3221  0.1437  0.2215
22174SOL    HW267964   3.533   0.978   2.239  0.8302  0.4591  0.5910
22175SOL     OW67965   3.144   5.310   9.053 -0.1391 -0.1781  0.2616
22175SOL    HW167966   3.214   5.367   9.022  0.5282 -0.7727  0.6450
22175SOL    HW267967   3.182   5.222   9.052 -0.7053 -0.4441  0.9779
22176SOL     OW67968   2.865   3.778   8.154  0.0339  0.2456  0.4218
22176SOL    HW167969   2.912   3.817   8.081  0.8423  0.5116  1.0769
22176SOL    HW267970   2.932   3.730   8.203 -0.8474 -1.7153 -0.1610
22177SOL     OW67971   6.614   2.029   9.258  0.0173 -0.2443  0.2564
22177SOL    HW167972   6.639   2.106   9.207 -1.5877  1.6793  2.1604
22177SOL    HW267973   6.697   1.984   9.277  1.0572  1.2851 -0.4911
22178SOL     OW67974   4.999   5.984   4.954  0.0035  0.1414 -0.4853
22178SOL    HW167975   4.926   6.046   4.954 -0.0593  0.0683 -0.4716
22178SOL    HW267976   5.077   6.039   4.964  0.0891  0.3688 -2.1875
22179SOL     OW67977   7.153   7.289   7.579 -0.0653 -0.2005  0.1531
22179SOL    HW167978   7.102   7.243   7.512 -0.7201  0.8209 -0.0753
22179SOL    HW267979   7.139   7.238   7.659 -2.9872  1.0251  0.5332
22180SOL     OW67980   6.970   7.960   7.258  0.0838  0.4148 -0.1296
22180SOL    HW167981   6.889   7.934   7.301  1.1340  0.5116  1.9958
22180SOL    HW267982   6.941   8.003   7.177 -1.9899  0.7584  0.7407
22181SOL     OW67983   7.792   6.540   0.102 -0.1912 -0.0763 -0.3157
22181SOL    HW167984   7.886   6.533   0.085 -0.1207 -0.5712  0.2610
22181SOL    HW267985   7.759   6.595   0.031  0.8384  1.7531  0.5651
22182SOL     OW67986   7.501   3.875   1.621  0.1271 -0.1701  0.3302
22182SOL    HW167987   7.486   3.962   1.658 -0.3639 -0.9903  2.1942
22182SOL    HW267988   7.589   3.852   1.652  1.1193  0.4405 -1.8697
22183SOL     OW67989   4.460   6.426   9.094 -0.1727  0.7917 -0.2190
22183SOL    HW167990   4.463   6.516   9.125  0.8970  0.8850 -0.5797
22183SOL    HW267991   4.374   6.394   9.122 -0.4251  1.8121  0.1975
22184SOL     OW67992   1.834   2.774   9.050 -0.2081 -0.1593  0.3758
22184SOL    HW167993   1.924   2.806   9.059  0.2675 -1.1747 -0.5308
22184SOL    HW267994   1.785   2.850   9.017  0.2618  0.4435  1.0230
22185SOL     OW67995   4.866   5.278   5.031  0.1892 -0.1416 -0.1743
22185SOL    HW167996   4.867   5.209   5.097  0.4471  0.2473  0.2387
22185SOL    HW267997   4.954   5.275   4.993 -0.4610 -1.4486 -1.6686
22186SOL     OW67998   1.600   3.491   2.499 -0.0280  0.0613 -0.2343
22186SOL    HW167999   1.517   3.450   2.524  1.3024 -2.4940  0.4229
22186SOL    HW268000   1.605   3.479   2.404 -0.6153  0.6549 -0.3418
22187SOL     OW68001   3.082   4.754   6.213 -0.7451 -0.3482 -0.2563
22187SOL    HW168002   3.053   4.667   6.186 -3.3853  0.4219 -0.1626
22187SOL    HW268003   3.112   4.743   6.303 -0.8158 -1.1821 -0.3276
22188SOL     OW68004   6.999   6.041   6.485 -0.0416  0.4288 -0.3744
22188SOL    HW168005   6.984   5.953   6.450  0.9669 -0.9118  2.3286
22188SOL    HW268006   6.912   6.074   6.506 -0.3310 -0.5512 -0.0077
22189SOL     OW68007   2.374   4.409   8.834  0.3299  0.0597  0.1793
22189SOL    HW168008   2.389   4.360   8.915  0.5593  0.3969  0.3415
22189SOL    HW268009   2.462   4.427   8.801  0.3251  2.1636  1.1901
22190SOL     OW68010   2.765   5.620   2.580 -0.7346  0.2768  0.2653
22190SOL    HW168011   2.726   5.683   2.640 -1.3464  0.5124 -0.3655
22190SOL    HW268012   2.842   5.664   2.544 -0.2185  0.0391  1.0575
22191SOL     OW68013   4.946   0.252   3.627  0.2066  0.4349 -0.2358
22191SOL    HW168014   4.953   0.275   3.534 -1.0180 -0.2675 -0.5202
22191SOL    HW268015   4.873   0.305   3.659 -0.2590 -0.3305 -0.0109
22192SOL     OW68016   0.694   4.510   0.925 -0.2762 -0.2345  0.3422
22192SOL    HW168017   0.697   4.554   1.010 -1.1317 -1.1798  0.8825
22192SOL    HW268018   0.724   4.421   0.942  0.0190 -0.2994 -0.4542
22193SOL     OW68019   7.058   7.639  10.966  0.3274  0.5779  0.3728
22193SOL    HW168020   6.986   7.598  11.013  0.0886  0.0793 -0.4231
22193SOL    HW268021   7.069   7.724  11.009  0.1080  0.1419  1.3207
22194SOL     OW68022   5.086   4.606   7.137 -0.0239 -0.1509  0.4845
22194SOL    HW168023   5.084   4.609   7.041 -0.3144 -1.5663  0.4291
22194SOL    HW268024   5.142   4.532   7.157 -0.2803 -0.1022  1.4165
22195SOL     OW68025   3.349   2.694  11.868 -0.4562  0.4323 -0.4041
22195SOL    HW168026   3.429   2.734  11.831 -0.6260  1.5663  0.4032
22195SOL    HW268027   3.375   2.667  11.956  0.4424 -3.8059 -1.7311
22196SOL     OW68028   3.805   7.144   8.164 -0.0539 -0.1770 -0.3414
22196SOL    HW168029   3.728   7.133   8.108  0.7111 -2.2655 -1.0695
22196SOL    HW268030   3.800   7.071   8.226  0.0661  1.0808  1.2362
22197SOL     OW68031   4.723   3.070   1.100 -0.9406 -0.0304 -0.2066
22197SOL    HW168032   4.691   2.990   1.142 -1.4997 -0.2285 -0.9912
22197SOL    HW268033   4.816   3.073   1.122 -0.8307 -1.0933 -0.4844
22198SOL     OW68034   6.719   2.112   2.899 -0.1042  0.4129  0.2899
22198SOL    HW168035   6.644   2.112   2.840 -0.8051  0.0121  1.1645
22198SOL    HW268036   6.788   2.068   2.849 -1.2590 -1.6947  0.4203
22199SOL     OW68037   7.767   2.704   1.305 -0.1846 -0.3303 -0.3503
22199SOL    HW168038   7.721   2.774   1.259  1.5338  1.7193  0.8257
22199SOL    HW268039   7.838   2.678   1.246 -0.8595 -1.1585 -0.8127
22200SOL     OW68040   1.030   4.497   3.773  0.1718 -0.2105 -0.6310
22200SOL    HW168041   0.937   4.516   3.766  0.2353  0.4042  0.0273
22200SOL    HW268042   1.046   4.428   3.709 -1.1537 -1.8561  0.7231
22201SOL     OW68043   4.578   4.118   1.667  0.0211 -0.0465  0.2633
22201SOL    HW168044   4.551   4.205   1.696 -0.1897 -0.4279  1.2507
22201SOL    HW268045   4.667   4.130   1.633  1.3416  0.0405  3.3754
22202SOL     OW68046   5.967   0.714  11.760  0.1676 -0.0307  0.0858
22202SOL    HW168047   5.879   0.697  11.794  0.2840 -1.7088 -0.3585
22202SOL    HW268048   5.967   0.808  11.740 -1.7169 -0.1098 -0.4660
22203SOL     OW68049   5.386   7.460   4.173  0.1305 -0.2523 -0.2032
22203SOL    HW168050   5.388   7.369   4.146  0.1138 -0.4044  0.3033
22203SOL    HW268051   5.470   7.496   4.143 -0.4519 -0.0507 -1.6833
22204SOL     OW68052   2.245   0.334   1.182  0.2954  0.5920 -0.1205
22204SOL    HW168053   2.337   0.346   1.160  0.7905 -0.8040  0.9777
22204SOL    HW268054   2.247   0.289   1.267 -1.4331  2.9531  1.2848
22205SOL     OW68055   1.495   0.308   5.404  0.0415  0.0205  0.4228
22205SOL    HW168056   1.511   0.356   5.485  0.2922 -1.0941  1.0498
22205SOL    HW268057   1.556   0.234   5.406 -1.1257 -1.0055  0.0591
22206SOL     OW68058   1.055   5.519   7.168  0.0289  0.2308  0.2105
22206SOL    HW168059   1.126   5.540   7.229  0.8597 -2.5939  0.3721
22206SOL    HW268060   0.984   5.487   7.224  0.7272 -2.1989 -0.1870
22207SOL     OW68061   1.207   7.715   7.882  0.1631 -0.1425  0.2649
22207SOL    HW168062   1.280   7.753   7.833  0.2491 -0.3043  0.2673
22207SOL    HW268063   1.199   7.769   7.960  0.5183 -0.3468  0.4445
22208SOL     OW68064   1.331   6.944  11.142  0.1168  0.5419  0.1773
22208SOL    HW168065   1.287   7.029  11.147 -0.7676  0.1407 -0.5670
22208SOL    HW268066   1.311   6.911  11.054  1.8790  0.3171 -0.1819
22209SOL     OW68067   3.585   7.455   8.625  0.4584 -0.2711  0.3797
22209SOL    HW168068   3.636   7.416   8.695  2.9283  0.2548 -0.9945
22209SOL    HW268069   3.587   7.390   8.554 -1.6704 -0.6408  0.5862
22210SOL     OW68070   7.485   2.428   5.401  0.0381 -0.0146  0.0246
22210SOL    HW168071   7.514   2.517   5.421  0.9134 -0.2974  0.0374
22210SOL    HW268072   7.389   2.433   5.405  0.1001  0.7288  0.8403
22211SOL     OW68073   0.101   6.151   6.542 -0.4652 -0.0107  0.1413
22211SOL    HW168074   0.019   6.139   6.495 -1.3040 -0.6361  1.7023
22211SOL    HW268075   0.145   6.066   6.537 -0.5341 -0.0641  0.4479
22212SOL     OW68076   0.697   7.902   4.266 -0.2929 -0.2106  0.0213
22212SOL    HW168077   0.764   7.842   4.233  1.6004  0.7735  1.8142
22212SOL    HW268078   0.677   7.960   4.193  0.5692 -0.7516 -0.6582
22213SOL     OW68079   7.901   1.684   3.841  0.4645  0.2246  0.0796
22213SOL    HW168080   7.878   1.757   3.898  0.5293 -0.6706  1.2865
22213SOL    HW268081   7.846   1.697   3.763 -0.1320  1.0921  0.6217
22214SOL     OW68082   0.684   7.739   1.041  0.0760  0.2399 -0.3805
22214SOL    HW168083   0.662   7.731   0.949 -2.8752 -0.3298  0.2558
22214SOL    HW268084   0.642   7.820   1.069 -0.8193 -0.5934  0.8305
22215SOL     OW68085   2.617   4.372   8.013  0.1461  0.7129 -0.5475
22215SOL    HW168086   2.660   4.358   8.097 -0.3375  1.2003 -0.2081
22215SOL    HW268087   2.639   4.295   7.960 -0.1618  0.0397  0.2827
22216SOL     OW68088   7.900   6.602   8.211  0.0886  0.2732  0.1707
22216SOL    HW168089   7.985   6.558   8.214 -0.3546 -0.5488  0.8930
22216SOL    HW268090   7.849   6.551   8.148 -0.0074  0.5170  0.0501
22217SOL     OW68091   7.694   3.464   8.023 -0.3926  0.0186  0.0136
22217SOL    HW168092   7.687   3.397   7.955 -0.3364  1.5441 -1.5665
22217SOL    HW268093   7.743   3.535   7.982 -0.2610  0.9586  1.7070
22218SOL     OW68094   6.989   0.733   4.454 -0.8395 -0.0129 -0.2214
22218SOL    HW168095   7.019   0.642   4.443 -0.2777 -0.0701  1.5104
22218SOL    HW268096   7.004   0.773   4.369 -2.5318 -1.9170 -1.5271
22219SOL     OW68097   4.782   0.814   5.727  0.3018 -0.4079 -0.0187
22219SOL    HW168098   4.782   0.906   5.753 -0.0796  0.1738 -1.8942
22219SOL    HW268099   4.703   0.777   5.766 -1.0043  0.7735 -1.4541
22220SOL     OW68100   7.920   7.658   4.109 -0.0479  0.1695 -0.8970
22220SOL    HW168101   7.867   7.581   4.129 -0.3907  0.3347 -1.1617
22220SOL    HW268102   8.007   7.637   4.145 -0.8973  0.9443  1.9191
22221SOL     OW68103   1.275   5.332  12.176 -0.1141 -0.3609  0.5626
22221SOL    HW168104   1.276   5.259  12.239  0.4261  0.6445  1.7607
22221SOL    HW268105   1.366   5.360  12.171 -0.1354 -0.4929 -0.7771
22222SOL     OW68106   2.183   1.942   0.329  0.0048  0.8560 -0.0851
22222SOL    HW168107   2.260   1.990   0.298 -1.1355  2.3695 -0.6937
22222SOL    HW268108   2.219   1.866   0.374  1.8496 -0.4911 -3.4457
22223SOL     OW68109   1.877   6.238   7.254 -0.2283  0.6456 -0.0594
22223SOL    HW168110   1.824   6.299   7.306 -0.4950  0.1031  0.3062
22223SOL    HW268111   1.820   6.162   7.240 -0.3400  0.9640 -1.5508
22224SOL     OW68112   0.017   3.378  12.234 -0.1105  0.0830 -0.4573
22224SOL    HW168113   0.110   3.384  12.256 -0.3094 -0.3309  0.5710
22224SOL    HW268114  -0.022   3.330  12.307 -0.5741 -2.7902 -2.3971
22225SOL     OW68115   2.650   6.802   4.976  0.7060  0.3980 -0.4927
22225SOL    HW168116   2.657   6.795   5.072 -1.0578 -0.0235 -0.3583
22225SOL    HW268117   2.649   6.711   4.946  1.5529  0.5332 -0.9539
22226SOL     OW68118   2.313   6.543   2.227  0.4364  0.2364  0.3724
22226SOL    HW168119   2.408   6.543   2.242  0.2095  0.2085  1.9930
22226SOL    HW268120   2.278   6.491   2.299 -0.9450  1.6826  0.8003
22227SOL     OW68121   5.737   0.069   2.173  0.2769  0.0558  0.2535
22227SOL    HW168122   5.794   0.121   2.117  1.0518  2.1585  2.7778
22227SOL    HW268123   5.665   0.127   2.195 -1.3877 -1.5952 -0.5516
22228SOL     OW68124   1.085   3.073   6.919  0.1120  0.2830  0.9061
22228SOL    HW168125   1.133   3.156   6.923  1.1206 -0.2296  0.1299
22228SOL    HW268126   1.121   3.029   6.842 -2.7120  0.5104 -0.6466
22229SOL     OW68127   6.255   5.688   9.181 -0.1849 -0.3016  0.2782
22229SOL    HW168128   6.273   5.601   9.145 -0.7567  0.6028 -2.4098
22229SOL    HW268129   6.342   5.724   9.202  0.1885 -0.8134 -0.3659
22230SOL     OW68130   6.671   7.532   4.168 -0.1735 -0.4180  0.4245
22230SOL    HW168131   6.753   7.484   4.156 -0.8846 -1.6975  0.4200
22230SOL    HW268132   6.617   7.507   4.093  0.0449  1.8318 -0.5552
22231SOL     OW68133   3.611   6.114   1.267  0.0227 -0.0912 -0.0422
22231SOL    HW168134   3.681   6.062   1.225  2.4417  1.6626  1.5530
22231SOL    HW268135   3.591   6.182   1.203  2.7040  1.7449  0.9164
22232SOL     OW68136   5.431   6.154   7.875  0.1749  0.1320 -0.1001
22232SOL    HW168137   5.500   6.184   7.817 -0.2048  0.9918 -0.1256
22232SOL    HW268138   5.362   6.123   7.816 -0.2927  1.1898 -0.1375
22233SOL     OW68139   5.594   7.726   1.455  0.3863  0.6109  0.0612
22233SOL    HW168140   5.520   7.783   1.478  0.7332  1.4163 -0.7604
22233SOL    HW268141   5.670   7.768   1.496  0.5107  0.2469  0.2029
22234SOL     OW68142   4.563   1.324  10.382  0.3951  0.3332  0.5424
22234SOL    HW168143   4.633   1.385  10.404  0.8514  1.1147 -2.5344
22234SOL    HW268144   4.537   1.349  10.293 -1.9042 -1.7101  0.5343
22235SOL     OW68145   2.869   7.169   0.524 -0.1583 -0.7552  0.0968
22235SOL    HW168146   2.909   7.254   0.503 -0.0663 -0.9837 -0.6939
22235SOL    HW268147   2.938   7.120   0.568 -0.6356  0.0692  1.8701
22236SOL     OW68148   3.971   7.525   6.506  0.0191  0.0195 -0.4828
22236SOL    HW168149   4.002   7.560   6.423  0.2541 -0.2419 -0.5058
22236SOL    HW268150   3.992   7.432   6.502 -0.9436 -0.2022 -0.5795
22237SOL     OW68151   7.098   7.824   3.513 -0.0399 -0.3743  0.9617
22237SOL    HW168152   7.099   7.918   3.492  0.5654 -0.8982 -1.6790
22237SOL    HW268153   7.176   7.810   3.566  0.4572  0.4501  0.4698
22238SOL     OW68154   4.926   6.099   9.953 -0.0079 -1.0127  0.8103
22238SOL    HW168155   4.996   6.163   9.938  0.6311 -1.9595 -0.4156
22238SOL    HW268156   4.971   6.026   9.996 -0.2965 -1.4923  0.3065
22239SOL     OW68157   7.479   2.231   9.348  0.2301 -0.9044  0.2552
22239SOL    HW168158   7.386   2.213   9.363  0.6473 -2.4702  1.2813
22239SOL    HW268159   7.481   2.315   9.303 -1.6268 -0.3309  1.1579
22240SOL     OW68160   5.744   6.636   0.713  0.3071 -0.2284 -0.5267
22240SOL    HW168161   5.832   6.628   0.750  0.5960  0.0997 -1.1239
22240SOL    HW268162   5.702   6.703   0.768 -0.2900 -1.8346  1.0572
22241SOL     OW68163   7.502   1.160   9.413 -0.0237  0.1441 -0.2020
22241SOL    HW168164   7.410   1.172   9.390 -0.1626 -0.5776 -0.0478
22241SOL    HW268165   7.505   1.078   9.461  0.9231 -0.6682 -1.5490
22242SOL     OW68166   1.957   2.092   3.143  0.1149 -0.0871 -0.2379
22242SOL    HW168167   1.969   2.148   3.067  0.9841  0.3736  0.2235
22242SOL    HW268168   1.984   2.146   3.217  0.4699 -0.9325  0.2649
22243SOL     OW68169   1.313   2.346   4.272  0.6731  0.0826 -0.1171
22243SOL    HW168170   1.387   2.384   4.224  2.0139 -1.1870  0.8752
22243SOL    HW268171   1.337   2.255   4.285 -0.8346 -0.2258  0.7105
22244SOL     OW68172   3.628   0.932   7.860  0.4276 -0.3165  0.1740
22244SOL    HW168173   3.695   0.864   7.860  0.0440 -0.7851 -2.0994
22244SOL    HW268174   3.546   0.884   7.869  0.2117 -0.0972 -0.5611
22245SOL     OW68175   5.436   6.657   0.112  0.3229 -0.0382  0.3802
22245SOL    HW168176   5.446   6.583   0.053  0.0372 -0.9100  1.3995
22245SOL    HW268177   5.460   6.623   0.198 -0.2948  0.9137  0.9484
22246SOL     OW68178   7.194   7.347   1.687 -0.5013  0.2093 -0.2829
22246SOL    HW168179   7.251   7.270   1.678 -2.6933 -1.3475 -2.3304
22246SOL    HW268180   7.132   7.322   1.755 -1.1519  0.1466 -0.8804
22247SOL     OW68181   5.538   5.839  10.551 -0.8319 -0.3939  0.0826
22247SOL    HW168182   5.565   5.748  10.541  1.7091  0.4479 -2.0237
22247SOL    HW268183   5.459   5.835  10.605 -0.4759 -3.7512  0.5845
22248SOL     OW68184   3.706   3.565   4.754  0.1861  0.2144 -0.6395
22248SOL    HW168185   3.699   3.560   4.849  1.0016  2.7191 -0.3875
22248SOL    HW268186   3.780   3.508   4.732  0.7942  0.5954  0.3706
22249SOL     OW68187   0.335   7.413   9.410 -0.6584  0.3933  0.2523
22249SOL    HW168188   0.302   7.501   9.427 -0.3380  0.2608  1.7214
22249SOL    HW268189   0.324   7.367   9.493  1.9074 -0.0699  0.4123
22250SOL     OW68190   1.050   2.202  10.166 -0.1705  0.1662  0.4883
22250SOL    HW168191   1.000   2.155  10.232  0.0410 -0.9381 -0.1247
22250SOL    HW268192   1.113   2.138  10.132  0.0277  0.8349 -0.4642
22251SOL     OW68193   5.331   1.210   1.827 -0.2390  0.6623 -0.1029
22251SOL    HW168194   5.341   1.187   1.920  0.3766  2.1094  0.2306
22251SOL    HW268195   5.240   1.190   1.806 -0.4264  0.4547  0.8632
22252SOL     OW68196   5.688   3.484  11.473 -0.1343  0.2645 -0.6719
22252SOL    HW168197   5.593   3.479  11.467 -0.1110 -0.9302 -0.2833
22252SOL    HW268198   5.716   3.517  11.388 -0.7736 -1.4444 -1.5868
22253SOL     OW68199   4.092   7.160   0.374 -0.3819  0.2286  0.1222
22253SOL    HW168200   4.068   7.196   0.460  0.6873  0.5704  0.2981
22253SOL    HW268201   4.033   7.204   0.313 -0.3936  0.8488  0.5605
22254SOL     OW68202   2.114   7.357   7.314 -0.3478 -0.5742  0.2193
22254SOL    HW168203   2.021   7.355   7.338 -1.0936 -0.3117 -2.3642
22254SOL    HW268204   2.119   7.420   7.242  2.1490  0.6510  1.3158
22255SOL     OW68205   1.150   5.556   4.914  0.8425  0.6992 -0.9786
22255SOL    HW168206   1.072   5.524   4.870  1.1531 -0.2891 -0.8463
22255SOL    HW268207   1.179   5.631   4.861  0.1532  0.6930 -1.3682
22256SOL     OW68208   1.604   3.459   3.750  0.1748  0.4675  0.4771
22256SOL    HW168209   1.559   3.516   3.813  0.1964 -0.1709  1.0773
22256SOL    HW268210   1.645   3.520   3.688  0.4539  1.1182  1.2849
22257SOL     OW68211   5.820   6.903   3.116 -0.2184  0.3348 -0.0633
22257SOL    HW168212   5.878   6.873   3.046 -0.3976  0.5572 -0.3111
22257SOL    HW268213   5.879   6.939   3.182 -0.1283  2.2903 -1.1285
22258SOL     OW68214   6.155   5.669  10.389  0.1223 -0.2826  0.5526
22258SOL    HW168215   6.243   5.682  10.354  0.0170 -0.9072  0.0551
22258SOL    HW268216   6.140   5.746  10.444  0.5539  0.3605 -0.2182
22259SOL     OW68217   1.117   1.876  11.108 -0.0608 -0.4746  0.0122
22259SOL    HW168218   1.117   1.785  11.135 -2.6099 -0.4258  0.4182
22259SOL    HW268219   1.056   1.879  11.034 -1.7124  1.1863  1.3336
22260SOL     OW68220   7.666   4.404   4.064  0.3904  0.0411 -0.5206
22260SOL    HW168221   7.604   4.362   4.123 -0.1576 -1.1793 -1.8997
22260SOL    HW268222   7.635   4.382   3.976  0.1399  3.2355 -1.3773
22261SOL     OW68223   4.289   0.109  12.307 -0.8226  0.0213  0.0668
22261SOL    HW168224   4.244   0.187  12.342 -1.1955 -0.1344 -0.0671
22261SOL    HW268225   4.229   0.074  12.242 -0.7129 -0.4598  0.2254
22262SOL     OW68226   3.608   2.649   7.784 -0.4288 -0.9703 -0.1071
22262SOL    HW168227   3.680   2.673   7.842 -0.8559  0.9333 -0.3152
22262SOL    HW268228   3.585   2.730   7.739 -0.9253 -2.1355 -2.0498
22263SOL     OW68229   3.944   4.702  11.113 -0.1535 -0.1577 -0.7312
22263SOL    HW168230   3.944   4.763  11.038 -0.5888 -1.3467 -1.7418
22263SOL    HW268231   3.856   4.663  11.111 -0.0916 -0.3590  0.2849
22264SOL     OW68232   2.173   0.230   0.528 -0.0523  0.2801  0.0076
22264SOL    HW168233   2.212   0.171   0.464  0.2109  0.3269  0.1245
22264SOL    HW268234   2.239   0.298   0.542 -0.1035  0.2674  0.3309
22265SOL     OW68235   1.213   5.129   3.743  0.4761  0.3608 -0.1095
22265SOL    HW168236   1.125   5.125   3.707  0.5276 -0.4206 -0.1641
22265SOL    HW268237   1.205   5.185   3.821  0.2781  1.7121 -1.0524
22266SOL     OW68238   0.283   0.310   7.425 -0.5183 -0.4990 -0.3336
22266SOL    HW168239   0.345   0.263   7.370  0.1679 -0.3991  0.3409
22266SOL    HW268240   0.227   0.242   7.461 -1.5873 -0.4870 -1.8683
22267SOL     OW68241   5.456   2.106   6.108 -0.3147  0.1968  0.4287
22267SOL    HW168242   5.433   2.173   6.172 -2.2162  0.5593 -0.5365
22267SOL    HW268243   5.478   2.155   6.029 -2.2269 -0.2546 -0.4426
22268SOL     OW68244   7.144   3.725  12.288  0.6033  0.3467 -0.1652
22268SOL    HW168245   7.209   3.705  12.355 -0.2188  2.9855  1.5899
22268SOL    HW268246   7.089   3.646  12.283  0.9904 -0.0990  1.9232
22269SOL     OW68247   5.229   2.818  10.159  0.1545 -0.2168  0.1787
22269SOL    HW168248   5.267   2.766  10.089  0.9773 -0.4034  0.7504
22269SOL    HW268249   5.182   2.888  10.113  1.6422  0.3424 -0.5635
22270SOL     OW68250   6.334   6.683   1.106 -0.1283  0.2142  0.2576
22270SOL    HW168251   6.332   6.740   1.030 -0.8688 -0.4092 -0.2067
22270SOL    HW268252   6.425   6.656   1.114 -0.0246  0.3893 -0.3225
22271SOL     OW68253   4.348   1.069   8.992 -0.4831 -0.2752  0.7029
22271SOL    HW168254   4.371   0.976   8.988 -1.9252 -0.6257 -1.7081
22271SOL    HW268255   4.284   1.076   9.062  0.3733 -0.8706  1.5737
22272SOL     OW68256   3.476   0.752   2.797  0.5280  0.1412  0.9131
22272SOL    HW168257   3.543   0.799   2.747  0.3697 -0.1640  0.4151
22272SOL    HW268258   3.512   0.664   2.809 -0.4463 -0.5355 -0.7514
22273SOL     OW68259   2.216   1.418  10.958  0.1719  0.3478  0.0007
22273SOL    HW168260   2.286   1.447  11.017  1.0204  0.9738 -1.2725
22273SOL    HW268261   2.157   1.493  10.952 -0.7371 -0.2240  1.1787
22274SOL     OW68262   3.562   1.972   0.956 -0.3135  0.2197  0.8532
22274SOL    HW168263   3.638   1.922   0.926  0.1789  0.9325  0.8926
22274SOL    HW268264   3.487   1.927   0.918  0.2589  0.8638 -1.1447
22275SOL     OW68265   6.384   3.632   0.379 -0.8588  0.3384  0.2642
22275SOL    HW168266   6.359   3.591   0.297 -0.5537 -1.6456  1.1091
22275SOL    HW268267   6.466   3.677   0.361 -0.2544 -0.9614 -0.2761
22276SOL     OW68268   6.905   3.235   1.354  0.1002  0.4470 -0.0537
22276SOL    HW168269   6.824   3.287   1.353 -0.1116  0.1225  0.1968
22276SOL    HW268270   6.925   3.222   1.261 -1.0747 -0.9225 -0.1494
22277SOL     OW68271   7.898   6.198   9.566 -0.0366 -0.3411 -0.2969
22277SOL    HW168272   7.890   6.246   9.648 -0.2562  0.3940 -0.7470
22277SOL    HW268273   7.808   6.193   9.532  0.1182 -0.2305 -0.7246
22278SOL     OW68274   2.431   0.389   0.548  0.3044 -0.2233 -0.6549
22278SOL    HW168275   2.457   0.428   0.631 -2.8028  1.2716 -0.2377
22278SOL    HW268276   2.437   0.295   0.562 -3.1917 -0.2054  2.5438
22279SOL     OW68277   0.107   3.681   7.703 -0.1819 -0.3299  0.1337
22279SOL    HW168278   0.102   3.594   7.665  0.9009 -0.9434  1.3367
22279SOL    HW268279   0.186   3.720   7.664 -1.0100  0.4038 -0.9013
22280SOL     OW68280   0.057   4.818   3.186  0.2299  0.0331  0.3210
22280SOL    HW168281  -0.035   4.798   3.205  0.5799 -1.9168  0.1142
22280SOL    HW268282   0.066   4.910   3.210 -2.0883  0.6527 -0.8176
22281SOL     OW68283   1.206   6.694   5.847 -1.1616 -0.1135  0.2101
22281SOL    HW168284   1.170   6.775   5.882 -0.2179  0.9105 -1.0910
22281SOL    HW268285   1.158   6.625   5.893 -0.4714  1.1169  2.9452
22282SOL     OW68286   7.588   2.996   1.407  0.2174 -0.2659  0.2675
22282SOL    HW168287   7.567   3.062   1.342 -0.0410  0.5760  1.1791
22282SOL    HW268288   7.584   2.913   1.360 -1.4955  0.1757 -0.4390
22283SOL     OW68289   0.533   5.562  10.012 -0.2805 -0.2536  0.7675
22283SOL    HW168290   0.494   5.648  10.025 -0.4463 -0.3107  0.6569
22283SOL    HW268291   0.624   5.578   9.992 -0.3294 -0.1015  0.6734
22284SOL     OW68292   4.203   7.428   2.507 -0.9230  0.2490  0.7084
22284SOL    HW168293   4.180   7.491   2.575  1.0471  1.2939  0.4809
22284SOL    HW268294   4.229   7.349   2.555 -0.5667  0.6140  1.1232
22285SOL     OW68295   4.181   1.332   0.267  0.1145 -0.2176 -0.4436
22285SOL    HW168296   4.171   1.342   0.172 -1.7060  0.6507 -0.2102
22285SOL    HW268297   4.118   1.395   0.304 -0.3655 -1.6643  1.3236
22286SOL     OW68298   0.848   4.983   8.515 -0.7953  0.2494  0.5099
22286SOL    HW168299   0.793   4.910   8.486 -0.1518 -0.0876  0.0922
22286SOL    HW268300   0.802   5.020   8.590 -1.0026 -0.7653  0.9060
22287SOL     OW68301   6.911   1.824   3.538  0.4328 -0.0952 -0.3229
22287SOL    HW168302   6.895   1.787   3.626 -1.8993  0.8081 -0.2922
22287SOL    HW268303   6.999   1.860   3.543 -0.4055  1.9619  2.4700
22288SOL     OW68304   3.247   7.830   9.163  0.5459  0.3008  0.3144
22288SOL    HW168305   3.337   7.803   9.182 -0.2926 -2.1622  1.2652
22288SOL    HW268306   3.201   7.748   9.148 -1.7449  1.4354  0.7455
22289SOL     OW68307   4.793   0.459   1.990 -0.9460 -0.2863 -0.0977
22289SOL    HW168308   4.789   0.376   1.942 -0.3584 -0.0538 -0.5520
22289SOL    HW268309   4.859   0.510   1.944 -1.4836  0.5323  0.0314
22290SOL     OW68310   0.104   5.160  10.228 -0.2895  0.2739 -0.1009
22290SOL    HW168311   0.125   5.154  10.322  0.4144 -0.1837 -0.2774
22290SOL    HW268312   0.187   5.183  10.187 -0.7068  0.9645 -0.5659
22291SOL     OW68313   7.857   6.693   7.704 -0.1842 -1.0477 -0.6744
22291SOL    HW168314   7.882   6.776   7.664  0.4885 -1.2660 -0.7126
22291SOL    HW268315   7.924   6.677   7.770 -1.4624 -0.5055  0.8313
22292SOL     OW68316   5.420   1.828  12.313  0.3666  0.1382  0.0400
22292SOL    HW168317   5.413   1.899  12.249  1.3059  0.2439  0.0388
22292SOL    HW268318   5.420   1.873  12.397 -1.7675 -0.0582  0.1927
22293SOL     OW68319   7.454   7.902   0.412 -0.1575 -0.5153  0.2462
22293SOL    HW168320   7.419   7.990   0.397  1.4380  0.1586  0.2292
22293SOL    HW268321   7.484   7.873   0.325  3.6048  0.9250  0.8636
22294SOL     OW68322   5.061   3.021   4.270 -0.0572 -0.2339  0.0386
22294SOL    HW168323   5.043   2.931   4.297  1.5337 -0.4906  0.3079
22294SOL    HW268324   5.099   3.063   4.348  1.3678 -0.0064 -0.7468
22295SOL     OW68325   5.224   6.338  12.272 -0.1243  0.1215 -0.1590
22295SOL    HW168326   5.148   6.380  12.312  0.3472  0.8511 -0.0045
22295SOL    HW268327   5.241   6.389  12.193 -1.5815 -1.8228 -1.8515
22296SOL     OW68328   1.611   7.801   5.821 -0.0026  0.4320  0.6438
22296SOL    HW168329   1.672   7.780   5.892  0.6480  0.5187  0.1234
22296SOL    HW268330   1.541   7.737   5.829 -0.3797  0.9671  1.8852
22297SOL     OW68331   3.404   7.819  11.699  0.5198 -0.2131 -0.4066
22297SOL    HW168332   3.378   7.897  11.748  2.0566 -0.4145  0.7988
22297SOL    HW268333   3.396   7.747  11.762  0.5497 -0.8064 -1.0629
22298SOL     OW68334   3.021   3.546   3.225  0.2925 -0.1299  0.3282
22298SOL    HW168335   2.998   3.526   3.134 -0.0728  0.2947  0.3244
22298SOL    HW268336   3.028   3.461   3.267  0.2352 -0.3215 -0.0459
22299SOL     OW68337   7.722   2.911   0.390 -0.1510 -0.0812 -0.4026
22299SOL    HW168338   7.805   2.917   0.437 -0.3541  1.1208 -0.1577
22299SOL    HW268339   7.667   2.854   0.444  0.1561 -0.0085 -0.0112
22300SOL     OW68340   2.828   0.514   4.844 -0.3696  0.0000  0.2860
22300SOL    HW168341   2.763   0.468   4.791 -0.4793  0.4701  0.0074
22300SOL    HW268342   2.911   0.494   4.802 -0.2938 -0.8847  0.8459
22301SOL     OW68343   2.014   2.657   6.753 -0.0990 -0.6393  0.2387
22301SOL    HW168344   1.933   2.638   6.707  0.5949 -0.9994 -0.8695
22301SOL    HW268345   2.039   2.744   6.723  0.5873 -1.0578 -0.4148
22302SOL     OW68346   2.030   5.969   8.926 -0.4009 -0.3298 -0.1671
22302SOL    HW168347   2.079   6.012   8.857  3.6298 -0.1643  2.4715
22302SOL    HW268348   1.956   6.027   8.943  0.9666  1.8971 -1.3795
22303SOL     OW68349   1.352   1.328   8.575 -0.1945  0.0564 -0.3146
22303SOL    HW168350   1.372   1.242   8.611 -0.5096 -0.0870 -0.4836
22303SOL    HW268351   1.316   1.311   8.488  0.4603  0.4006 -0.6575
22304SOL     OW68352   5.654   3.603   9.015  0.0322  0.3436  0.2380
22304SOL    HW168353   5.578   3.573   8.965 -0.6216 -0.0252  1.4094
22304SOL    HW268354   5.677   3.687   8.976 -0.0014 -0.2596 -1.1287
22305SOL     OW68355   2.583   7.457   8.689  0.4211  0.2476 -0.3353
22305SOL    HW168356   2.626   7.442   8.773 -0.3892  1.3951  0.3065
22305SOL    HW268357   2.557   7.549   8.691 -0.7404 -0.0347 -1.3024
22306SOL     OW68358   4.931   3.286   6.287  0.3696 -0.4805 -0.4343
22306SOL    HW168359   4.935   3.254   6.197  1.0610 -1.7871  0.0314
22306SOL    HW268360   4.866   3.230   6.329 -1.7960  1.6812 -0.6571
22307SOL     OW68361   0.018   0.027   1.368  0.0623  0.2200 -0.7526
22307SOL    HW168362   0.016  -0.005   1.278 -1.6069  1.3951 -1.1839
22307SOL    HW268363   0.003  -0.050   1.422  0.6141 -0.4154 -1.4925
22308SOL     OW68364   4.201   1.716   0.063  0.0346 -0.1435 -0.1126
22308SOL    HW168365   4.195   1.621   0.059  2.1181 -0.5010  2.3366
22308SOL    HW268366   4.185   1.738   0.155  2.5365  1.5026  0.0449
22309SOL     OW68367   7.502   4.748  11.850 -0.1071  0.5616 -0.1718
22309SOL    HW168368   7.519   4.771  11.759  2.1836 -0.3451 -0.0282
22309SOL    HW268369   7.563   4.801  11.901  0.6124 -0.9605  0.6126
22310SOL     OW68370   4.974   0.755   9.377 -0.0986  0.1500 -0.0957
22310SOL    HW168371   4.984   0.743   9.471  0.3583  0.9106 -0.0345
22310SOL    HW268372   5.063   0.752   9.342 -0.2302  0.2674 -0.4514
22311SOL     OW68373   7.892   2.276  10.891  0.0233 -0.1649  0.6177
22311SOL    HW168374   7.797   2.261  10.894 -0.4120  2.1119  0.4513
22311SOL    HW268375   7.929   2.206  10.944 -1.7846 -0.9411  0.9456
22312SOL     OW68376   1.979   1.606  11.118 -0.5007 -0.0920  1.0628
22312SOL    HW168377   2.003   1.623  11.027 -0.3955 -1.0614  0.9036
22312SOL    HW268378   2.050   1.644  11.169 -0.5943  0.5181  0.7455
22313SOL     OW68379   5.294   2.522   4.654 -0.0677 -0.0693  0.5900
22313SOL    HW168380   5.230   2.585   4.622 -2.7176 -1.8724  1.9857
22313SOL    HW268381   5.371   2.534   4.598 -2.7343  0.0013 -3.3985
22314SOL     OW68382   2.340   2.618  10.910  0.5542  0.1666 -0.1404
22314SOL    HW168383   2.331   2.566  10.831 -0.4714  1.0806 -0.6654
22314SOL    HW268384   2.420   2.668  10.897 -0.2946  1.3194 -1.2649
22315SOL     OW68385   4.601   7.037   3.176 -0.0823  0.0704  0.1256
22315SOL    HW168386   4.551   7.048   3.095 -1.0346 -2.7780  0.2155
22315SOL    HW268387   4.654   6.958   3.161  0.3598 -0.0239  1.9672
22316SOL     OW68388   6.761   4.084   9.238 -0.1666  0.0187 -0.1806
22316SOL    HW168389   6.840   4.122   9.276  1.8842 -3.3099 -0.6722
22316SOL    HW268390   6.692   4.149   9.254  2.2537  2.2928  1.8907
22317SOL     OW68391   2.752   5.836   6.844  0.7450  0.3215 -0.2457
22317SOL    HW168392   2.735   5.755   6.796 -0.7077 -1.3133  2.7444
22317SOL    HW268393   2.666   5.874   6.859  1.3102  1.7416 -0.4535
22318SOL     OW68394   5.984   0.766  10.963  0.1663 -0.1790  0.8325
22318SOL    HW168395   6.040   0.779  10.886  1.1737 -1.1726  1.3749
22318SOL    HW268396   5.905   0.818  10.944  2.2261  3.3820  1.1533
22319SOL     OW68397   3.814   5.431   9.473 -0.3227  0.1586 -0.3526
22319SOL    HW168398   3.847   5.370   9.406  1.6399 -0.0848  0.7493
22319SOL    HW268399   3.735   5.389   9.506  0.6483 -1.5711 -0.0501
22320SOL     OW68400   4.721   5.238  12.035  0.4892  0.3095  0.0218
22320SOL    HW168401   4.708   5.227  12.129 -1.0951  0.1552 -0.1827
22320SOL    HW268402   4.704   5.331  12.020  0.1140  0.2122 -0.1817
22321SOL     OW68403   7.941   0.942   5.751  0.1431  0.5846 -0.0205
22321SOL    HW168404   7.918   0.973   5.838 -0.4206  0.6213 -0.1775
22321SOL    HW268405   8.034   0.963   5.742  0.5874 -0.7401  1.1232
22322SOL     OW68406   3.981   5.547   1.539  0.0179  0.6578  0.0955
22322SOL    HW168407   4.050   5.613   1.546  0.5031  0.1873 -0.1712
22322SOL    HW268408   3.935   5.569   1.458  0.0850  0.7494  0.0825
22323SOL     OW68409   4.600   5.376   3.006 -0.2248  0.0361  0.1919
22323SOL    HW168410   4.563   5.463   3.021 -0.5941 -0.2184  0.8051
22323SOL    HW268411   4.587   5.360   2.913 -1.1787  0.1832  0.2893
22324SOL     OW68412   2.730   7.493   1.371 -0.0246  0.3638 -0.2825
22324SOL    HW168413   2.701   7.573   1.328  0.6959  1.1699  0.6936
22324SOL    HW268414   2.662   7.475   1.437  0.9316  1.4977  1.0787
22325SOL     OW68415   5.956   6.585   5.241 -0.4359  0.0656  0.1774
22325SOL    HW168416   6.028   6.601   5.303  0.2437  2.5834 -1.1433
22325SOL    HW268417   5.999   6.559   5.160 -1.1606 -0.3119 -0.0989
22326SOL     OW68418   6.740   7.234   7.843 -0.3777  0.8143  0.2083
22326SOL    HW168419   6.826   7.227   7.802  0.5158 -1.6272  2.2070
22326SOL    HW268420   6.678   7.241   7.770  1.2402 -1.1956 -1.4605
22327SOL     OW68421   0.293   0.348   2.658  0.3966 -0.2138 -0.1961
22327SOL    HW168422   0.245   0.299   2.725 -2.1581  0.4642 -1.3967
22327SOL    HW268423   0.259   0.313   2.575  1.8951  0.4563 -1.1336
22328SOL     OW68424   5.909   2.295  11.138 -0.3950  0.0897 -0.2935
22328SOL    HW168425   5.816   2.298  11.115 -0.4546 -1.1449 -0.2813
22328SOL    HW268426   5.927   2.381  11.176 -1.8428 -0.0784  0.8572
22329SOL     OW68427   1.068   7.216   8.475  0.0946 -0.3766 -0.7736
22329SOL    HW168428   1.150   7.186   8.436  0.5737  0.2272 -0.2581
22329SOL    HW268429   1.026   7.137   8.509  0.9855 -0.5726 -0.0861
22330SOL     OW68430   0.951   1.823   6.052 -0.2787 -0.1022 -0.0066
22330SOL    HW168431   0.881   1.791   6.110 -0.5130  2.5863  1.3377
22330SOL    HW268432   0.904   1.856   5.975 -0.4560  0.9909  0.5549
22331SOL     OW68433   2.302   1.792  11.785 -0.2601 -0.4638  0.0077
22331SOL    HW168434   2.284   1.872  11.834  1.2741 -0.6573  0.9622
22331SOL    HW268435   2.217   1.766  11.750 -0.6200  2.1674 -1.2995
22332SOL     OW68436   3.560   0.770   0.883 -0.2701  0.0165  0.1359
22332SOL    HW168437   3.552   0.861   0.857  0.1857  0.4510  1.4363
22332SOL    HW268438   3.608   0.728   0.811  0.0215  0.9267 -0.2105
22333SOL     OW68439   6.947   3.913  11.356  0.4476 -0.3550  0.0535
22333SOL    HW168440   6.884   3.985  11.351  0.9777  0.5695  3.6953
22333SOL    HW268441   7.024   3.952  11.398  1.4546 -2.6540  0.4708
22334SOL     OW68442   6.424   5.758   9.917 -0.1750  0.2698 -0.2151
22334SOL    HW168443   6.359   5.758   9.987 -0.1864 -0.7156 -0.2176
22334SOL    HW268444   6.410   5.841   9.872 -2.1194 -0.3397 -0.8324
22335SOL     OW68445   1.887   3.018   2.579  0.4008  0.4339 -0.3238
22335SOL    HW168446   1.836   3.098   2.567  1.1011  0.8539 -0.5777
22335SOL    HW268447   1.891   2.978   2.492 -0.5615 -0.2672 -0.0589
22336SOL     OW68448   0.542   0.749  12.078  0.0570  0.2349 -0.5247
22336SOL    HW168449   0.615   0.750  12.140  1.0781  2.1691 -1.6459
22336SOL    HW268450   0.484   0.818  12.110 -1.9559 -2.0179  1.0036
22337SOL     OW68451   1.626   7.003   2.833  0.3755 -0.0436 -0.2059
22337SOL    HW168452   1.655   6.921   2.794  1.4767  0.9448 -1.5525
22337SOL    HW268453   1.534   7.012   2.807  0.5396 -0.3637 -0.8848
22338SOL     OW68454   3.099   2.554  12.114  0.5159  0.1278 -0.3760
22338SOL    HW168455   3.093   2.474  12.060  1.3938 -1.0144  1.1473
22338SOL    HW268456   3.193   2.572  12.120  0.2974  2.1646 -1.8605
22339SOL     OW68457   4.979   5.598  12.371 -0.1835 -0.0497  0.2277
22339SOL    HW168458   5.032   5.533  12.325  0.9084  0.1594  1.1337
22339SOL    HW268459   5.007   5.682  12.334 -0.6295 -0.0010 -0.0058
22340SOL     OW68460   5.757   6.288   1.274  0.3943  0.2855  0.1970
22340SOL    HW168461   5.668   6.289   1.309  0.7647 -1.7516  1.3424
22340SOL    HW268462   5.798   6.366   1.310 -0.6542  0.7795  0.3678
22341SOL     OW68463   7.723   0.528   0.090 -0.5485  0.3547  0.4274
22341SOL    HW168464   7.676   0.497   0.012  2.6518  0.1108 -1.5838
22341SOL    HW268465   7.770   0.606   0.061 -0.0975  0.8929  2.4455
22342SOL     OW68466   3.089   7.702  10.234  0.2736  0.6016  0.3812
22342SOL    HW168467   3.133   7.689  10.150  0.4132  0.8948  0.4089
22342SOL    HW268468   3.073   7.613  10.267  0.8082  0.4946  0.3520
22343SOL     OW68469   6.247   6.630  10.260  0.2119 -0.2889 -0.2834
22343SOL    HW168470   6.208   6.636  10.347 -0.7246  0.5819 -0.7365
22343SOL    HW268471   6.200   6.558  10.217  0.7960 -0.8353 -0.0212
22344SOL     OW68472   2.679   3.783  12.095 -0.0017 -0.1935  0.5710
22344SOL    HW168473   2.715   3.696  12.079 -1.3409 -0.6349 -0.3016
22344SOL    HW268474   2.587   3.767  12.116  0.3758  0.8322  3.3941
22345SOL     OW68475   0.798   1.290   3.013 -0.3037  0.2758  0.0969
22345SOL    HW168476   0.761   1.300   3.100  0.6217  0.2897  0.4987
22345SOL    HW268477   0.727   1.251   2.961 -0.0663 -2.1710  1.4648
22346SOL     OW68478   4.154   3.498  10.533  0.4598 -0.4757  0.1696
22346SOL    HW168479   4.150   3.484  10.627  1.1140  0.5556  0.3749
22346SOL    HW268480   4.123   3.416  10.494 -0.8969 -0.5185  1.2769
22347SOL     OW68481   7.733   5.785   2.532  0.6028  0.2079  0.1670
22347SOL    HW168482   7.675   5.806   2.606  0.0379 -2.0254  0.4519
22347SOL    HW268483   7.782   5.708   2.562  0.9299 -0.2731 -1.4998
22348SOL     OW68484   0.919   7.145  11.038 -0.6952 -0.4752 -0.5723
22348SOL    HW168485   1.008   7.168  11.012 -1.0268  2.3393  0.5007
22348SOL    HW268486   0.863   7.198  10.982 -1.7749 -2.3104 -1.3283
22349SOL     OW68487   6.845   1.561  11.971 -0.4206  0.0418  0.1221
22349SOL    HW168488   6.905   1.533  11.902  0.2041 -0.1187  0.7279
22349SOL    HW268489   6.763   1.578  11.925 -0.6577 -2.1533 -0.3918
22350SOL     OW68490   7.199   4.781  12.096  0.2782  0.0161  0.0116
22350SOL    HW168491   7.208   4.826  12.012  0.2880 -0.8298 -0.4467
22350SOL    HW268492   7.289   4.759  12.120  0.4170  1.4738  0.9354
22351SOL     OW68493   3.617   2.408   4.860 -0.2417 -0.6579 -0.3731
22351SOL    HW168494   3.605   2.493   4.817  3.0790  0.3199  0.2993
22351SOL    HW268495   3.630   2.347   4.787  0.1049 -0.0255 -0.8586
22352SOL     OW68496   0.864   2.329   4.527 -0.2200 -0.3744  0.1084
22352SOL    HW168497   0.927   2.401   4.533  0.3716 -0.8238 -0.5074
22352SOL    HW268498   0.800   2.346   4.596  1.1667 -0.4782  1.4612
22353SOL     OW68499   3.454   6.714   5.505  0.1671  0.5183 -0.1866
22353SOL    HW168500   3.487   6.682   5.421  1.7377  0.2276  0.4925
22353SOL    HW268501   3.533   6.728   5.557 -0.7633  0.8506  1.1843
22354SOL     OW68502   7.120   1.831   2.291 -0.0189  0.1842  0.1774
22354SOL    HW168503   7.029   1.827   2.321 -0.1089 -0.4523 -0.1671
22354SOL    HW268504   7.171   1.845   2.371 -0.3302 -0.6363  0.5360
22355SOL     OW68505   5.034   0.412   5.965  0.4433 -0.0789  0.1297
22355SOL    HW168506   4.939   0.420   5.957  0.2551 -0.2572  1.8876
22355SOL    HW268507   5.068   0.499   5.943 -0.2040  0.2914  0.5737
22356SOL     OW68508   3.752   0.867   2.751 -0.5296 -0.6687 -0.3648
22356SOL    HW168509   3.739   0.906   2.665  0.8167 -1.1770 -0.8202
22356SOL    HW268510   3.801   0.787   2.734  1.0913 -0.0267  0.9689
22357SOL     OW68511   1.198   3.015   0.065 -0.3831 -0.9772 -0.1747
22357SOL    HW168512   1.161   2.934   0.101 -0.1276  0.1625  2.9351
22357SOL    HW268513   1.124   3.076   0.065  0.0157 -0.4899  0.0150
22358SOL     OW68514   4.254   7.109   8.761  0.3205 -0.3495  0.6795
22358SOL    HW168515   4.250   7.105   8.666 -1.7535 -0.5493  0.7190
22358SOL    HW268516   4.164   7.131   8.788  1.0289  0.4769  2.5525
22359SOL     OW68517   6.786   1.451   7.513 -0.1121  0.1403  0.3542
22359SOL    HW168518   6.826   1.384   7.459 -2.6863 -1.2417  0.0036
22359SOL    HW268519   6.818   1.433   7.602 -0.2649 -1.1512  0.1612
22360SOL     OW68520   4.188   6.463   3.993  0.5052  0.0578  0.0159
22360SOL    HW168521   4.136   6.484   4.071  0.5579 -2.0756  0.6837
22360SOL    HW268522   4.267   6.515   4.003 -0.5132  1.6609  0.1093
22361SOL     OW68523   6.919   3.160   4.557  0.5000 -0.0989 -0.0650
22361SOL    HW168524   6.987   3.127   4.616  0.8498  1.1910  0.2814
22361SOL    HW268525   6.933   3.255   4.555 -0.2061 -0.0044 -1.3582
22362SOL     OW68526   4.433   5.363   9.286  0.0954  0.0591 -0.1415
22362SOL    HW168527   4.428   5.330   9.197  2.7517  1.2002 -0.7981
22362SOL    HW268528   4.463   5.288   9.337 -0.8901 -0.4423 -0.2740
22363SOL     OW68529   7.038   1.574   0.606  0.0547 -0.1522 -0.1406
22363SOL    HW168530   7.105   1.598   0.670  2.0401  1.6331 -2.6972
22363SOL    HW268531   7.045   1.479   0.597  1.4502 -0.1211  0.4493
22364SOL     OW68532   6.082   1.903   0.525  0.4753 -0.5037  0.5161
22364SOL    HW168533   5.993   1.918   0.493  1.0866  0.8935 -0.6356
22364SOL    HW268534   6.090   1.808   0.531 -1.0257 -0.6567  0.4851
22365SOL     OW68535   4.970   2.155   0.420  0.3038 -0.2981  0.3593
22365SOL    HW168536   4.893   2.206   0.395  0.1454 -0.1546  1.1288
22365SOL    HW268537   5.013   2.135   0.337 -0.0152  0.4798 -0.0037
22366SOL     OW68538   3.452   1.852   4.201  0.2403  0.4137 -0.0746
22366SOL    HW168539   3.485   1.841   4.291 -1.4104  0.2264  0.5387
22366SOL    HW268540   3.519   1.904   4.157  1.0906  0.4963  1.2619
22367SOL     OW68541   1.097   2.523  10.978 -0.7967 -0.1431 -0.2589
22367SOL    HW168542   1.049   2.481  10.907 -0.2409  0.7159 -1.1662
22367SOL    HW268543   1.041   2.594  11.008 -0.8847 -0.2970 -0.0504
22368SOL     OW68544   1.570   1.912   4.828  0.3068 -0.0649  0.3810
22368SOL    HW168545   1.630   1.888   4.898 -0.1533 -0.7074  0.5729
22368SOL    HW268546   1.515   1.834   4.816 -0.3703  0.4443  0.0891
22369SOL     OW68547   1.999   6.878   1.544  0.0055  0.0777 -0.2948
22369SOL    HW168548   2.056   6.901   1.618  0.7095 -1.2564 -0.3881
22369SOL    HW268549   2.005   6.954   1.486 -0.1164  0.9119  0.7472
22370SOL     OW68550   7.482   5.112  11.596 -0.1805  0.4813 -0.3523
22370SOL    HW168551   7.509   5.112  11.504 -2.6542  0.7457 -1.1665
22370SOL    HW268552   7.426   5.035  11.605  0.7644 -0.0626  1.2099
22371SOL     OW68553   0.658   2.341   8.030 -0.4058  0.3228  0.0086
22371SOL    HW168554   0.679   2.318   7.940  3.6604  0.2502  0.7600
22371SOL    HW268555   0.739   2.324   8.079 -1.4361  3.1281  3.1557
22372SOL     OW68556   2.700   6.669   6.504  0.0594  0.2803 -1.0634
22372SOL    HW168557   2.697   6.575   6.488  0.1017  0.1191 -0.1928
22372SOL    HW268558   2.781   6.682   6.554 -1.0228  0.4419  0.7451
22373SOL     OW68559   6.734   5.231   4.273  0.3604  0.5853  0.7029
22373SOL    HW168560   6.671   5.282   4.222  0.8189  0.6637  0.1939
22373SOL    HW268561   6.803   5.294   4.294  2.6513 -0.4320 -2.8021
22374SOL     OW68562   1.476   2.429   3.101 -0.3404 -0.0367  0.1869
22374SOL    HW168563   1.415   2.483   3.150  0.7688 -0.2212  1.8774
22374SOL    HW268564   1.512   2.369   3.167  2.0763  0.4573 -0.5856
22375SOL     OW68565   6.445   2.735   0.049 -0.1516 -0.4181  0.1132
22375SOL    HW168566   6.438   2.729   0.144 -0.5384  0.3725  0.1462
22375SOL    HW268567   6.520   2.680   0.026  1.3861  1.1799  1.0984
22376SOL     OW68568   2.913   2.058   9.000 -0.5744 -0.4168  0.3142
22376SOL    HW168569   2.881   2.017   9.080  1.6430 -0.2963  1.3434
22376SOL    HW268570   2.986   2.003   8.972  0.1979  0.8489 -0.2678
22377SOL     OW68571   0.661   3.409  10.060  0.1496 -0.5676 -0.0764
22377SOL    HW168572   0.739   3.442  10.105  0.1510  2.4013 -2.0211
22377SOL    HW268573   0.594   3.407  10.129  1.5408 -2.0085  1.3461
22378SOL     OW68574   5.712   7.209  10.728  0.6553 -0.4547 -0.1648
22378SOL    HW168575   5.772   7.244  10.662  0.5755 -1.4652 -0.7917
22378SOL    HW268576   5.660   7.284  10.756  2.3096  0.4943  0.5242
22379SOL     OW68577   5.529   0.570   5.454 -0.0031  0.2131 -0.2719
22379SOL    HW168578   5.492   0.487   5.423 -0.3601 -0.0486  0.7995
22379SOL    HW268579   5.609   0.544   5.500 -0.3653  0.4110  0.4763
22380SOL     OW68580   4.242   4.792   3.060  0.1018  0.7792  0.4266
22380SOL    HW168581   4.285   4.748   3.133 -0.6373  0.7979  0.8845
22380SOL    HW268582   4.214   4.721   3.002  0.8540  0.7733  0.0526
22381SOL     OW68583   3.887   0.221  11.572 -0.7609  0.4636  0.1717
22381SOL    HW168584   3.808   0.253  11.616 -0.7419  1.8692 -0.7385
22381SOL    HW268585   3.956   0.283  11.597  0.8102 -2.1976  3.1114
22382SOL     OW68586   4.293   5.085   4.152  0.0395 -0.1678 -0.3669
22382SOL    HW168587   4.348   5.051   4.081 -0.4939 -0.6725 -0.5492
22382SOL    HW268588   4.209   5.039   4.141 -0.0631 -0.2155  0.5627
22383SOL     OW68589   1.472   3.633   5.238 -0.5375 -0.9451  0.1958
22383SOL    HW168590   1.507   3.545   5.230 -0.3908 -0.7557 -1.7359
22383SOL    HW268591   1.534   3.679   5.294 -0.1341 -1.8132  0.4732
22384SOL     OW68592   7.133   6.573   5.825  0.2187 -0.5441  0.1781
22384SOL    HW168593   7.134   6.505   5.757 -1.9042 -4.8576  3.8785
22384SOL    HW268594   7.223   6.573   5.859  0.6157 -0.3397 -0.8422
22385SOL     OW68595   7.517   6.266   9.799  0.5445  0.0429 -0.7176
22385SOL    HW168596   7.492   6.357   9.812  1.1430  0.1624 -0.3783
22385SOL    HW268597   7.544   6.235   9.886 -0.4321 -0.7036 -0.6590
22386SOL     OW68598   4.351   1.216   2.800 -0.1332  0.0624  0.4013
22386SOL    HW168599   4.442   1.239   2.819 -0.6343  1.6175  1.1010
22386SOL    HW268600   4.343   1.124   2.826  1.3085 -0.1932  0.0045
22387SOL     OW68601   6.195   6.758   2.807  0.3054  0.2468  0.2537
22387SOL    HW168602   6.198   6.707   2.888  1.7128 -1.2500 -0.6812
22387SOL    HW268603   6.146   6.837   2.830  1.4940  0.3370  2.8367
22388SOL     OW68604   5.767   6.411   7.933  0.4754 -0.0277 -0.1456
22388SOL    HW168605   5.810   6.330   7.963  1.6860  0.7514  0.2983
22388SOL    HW268606   5.838   6.463   7.896 -0.5619  0.1426 -2.0209
22389SOL     OW68607   1.928   7.740   4.693  0.0645 -0.4552  0.0243
22389SOL    HW168608   1.956   7.660   4.649 -1.1226 -0.4396 -0.8186
22389SOL    HW268609   1.895   7.796   4.622 -0.7419  0.0763  0.7871
22390SOL     OW68610   0.571   2.233   0.245  0.1645 -0.1393  0.4111
22390SOL    HW168611   0.592   2.210   0.335  1.2651 -0.1136  0.1783
22390SOL    HW268612   0.638   2.297   0.220 -0.9433  0.9142  0.0115
22391SOL     OW68613   5.757   2.632   6.122 -0.4218 -0.5759  0.2825
22391SOL    HW168614   5.735   2.651   6.031 -1.9661 -0.0539  0.7471
22391SOL    HW268615   5.683   2.582   6.155  0.3018 -1.1045  1.1616
22392SOL     OW68616   0.381   7.537   0.644  0.8068 -0.2018 -0.5763
22392SOL    HW168617   0.325   7.614   0.630  0.5820 -0.1024  0.7225
22392SOL    HW268618   0.408   7.543   0.736  2.8789 -0.3231 -1.1278
22393SOL     OW68619   0.490   7.397   3.714 -0.4407 -0.2695 -0.7714
22393SOL    HW168620   0.470   7.305   3.697  0.8728 -0.7501  0.0906
22393SOL    HW268621   0.426   7.424   3.780 -0.8317 -0.5686 -1.0269
22394SOL     OW68622   5.370   5.854   1.155 -0.6921  0.1934 -0.3522
22394SOL    HW168623   5.310   5.928   1.169 -0.5832  0.0331  1.0899
22394SOL    HW268624   5.394   5.860   1.063 -2.0179  0.9534 -0.6810
22395SOL     OW68625   3.259   5.529   1.461 -0.0809 -0.1049  0.0614
22395SOL    HW168626   3.242   5.612   1.417  1.2253 -0.4680 -1.2011
22395SOL    HW268627   3.311   5.552   1.538  2.2136  0.1196 -1.4615
22396SOL     OW68628   6.501   4.552  11.890 -0.0855  0.5508  0.1931
22396SOL    HW168629   6.408   4.573  11.897  0.0694  0.6216  3.2705
22396SOL    HW268630   6.544   4.612  11.951  1.5293 -1.7966  1.5198
22397SOL     OW68631   1.887   4.425   8.280 -0.1956  0.3031  0.1922
22397SOL    HW168632   1.828   4.400   8.350 -1.5406  0.1381 -0.9625
22397SOL    HW268633   1.972   4.387   8.305 -0.7471 -0.1341  1.4722
22398SOL     OW68634   4.630   0.326   1.161  0.4372 -0.6300 -0.0970
22398SOL    HW168635   4.708   0.303   1.109  0.2041 -1.4284 -0.1015
22398SOL    HW268636   4.640   0.420   1.177  0.6227 -0.3985 -1.4126
22399SOL     OW68637   4.778   5.896  11.499  0.0141 -0.5441  0.2294
22399SOL    HW168638   4.777   5.991  11.487  3.5072 -0.2288  1.1974
22399SOL    HW268639   4.837   5.864  11.431  0.5824 -1.7080  1.2298
22400SOL     OW68640   4.791   2.019   8.280  0.1497 -0.2659 -0.7606
22400SOL    HW168641   4.800   1.940   8.333  1.1832  0.9759  1.0417
22400SOL    HW268642   4.851   2.082   8.320 -0.7655  1.4978 -1.9940
22401SOL     OW68643   2.407   6.290  10.519  0.2390  0.1144  0.1338
22401SOL    HW168644   2.477   6.354  10.508  0.6854 -0.2642  0.6971
22401SOL    HW268645   2.377   6.303  10.609  0.5648 -0.7006  0.3608
22402SOL     OW68646   0.791   0.197  10.195 -0.1862  0.0719 -0.5218
22402SOL    HW168647   0.857   0.263  10.171 -0.6923  1.2962  1.2144
22402SOL    HW268648   0.720   0.248  10.235 -2.4180 -1.1505 -2.6351
22403SOL     OW68649   7.371   6.948   7.133 -0.3417 -0.7397  0.2627
22403SOL    HW168650   7.356   6.911   7.046 -0.8229  0.1864 -0.0565
22403SOL    HW268651   7.304   6.908   7.188  0.0040 -1.3777  0.2382
22404SOL     OW68652   7.501   3.447   5.085  0.0821  0.2370 -0.3992
22404SOL    HW168653   7.426   3.388   5.095  1.7554 -1.9375  0.2705
22404SOL    HW268654   7.499   3.474   4.993 -0.7217 -0.9522 -0.7532
22405SOL     OW68655   3.516   0.239  12.347  0.4116 -0.0512  0.2948
22405SOL    HW168656   3.527   0.239  12.442 -0.3082  1.5958  0.4145
22405SOL    HW268657   3.457   0.166  12.330  1.1676 -0.8561  1.0054
22406SOL     OW68658   0.263   5.265   4.161 -0.0948 -0.1412 -0.5278
22406SOL    HW168659   0.273   5.192   4.222  1.3455  0.9948  0.6343
22406SOL    HW268660   0.173   5.295   4.175 -0.1495 -0.6175  0.1964
22407SOL     OW68661   4.695   0.646   9.049 -0.5117 -0.4349  0.2038
22407SOL    HW168662   4.678   0.741   9.049 -0.6590 -0.4548 -0.7735
22407SOL    HW268663   4.721   0.626   8.959 -1.2156 -1.4589  0.2128
22408SOL     OW68664   7.665   3.549   7.307  0.2539  0.2471 -0.0934
22408SOL    HW168665   7.691   3.629   7.262  0.3869 -0.0583 -0.5727
22408SOL    HW268666   7.666   3.572   7.400  2.7839  0.1282 -0.0057
22409SOL     OW68667   1.476   0.104   7.978 -0.4522 -0.2415  0.0665
22409SOL    HW168668   1.503   0.148   8.058  1.3013 -2.0598  0.5453
22409SOL    HW268669   1.498   0.166   7.908 -1.2983  1.0422  0.9028
22410SOL     OW68670   6.080   6.637   1.290 -0.0576 -0.3089 -0.1107
22410SOL    HW168671   6.129   6.708   1.249 -0.2649 -0.6118 -0.9093
22410SOL    HW268672   6.039   6.591   1.217 -0.5441 -0.7934  0.4534
22411SOL     OW68673   5.847   3.645   3.893 -0.0888 -0.4552 -0.1821
22411SOL    HW168674   5.913   3.581   3.923 -0.2987 -0.4855  0.2283
22411SOL    HW268675   5.879   3.675   3.808  0.7084 -0.1126  0.2284
22412SOL     OW68676   1.205   6.740  11.579 -0.3082 -0.1755  0.2452
22412SOL    HW168677   1.187   6.789  11.659  2.4296 -0.8473  1.3610
22412SOL    HW268678   1.157   6.658  11.590 -2.8405  1.0924 -0.5056
22413SOL     OW68679   1.509   6.892   3.711 -0.3712  0.5218  0.2724
22413SOL    HW168680   1.520   6.985   3.732 -0.8937  0.2883  1.6914
22413SOL    HW268681   1.593   6.852   3.735  0.5478  0.8667 -2.0892
22414SOL     OW68682   3.697   2.061   2.557  0.0994  0.2315 -0.0070
22414SOL    HW168683   3.608   2.096   2.554  0.0905  0.1699 -0.4709
22414SOL    HW268684   3.752   2.136   2.584  0.1310  0.7028 -1.3404
22415SOL     OW68685   4.965   2.362  11.969  0.3177  0.7157  0.0119
22415SOL    HW168686   4.921   2.393  12.049  0.1266 -0.5707  0.4290
22415SOL    HW268687   4.895   2.326  11.915  0.6006  0.4534 -0.1856
22416SOL     OW68688   7.215   6.860   3.790  0.0055 -0.7017 -0.5833
22416SOL    HW168689   7.281   6.805   3.750  0.1984 -1.0385  0.1690
22416SOL    HW268690   7.235   6.857   3.884 -0.9159 -0.6080 -0.3700
22417SOL     OW68691   0.082   7.589   1.300 -0.3290 -0.4149 -0.0213
22417SOL    HW168692   0.043   7.591   1.387  0.5019 -0.5663  0.3656
22417SOL    HW268693   0.167   7.548   1.313  0.1098  0.2243 -0.7774
22418SOL     OW68694   4.573   3.853  11.193 -1.1145 -0.1030 -0.3693
22418SOL    HW168695   4.669   3.847  11.191 -1.1248 -0.5806  0.2580
22418SOL    HW268696   4.543   3.765  11.172 -1.4070 -0.1312  0.1510
22419SOL     OW68697   1.559   3.352  10.318 -0.3105  0.3331  0.0153
22419SOL    HW168698   1.597   3.427  10.272 -0.1797  0.8389  0.9205
22419SOL    HW268699   1.472   3.383  10.346 -0.9026 -0.3977 -0.9807
22420SOL     OW68700   4.494   1.804  10.755 -0.3400 -0.0271 -0.5519
22420SOL    HW168701   4.434   1.797  10.829  0.4504 -1.1099  0.0194
22420SOL    HW268702   4.492   1.718  10.714 -0.0107  0.2651 -1.1890
22421SOL     OW68703   7.409   1.753  12.035 -0.3650 -0.2135 -0.2718
22421SOL    HW168704   7.318   1.748  12.065  0.4230 -2.2077  2.0738
22421SOL    HW268705   7.440   1.663  12.034  1.8539  0.4744 -0.0983
22422SOL     OW68706   1.831   4.756  11.304 -0.4115 -0.8785  0.4122
22422SOL    HW168707   1.797   4.680  11.256 -2.9310 -0.6421  1.6560
22422SOL    HW268708   1.838   4.725  11.394  0.8358 -0.2840  0.5339
22423SOL     OW68709   0.743   1.263   4.266  0.1675 -0.0195 -0.6012
22423SOL    HW168710   0.765   1.354   4.244 -0.0386  0.2708  0.3712
22423SOL    HW268711   0.779   1.250   4.353 -0.0044 -0.8053 -0.6443
22424SOL     OW68712   0.263   7.102   9.266  0.0985  0.0516 -0.1944
22424SOL    HW168713   0.182   7.142   9.298  0.8242  0.4627  1.2236
22424SOL    HW268714   0.310   7.174   9.223  0.0557  0.0150 -0.3004
22425SOL     OW68715   6.321   2.708   0.651  0.0648  0.3294  0.4668
22425SOL    HW168716   6.311   2.619   0.617  1.1045  1.4198 -3.0653
22425SOL    HW268717   6.234   2.747   0.644 -0.0744  0.0518  0.6389
22426SOL     OW68718   0.685   7.590  12.228  0.2871 -0.7270 -0.0018
22426SOL    HW168719   0.658   7.615  12.316  0.1800 -2.6306  0.5566
22426SOL    HW268720   0.647   7.656  12.171  0.6382  0.7309  1.3961
22427SOL     OW68721   7.706   4.275  10.874  0.5014  0.3888  0.3921
22427SOL    HW168722   7.637   4.223  10.916 -0.6460  0.3081 -1.4618
22427SOL    HW268723   7.662   4.315  10.798  1.9643  2.1425  0.4245
22428SOL     OW68724   4.840   2.860   4.041 -0.1871  0.3219 -0.2931
22428SOL    HW168725   4.778   2.923   4.079  0.2889  0.3204  0.5071
22428SOL    HW268726   4.842   2.788   4.104  0.5918  0.2994 -0.3424
22429SOL     OW68727   0.999   0.218   8.919  0.4918 -0.1553  0.0159
22429SOL    HW168728   0.962   0.300   8.886 -1.2631 -0.0769  2.0268
22429SOL    HW268729   0.952   0.150   8.871  1.7783 -0.0635 -1.4769
22430SOL     OW68730   5.784   5.256   0.747 -0.4705  0.5740  0.3005
22430SOL    HW168731   5.853   5.204   0.788 -0.2978  2.6507  2.9069
22430SOL    HW268732   5.823   5.343   0.737 -2.0176  1.2394 -0.1687
22431SOL     OW68733   2.370   1.658   8.177  0.1285  0.9856 -0.0712
22431SOL    HW168734   2.464   1.657   8.196  0.0671  0.4318  0.2058
22431SOL    HW268735   2.351   1.751   8.159  0.6350  1.1723  0.3189
22432SOL     OW68736   2.517   5.892   1.486  0.0295  0.0113 -0.0069
22432SOL    HW168737   2.517   5.827   1.416  2.7893  0.8934 -0.9587
22432SOL    HW268738   2.610   5.909   1.504 -0.5930  1.9244  1.8595
22433SOL     OW68739   4.348   5.971  10.863 -0.4991  0.0891 -0.0394
22433SOL    HW168740   4.400   5.951  10.786  0.0508 -0.2942  0.4209
22433SOL    HW268741   4.337   5.887  10.907  0.0232  0.4448  0.8022
22434SOL     OW68742   0.919   6.450   1.262  0.0636 -0.7118  0.1957
22434SOL    HW168743   0.977   6.523   1.241 -0.9620  0.4985  1.4133
22434SOL    HW268744   0.912   6.400   1.181  1.1305  0.2862 -0.5363
22435SOL     OW68745   0.534   2.195   3.337 -0.3046 -0.2914 -0.3759
22435SOL    HW168746   0.588   2.118   3.353  0.4444  0.1569 -0.6553
22435SOL    HW268747   0.594   2.258   3.296 -0.4353  1.0970  1.4366
22436SOL     OW68748   5.934   7.496   7.621 -1.1822 -0.2371  0.0281
22436SOL    HW168749   6.014   7.511   7.672 -0.0094 -0.2631 -1.6997
22436SOL    HW268750   5.884   7.433   7.673 -0.8638  0.9843  1.9313
22437SOL     OW68751   2.982   6.018   7.074 -0.0029 -0.0061  0.7650
22437SOL    HW168752   3.016   5.928   7.078 -1.1956 -0.6784 -1.9182
22437SOL    HW268753   3.035   6.061   7.006 -2.8705 -0.4804 -2.0358
22438SOL     OW68754   5.533   0.915   2.091 -0.4123 -0.2769  0.4413
22438SOL    HW168755   5.471   0.888   2.159  0.8142  0.6131  1.9687
22438SOL    HW268756   5.615   0.871   2.114  1.1348  3.0530  1.9316
22439SOL     OW68757   6.102   4.727  11.637  0.1459  0.5952 -0.3278
22439SOL    HW168758   6.018   4.758  11.671  0.7263  3.8948 -1.4435
22439SOL    HW268759   6.166   4.756  11.702  0.6581  1.0365 -1.0080
22440SOL     OW68760   5.804   2.581  10.140  0.1111  0.2642 -0.6175
22440SOL    HW168761   5.887   2.543  10.109  0.6684 -1.4390  2.5248
22440SOL    HW268762   5.831   2.647  10.203 -0.8782 -0.5226  0.6793
22441SOL     OW68763   6.814   4.384   1.802 -0.5211 -0.6957 -0.2806
22441SOL    HW168764   6.836   4.466   1.846  0.7294 -0.6350 -0.9599
22441SOL    HW268765   6.829   4.317   1.869 -1.4789 -0.4048  0.2553
22442SOL     OW68766   6.190   5.647   7.027  0.0133  0.0067 -0.3946
22442SOL    HW168767   6.246   5.695   7.088 -1.0238  1.0431 -0.2180
22442SOL    HW268768   6.219   5.556   7.034  0.3751  0.2151  1.1255
22443SOL     OW68769   5.036   1.087   1.672  0.7306 -0.0353  0.1809
22443SOL    HW168770   5.059   0.995   1.684 -0.8656 -0.3232  1.4155
22443SOL    HW268771   5.070   1.109   1.586 -0.5276 -2.3376 -1.0095
22444SOL     OW68772   7.592   6.879  10.975  0.0951  0.2730 -0.3583
22444SOL    HW168773   7.537   6.830  10.914  1.4693 -0.1162 -1.3378
22444SOL    HW268774   7.649   6.932  10.919  0.4313  0.9843  0.6208
22445SOL     OW68775   3.661   4.830   7.966  0.2391  0.5706  0.5910
22445SOL    HW168776   3.640   4.874   7.884  0.6830  0.5657  0.4751
22445SOL    HW268777   3.670   4.737   7.942  2.4676  0.8234  0.2330
22446SOL     OW68778   0.678   5.978   3.739 -0.1739 -0.2241 -0.4338
22446SOL    HW168779   0.736   5.916   3.784 -1.7594 -2.1963 -0.9358
22446SOL    HW268780   0.613   6.003   3.804 -0.4076 -0.2689 -0.6480
22447SOL     OW68781   4.992   5.058   6.854  0.1773  0.5268  0.2663
22447SOL    HW168782   4.920   5.004   6.822 -0.2044  1.2542 -0.1062
22447SOL    HW268783   5.062   4.995   6.874  0.7874  0.0547 -2.8187
22448SOL     OW68784   0.122   7.508   0.795 -0.0027 -0.0088 -0.4516
22448SOL    HW168785   0.077   7.514   0.711  1.8051  2.9427 -1.3452
22448SOL    HW268786   0.056   7.535   0.860 -0.8137 -0.3200 -1.1247
22449SOL     OW68787   1.594   4.997   4.471  0.4668  0.0933  0.4534
22449SOL    HW168788   1.665   4.982   4.409 -0.0075 -0.6572  0.0784
22449SOL    HW268789   1.635   5.047   4.542  1.0598  0.7947 -0.3613
22450SOL     OW68790   0.510   2.477   5.416  0.3606 -0.1988 -0.3706
22450SOL    HW168791   0.588   2.445   5.371 -0.1575 -0.1867 -1.2875
22450SOL    HW268792   0.506   2.426   5.497  2.9578  1.7928  1.1641
22451SOL     OW68793   6.889   6.488   4.611 -0.5232 -0.0884  0.2047
22451SOL    HW168794   6.793   6.493   4.622 -0.3502 -0.9061  2.8809
22451SOL    HW268795   6.901   6.462   4.520 -2.9305 -1.5722  0.2041
22452SOL     OW68796   6.065   1.905   1.045  0.0273 -0.1295  0.2085
22452SOL    HW168797   6.087   1.812   1.041 -0.4863 -0.2633  0.3752
22452SOL    HW268798   6.035   1.926   0.957 -0.6731 -0.3352  0.3942
22453SOL     OW68799   2.553   3.313   9.024  0.3572 -0.2276  0.5883
22453SOL    HW168800   2.481   3.271   9.071  0.2404  0.7812  1.3278
22453SOL    HW268801   2.580   3.247   8.959 -0.4648 -1.0572  1.0588
22454SOL     OW68802   5.489   6.310   2.771 -0.0553 -0.1926 -0.0353
22454SOL    HW168803   5.530   6.227   2.793 -0.1368 -0.1726  0.1963
22454SOL    HW268804   5.544   6.347   2.702  0.4136 -0.0886  0.3867
22455SOL     OW68805   5.979   3.545   4.546  0.2386 -0.5843  0.4794
22455SOL    HW168806   5.901   3.600   4.547  0.0918 -0.7583 -0.6562
22455SOL    HW268807   5.966   3.484   4.618 -0.9031 -0.9164  0.0006
22456SOL     OW68808   1.946   5.043   7.103 -0.2624  0.1663  0.2189
22456SOL    HW168809   1.915   5.061   7.014  3.1109 -0.1812 -1.1933
22456SOL    HW268810   1.891   4.970   7.133 -0.9726 -0.2672 -1.9155
22457SOL     OW68811   1.060   3.707   1.061  0.1056  0.1852  0.4516
22457SOL    HW168812   0.967   3.725   1.076  0.3554  1.3270  0.7384
22457SOL    HW268813   1.104   3.746   1.137  0.8050 -0.5194  0.4165
22458SOL     OW68814   2.622   7.190   7.132 -0.0143 -0.1345 -0.3930
22458SOL    HW168815   2.619   7.247   7.055  0.9276 -0.6116 -0.7956
22458SOL    HW268816   2.666   7.111   7.102 -0.4401 -0.6894  0.4155
22459SOL     OW68817   0.763   4.390   9.683  0.3115  0.3851 -0.8543
22459SOL    HW168818   0.725   4.317   9.734  0.3285 -0.3215 -1.8331
22459SOL    HW268819   0.688   4.447   9.665  0.8160  2.5575  2.9347
22460SOL     OW68820   6.414   7.591   9.975  0.7863 -0.5930  0.3393
22460SOL    HW168821   6.367   7.640   9.908  0.8325 -1.9442 -0.7319
22460SOL    HW268822   6.507   7.602   9.953  0.8698  0.0844  1.0075
22461SOL     OW68823   0.194   0.694   9.466 -0.5465  0.5646  0.4239
22461SOL    HW168824   0.139   0.649   9.402  0.2247  0.3864 -0.1409
22461SOL    HW268825   0.246   0.756   9.414  1.1731 -0.6341  0.6222
22462SOL     OW68826   3.254   5.231   9.429  1.0793  0.1132 -0.7826
22462SOL    HW168827   3.267   5.186   9.345  2.4664 -0.2010 -0.4263
22462SOL    HW268828   3.244   5.161   9.493  1.9283  0.3192 -0.4158
22463SOL     OW68829   5.195   2.128   5.941  0.4087 -0.4957 -0.0601
22463SOL    HW168830   5.272   2.135   5.997  0.4059  2.1741 -0.2497
22463SOL    HW268831   5.154   2.214   5.946 -1.8226 -1.4098 -1.0478
22464SOL     OW68832   1.672   2.552   8.969 -0.7668  0.4698  0.3325
22464SOL    HW168833   1.736   2.611   9.011  1.3571 -1.1430 -0.4773
22464SOL    HW268834   1.640   2.497   9.040  0.3678 -0.1099  0.4041
22465SOL     OW68835   7.703   1.229   7.257  0.3407  0.2625 -0.0110
22465SOL    HW168836   7.730   1.240   7.349  0.1511  2.5420 -0.1870
22465SOL    HW268837   7.622   1.280   7.250  0.2473 -0.0563 -1.4050
22466SOL     OW68838   3.718   0.087  12.243  1.1343 -0.3104 -0.3487
22466SOL    HW168839   3.656   0.138  12.294  0.8291  0.0574 -1.0765
22466SOL    HW268840   3.698  -0.004  12.264  0.1384 -0.2064 -0.8170
22467SOL     OW68841   3.958   7.083   9.455 -0.3784 -0.2291 -0.1396
22467SOL    HW168842   3.891   7.042   9.509 -1.8589  0.7627 -1.1214
22467SOL    HW268843   4.041   7.047   9.486 -1.3893 -1.7445  0.9094
22468SOL     OW68844   5.674   7.159   9.020  0.2598 -0.3263 -0.7512
22468SOL    HW168845   5.738   7.101   9.062 -0.2269 -1.0020 -0.9337
22468SOL    HW268846   5.630   7.104   8.956 -2.3916 -0.6868  1.1804
22469SOL     OW68847   6.821   4.434   7.820 -0.2778 -0.1654 -0.0782
22469SOL    HW168848   6.768   4.363   7.857 -0.1158 -0.2655 -0.0346
22469SOL    HW268849   6.896   4.390   7.780  0.8088  0.0599  1.5608
22470SOL     OW68850   6.958   0.549   7.392 -0.2956  0.8913  0.1258
22470SOL    HW168851   6.986   0.493   7.464 -1.5572  1.5155  1.1562
22470SOL    HW268852   6.862   0.541   7.392 -0.2902 -0.7832 -2.8972
22471SOL     OW68853   5.267   4.084   2.418 -0.2966  0.3244  0.0837
22471SOL    HW168854   5.172   4.092   2.410 -0.1704  1.4326 -0.3747
22471SOL    HW268855   5.295   4.164   2.463  0.3213 -0.4558  1.1467
22472SOL     OW68856   1.777   0.869   4.017  0.1970 -0.0706 -0.6931
22472SOL    HW168857   1.768   0.923   3.939  0.7042 -1.7945 -2.0157
22472SOL    HW268858   1.691   0.829   4.030 -0.0014  0.5198 -0.0893
22473SOL     OW68859   4.322   2.917   9.256 -0.4744 -0.0586  0.0027
22473SOL    HW168860   4.414   2.919   9.281 -0.4882 -1.1397  0.1970
22473SOL    HW268861   4.317   2.854   9.185 -1.0382  0.1171 -0.1209
22474SOL     OW68862   3.502   4.063   0.627 -0.0476  0.1172  0.4046
22474SOL    HW168863   3.457   4.124   0.686  0.5219 -0.1775  1.1525
22474SOL    HW268864   3.561   4.119   0.576 -1.7760  0.6320 -1.1556
22475SOL     OW68865   2.720   6.655  10.432  1.0277 -0.2462 -0.2977
22475SOL    HW168866   2.724   6.700  10.348  1.1543  2.3765  0.9874
22475SOL    HW268867   2.803   6.678  10.475  0.3962 -0.3894  1.0506
22476SOL     OW68868   7.576   4.643   4.310  0.5478  0.0565  0.2693
22476SOL    HW168869   7.666   4.628   4.281  0.1245 -1.1288 -0.5064
22476SOL    HW268870   7.540   4.555   4.323 -0.9282  0.4768 -0.7716
22477SOL     OW68871   7.689   2.332  11.262 -0.0598  0.2417  0.2584
22477SOL    HW168872   7.612   2.380  11.232  0.5582  0.8185 -0.4312
22477SOL    HW268873   7.764   2.383  11.230  0.6134 -1.1432 -0.4670
22478SOL     OW68874   4.343   3.749   0.449  0.4681  0.0983 -0.1896
22478SOL    HW168875   4.315   3.806   0.377  0.1348 -0.6063 -0.6342
22478SOL    HW268876   4.431   3.779   0.470  0.7742  0.0081 -1.2400
22479SOL     OW68877   4.112   0.865   5.616  0.0450  0.2717 -0.5093
22479SOL    HW168878   4.046   0.905   5.673  1.2020  1.1502  0.2568
22479SOL    HW268879   4.139   0.935   5.558  0.9229  0.1804 -0.2337
22480SOL     OW68880   5.752   6.116   2.537 -0.3470 -0.4310  0.7679
22480SOL    HW168881   5.837   6.073   2.523 -0.5205 -0.5712  0.1416
22480SOL    HW268882   5.732   6.099   2.629  0.3271 -0.3568  0.9367
22481SOL     OW68883   2.491   4.728   3.969 -0.1968 -0.2873 -0.2520
22481SOL    HW168884   2.514   4.690   3.884 -2.1267  0.0303 -0.9778
22481SOL    HW268885   2.398   4.750   3.961 -0.4985 -0.4299  2.0224
22482SOL     OW68886   2.904   4.900   0.363 -0.1253 -1.4735  0.1774
22482SOL    HW168887   2.974   4.964   0.371  1.7361 -3.2954 -0.5171
22482SOL    HW268888   2.878   4.902   0.271  0.4374 -2.1696 -0.0070
22483SOL     OW68889   2.052   6.023   1.296 -0.3301 -0.4219 -0.0551
22483SOL    HW168890   2.103   6.073   1.360 -0.4951 -0.0093 -0.2402
22483SOL    HW268891   2.037   5.938   1.337  0.2346 -0.4350  0.1322
22484SOL     OW68892   0.489   3.664   9.847 -0.6903  0.3608 -0.1631
22484SOL    HW168893   0.502   3.654   9.941 -1.4274  0.1024 -0.0765
22484SOL    HW268894   0.573   3.694   9.814 -0.7000  1.4030  0.7153
22485SOL     OW68895   6.712   4.162   8.396 -0.9861  0.4412  0.6397
22485SOL    HW168896   6.691   4.143   8.487  0.3966 -2.4036  0.4872
22485SOL    HW268897   6.807   4.154   8.391 -1.0574  0.1859 -1.0922
22486SOL     OW68898   6.838   2.167   6.777  0.4970 -0.4711 -0.0858
22486SOL    HW168899   6.887   2.088   6.799  1.1843  0.2270  1.0268
22486SOL    HW268900   6.781   2.182   6.853 -0.8461 -0.7852 -0.9919
22487SOL     OW68901   0.343   7.131   6.560  0.0932 -0.2259 -0.3591
22487SOL    HW168902   0.408   7.061   6.563  2.1683  1.6299  1.1341
22487SOL    HW268903   0.352   7.176   6.644 -2.1464  1.0046 -0.6976
22488SOL     OW68904   7.006   5.557   3.869  0.3997  0.7140  0.5064
22488SOL    HW168905   6.980   5.648   3.884 -0.2199  0.6798 -0.3215
22488SOL    HW268906   7.091   5.563   3.826  0.0692  0.9253 -0.1271
22489SOL     OW68907   1.278   2.073   1.425  0.4934  0.2359  0.3966
22489SOL    HW168908   1.260   1.979   1.414 -1.3107  0.4157  1.4741
22489SOL    HW268909   1.296   2.103   1.336  0.3684 -0.9914 -0.0761
22490SOL     OW68910   5.629   2.451   8.196 -0.1553 -0.3176 -0.3455
22490SOL    HW168911   5.562   2.395   8.235 -1.6864  1.4857 -0.2638
22490SOL    HW268912   5.614   2.537   8.234  1.9698  0.2415 -0.6547
22491SOL     OW68913   4.270   1.511  10.339 -0.4280 -0.4135  0.0124
22491SOL    HW168914   4.339   1.489  10.276  0.9943 -1.9810  1.9981
22491SOL    HW268915   4.317   1.531  10.420 -2.2302  0.9564  0.7978
22492SOL     OW68916   2.544   4.739  11.792  0.3428  0.3833 -0.1744
22492SOL    HW168917   2.508   4.765  11.877  0.3553  2.0180 -0.6332
22492SOL    HW268918   2.502   4.797  11.729  1.6513  0.4277 -1.0601
22493SOL     OW68919   6.232   1.456  12.140 -0.5118  0.5183  0.1886
22493SOL    HW168920   6.165   1.458  12.072 -0.1369  1.7368 -0.1674
22493SOL    HW268921   6.295   1.391  12.109 -1.2788 -0.3127  0.3108
22494SOL     OW68922   6.965   5.210   8.171  0.3683 -0.5303 -0.1309
22494SOL    HW168923   7.021   5.147   8.125  0.1761 -2.0756  1.6512
22494SOL    HW268924   6.911   5.156   8.229  0.5697  1.3054  1.8720
22495SOL     OW68925   5.136   4.760   7.734  0.4361 -0.8938 -0.3607
22495SOL    HW168926   5.070   4.713   7.785  0.0567 -0.0419 -0.0461
22495SOL    HW268927   5.117   4.737   7.643  0.6551 -1.8393 -0.1781
22496SOL     OW68928   6.762   4.754   9.523  0.0689 -0.0209 -0.1728
22496SOL    HW168929   6.844   4.758   9.571  0.4751 -0.7544 -0.7837
22496SOL    HW268930   6.768   4.674   9.471 -1.6832 -0.9001  0.9129
22497SOL     OW68931   4.123   1.873  10.267  0.2567 -0.1587  0.5600
22497SOL    HW168932   4.058   1.941  10.282  1.9025  1.1250  2.4154
22497SOL    HW268933   4.173   1.904  10.191  1.3309  1.0740  1.7035
22498SOL     OW68934   1.292   7.464   0.728  0.3174 -0.5350  0.1106
22498SOL    HW168935   1.318   7.374   0.748  1.1257 -0.2620  0.3428
22498SOL    HW268936   1.360   7.496   0.669 -0.5531 -0.4196 -0.8412
22499SOL     OW68937   2.763   6.924   5.606 -0.2391 -0.1362  0.2049
22499SOL    HW168938   2.747   6.923   5.511 -0.2622 -0.5230  0.2115
22499SOL    HW268939   2.764   7.016   5.629 -2.7767 -0.0552  0.2476
22500SOL     OW68940   4.165   5.955   2.642 -0.3920 -0.0982 -0.2653
22500SOL    HW168941   4.213   6.038   2.650  0.8960 -0.9073  0.7328
22500SOL    HW268942   4.162   5.921   2.731 -1.6134 -0.7617 -0.5458
22501SOL     OW68943   4.846   1.919   7.756 -0.3843  0.5764  0.3255
22501SOL    HW168944   4.888   1.939   7.840  1.2162 -1.2130  0.0484
22501SOL    HW268945   4.753   1.909   7.777 -0.3967  2.4645  1.4063
22502SOL     OW68946   3.350   1.337   5.864  0.0135  0.0310 -0.2356
22502SOL    HW168947   3.309   1.250   5.856  1.2183 -0.6249  0.3899
22502SOL    HW268948   3.443   1.320   5.854  0.2632  1.2805 -0.1834
22503SOL     OW68949   7.411   5.378   2.477 -0.0740  0.7921 -0.1132
22503SOL    HW168950   7.464   5.299   2.469 -0.1585  0.5256  1.5079
22503SOL    HW268951   7.341   5.354   2.539  0.4638  2.3763  1.2005
22504SOL     OW68952   6.357   6.906   1.462 -0.2202  0.1151 -0.4148
22504SOL    HW168953   6.302   6.830   1.481 -1.3755  0.8877 -0.5432
22504SOL    HW268954   6.415   6.877   1.391  0.6078 -1.1806  0.7357
22505SOL     OW68955   5.370   7.892   6.993  0.7134  0.2843 -0.2481
22505SOL    HW168956   5.347   7.800   7.005 -0.0061  0.5869  0.8032
22505SOL    HW268957   5.458   7.899   7.029  0.0972  0.3491  1.3197
22506SOL     OW68958   3.158   6.945   1.484  0.2508  0.1024 -0.1071
22506SOL    HW168959   3.151   7.029   1.438 -2.0127  0.3737  0.6109
22506SOL    HW268960   3.084   6.895   1.452  0.9031 -1.1971  0.3729
22507SOL     OW68961   4.238   2.495   4.081  0.2177  0.3742 -0.5466
22507SOL    HW168962   4.326   2.525   4.103 -0.5110  1.9342  0.3973
22507SOL    HW268963   4.192   2.493   4.165 -0.8726  0.3266 -1.1334
22508SOL     OW68964   7.557   3.499   6.457  0.0198 -0.3081 -0.0510
22508SOL    HW168965   7.641   3.461   6.485  0.3128  1.8603  2.4848
22508SOL    HW268966   7.496   3.475   6.527 -0.5980  0.9948 -0.1167
22509SOL     OW68967   2.475   1.489   9.800  0.6061 -0.0490 -0.0271
22509SOL    HW168968   2.419   1.518   9.872  0.1110 -0.3320 -0.3031
22509SOL    HW268969   2.472   1.561   9.737 -0.5744 -0.6537 -0.6831
22510SOL     OW68970   7.433   6.925   2.061 -0.1880 -0.4088  0.0748
22510SOL    HW168971   7.488   6.853   2.031 -0.6729  0.2075 -2.5424
22510SOL    HW268972   7.494   6.987   2.101  0.3224 -1.8555  1.6696
22511SOL     OW68973   5.844   0.252  10.322 -0.3199  0.1785 -0.2271
22511SOL    HW168974   5.898   0.189  10.369  1.1239 -0.3683 -2.4681
22511SOL    HW268975   5.905   0.319  10.292 -1.0694  0.2474 -1.7080
22512SOL     OW68976   0.993   7.268  12.108  0.5835 -0.3233  0.6646
22512SOL    HW168977   0.950   7.336  12.160  0.7650  0.1077  0.2581
22512SOL    HW268978   1.055   7.316  12.053  0.3107 -0.7633 -0.0360
22513SOL     OW68979   7.488   2.622   9.588 -0.0205 -0.1510 -0.1094
22513SOL    HW168980   7.490   2.534   9.549 -0.9380 -0.2242 -0.0129
22513SOL    HW268981   7.457   2.608   9.677  3.1698 -0.1305  1.1545
22514SOL     OW68982   2.106   2.965   5.589  0.3992  0.2438  0.4645
22514SOL    HW168983   2.159   2.914   5.650  0.9565 -1.3216 -1.2450
22514SOL    HW268984   2.044   3.012   5.645  0.4250 -1.6345  2.2015
22515SOL     OW68985   2.915   5.623   1.522  0.8595  0.2733 -0.4594
22515SOL    HW168986   2.957   5.584   1.599  1.0192  0.0951 -0.6360
22515SOL    HW268987   2.988   5.645   1.464  0.7280  0.2292 -0.6426
22516SOL     OW68988   0.521   4.158   5.651 -0.4057  0.0647  0.2378
22516SOL    HW168989   0.540   4.144   5.559 -1.0315 -1.7534  0.3527
22516SOL    HW268990   0.425   4.163   5.656 -0.6028 -2.9226  1.1040
22517SOL     OW68991   3.518   3.787   4.190  0.3345 -0.4918 -0.4785
22517SOL    HW168992   3.596   3.781   4.136  0.3179 -2.0111 -0.3670
22517SOL    HW268993   3.523   3.711   4.248 -0.2779  0.4140  0.8090
22518SOL     OW68994   6.413   3.857   1.639  0.5002  0.0220  0.1440
22518SOL    HW168995   6.493   3.909   1.637 -0.3425  1.3760 -0.0494
22518SOL    HW268996   6.361   3.895   1.710 -0.5142  0.0415 -0.5772
22519SOL     OW68997   2.184   5.816   5.950 -0.0712 -0.0854 -0.3198
22519SOL    HW168998   2.152   5.731   5.919  0.2437 -0.0124 -0.8625
22519SOL    HW268999   2.112   5.852   6.002 -1.0112  0.2060 -1.7660
22520SOL     OW69000   2.029   4.946  11.199  0.2758  0.0165  0.3662
22520SOL    HW169001   1.952   4.909  11.242  0.1567  0.0500  0.1855
22520SOL    HW269002   2.004   4.951  11.107  0.5646 -0.1459  0.2796
22521SOL     OW69003   7.272   4.570   1.588  0.8568  0.1026 -0.0851
22521SOL    HW169004   7.348   4.569   1.529 -0.6168 -1.6128 -2.1336
22521SOL    HW269005   7.283   4.493   1.643  0.7547 -0.0060 -0.2138
22522SOL     OW69006   1.407   0.142   8.537 -0.3511  0.6573  0.3580
22522SOL    HW169007   1.431   0.174   8.624 -0.3712 -0.5155  0.8092
22522SOL    HW269008   1.490   0.112   8.499 -0.7252 -1.4995  1.1187
22523SOL     OW69009   1.594   3.619   9.588 -0.0408 -0.1645  0.3190
22523SOL    HW169010   1.627   3.702   9.621  0.4355 -0.4862  0.6569
22523SOL    HW269011   1.669   3.579   9.544 -0.3136 -0.3458  0.0124
22524SOL     OW69012   6.285   1.387   3.370 -0.1529  0.1044 -0.7327
22524SOL    HW169013   6.230   1.445   3.318 -1.2611  0.1085  0.4021
22524SOL    HW269014   6.285   1.426   3.458  0.6551 -0.5752 -0.4130
22525SOL     OW69015   6.367   7.929  10.142 -0.2071 -0.4659 -0.4517
22525SOL    HW169016   6.399   7.913  10.053  0.4776  0.5682 -0.4111
22525SOL    HW269017   6.295   7.990  10.130  0.6592  0.6407 -0.2365
22526SOL     OW69018   3.154   2.515  10.554 -0.0008  0.2432 -0.6670
22526SOL    HW169019   3.250   2.513  10.564 -0.1467  0.0437  1.0420
22526SOL    HW269020   3.127   2.593  10.601 -0.8053 -0.6719  0.4444
22527SOL     OW69021   7.583   2.730   2.589  0.0048  0.2013 -0.6254
22527SOL    HW169022   7.523   2.655   2.587 -0.8277  0.8623 -2.0558
22527SOL    HW269023   7.525   2.806   2.597  0.8173  0.7479  0.3921
22528SOL     OW69024   7.059   1.222   3.762 -0.4388  0.4559 -0.1453
22528SOL    HW169025   7.006   1.254   3.688 -1.0465  0.4049  0.2607
22528SOL    HW269026   7.008   1.245   3.839  0.4439  0.9765  0.2966
22529SOL     OW69027   7.372   3.793   8.484  0.4499 -0.1584  0.6138
22529SOL    HW169028   7.430   3.818   8.555  1.5953 -1.1277  0.0446
22529SOL    HW269029   7.416   3.720   8.440 -1.7608 -1.7867  0.9105
22530SOL     OW69030   6.590   4.212   6.686  0.4130 -0.4600  0.8175
22530SOL    HW169031   6.559   4.161   6.611  2.2821 -1.7440  0.8346
22530SOL    HW269032   6.536   4.183   6.759  1.7097 -2.8819  0.9241
22531SOL     OW69033   6.062   6.787   4.091  0.1779  0.2565 -0.0245
22531SOL    HW169034   6.055   6.841   4.170 -0.1135  0.8748 -0.4695
22531SOL    HW269035   6.110   6.841   4.029  0.8815 -0.4340 -0.1036
22532SOL     OW69036   5.929   5.457  11.168  0.2000 -0.8611  0.2214
22532SOL    HW169037   6.018   5.485  11.192  0.0894 -0.7008  0.4452
22532SOL    HW269038   5.875   5.482  11.243 -0.4344  1.0527 -0.8053
22533SOL     OW69039   4.527   3.669   1.584 -0.4841 -0.2570 -0.5925
22533SOL    HW169040   4.582   3.591   1.575 -0.5694 -0.1943 -1.8194
22533SOL    HW269041   4.438   3.637   1.573 -0.8163 -0.4447  1.8894
22534SOL     OW69042   1.710   3.008   2.002  0.6831  0.6755 -0.3538
22534SOL    HW169043   1.712   2.922   2.045  2.3595  0.9876  0.2598
22534SOL    HW269044   1.756   2.995   1.919 -0.4625  0.6334 -1.0041
22535SOL     OW69045   6.899   0.257  12.050  0.3437 -0.1876 -0.4126
22535SOL    HW169046   6.965   0.324  12.066 -0.0141  0.5125 -1.7080
22535SOL    HW269047   6.928   0.213  11.970 -0.1661 -0.6400 -0.3557
22536SOL     OW69048   3.598   5.881   2.949  0.0369  0.1672  0.2199
22536SOL    HW169049   3.562   5.914   2.867 -3.5424 -2.5901  0.4375
22536SOL    HW269050   3.550   5.928   3.017 -0.6481 -1.0339  0.5968
22537SOL     OW69051   1.646   6.687   7.488 -0.3124  0.0536 -0.4014
22537SOL    HW169052   1.734   6.712   7.461  0.6439 -0.9066  1.6461
22537SOL    HW269053   1.611   6.765   7.532  0.3729 -0.2659  0.7237
22538SOL     OW69054   1.675   1.659  11.217 -0.4331 -0.4265  0.2783
22538SOL    HW169055   1.676   1.565  11.235  1.3988 -0.8949 -1.7442
22538SOL    HW269056   1.666   1.665  11.122  2.0936  1.3003  0.0524
22539SOL     OW69057   0.946   3.627   8.228  0.0544 -0.1516  0.5297
22539SOL    HW169058   0.917   3.567   8.297 -1.3224  0.8078  0.8265
22539SOL    HW269059   0.968   3.707   8.274 -0.4918  0.3671 -0.0953
22540SOL     OW69060   0.223   6.475   6.976  0.0003  0.2534 -1.0802
22540SOL    HW169061   0.276   6.555   6.978  1.1489 -0.4912  0.0314
22540SOL    HW269062   0.261   6.423   6.906 -0.2478  0.3391 -1.2822
22541SOL     OW69063   2.712   5.744  11.192 -0.3759  0.3975  0.6898
22541SOL    HW169064   2.697   5.724  11.099  1.1991 -0.9803  0.6619
22541SOL    HW269065   2.755   5.829  11.192  2.7916 -1.0255 -0.2527
22542SOL     OW69066   1.160   7.888   3.090  0.1689 -0.2451 -0.1990
22542SOL    HW169067   1.251   7.866   3.105  1.0110  1.5810 -2.0886
22542SOL    HW269068   1.127   7.916   3.175  1.4984 -0.4289  0.3967
22543SOL     OW69069   5.195   4.910   6.944  0.0287 -0.6864  0.9963
22543SOL    HW169070   5.252   4.869   7.009 -0.6001 -0.4551  1.7166
22543SOL    HW269071   5.248   4.917   6.865  1.3145  0.3675  1.9139
22544SOL     OW69072   3.795   0.441   3.240 -0.0289  0.0455  0.4721
22544SOL    HW169073   3.885   0.412   3.250  1.3375  3.6560  0.0194
22544SOL    HW269074   3.751   0.411   3.320  1.6103 -1.4073  0.8934
22545SOL     OW69075   1.363   7.545   8.886 -0.0969 -0.3264 -0.6263
22545SOL    HW169076   1.396   7.555   8.975 -1.0934  0.2235 -0.3089
22545SOL    HW269077   1.410   7.611   8.835 -0.2634  0.0551 -0.2932
22546SOL     OW69078   5.804   2.147   3.813 -0.2165 -0.2000 -0.8579
22546SOL    HW169079   5.769   2.085   3.877  0.1637 -0.3234 -0.7646
22546SOL    HW269080   5.878   2.101   3.774  0.4296  0.4143 -0.3773
22547SOL     OW69081   6.947   7.537   9.480 -0.0980  0.3175  0.0245
22547SOL    HW169082   6.902   7.459   9.513 -0.9434  0.5716 -0.4934
22547SOL    HW269083   6.924   7.606   9.542  0.1117  0.3026  0.1184
22548SOL     OW69084   3.297   6.366   4.242  0.1627  0.2195  0.2009
22548SOL    HW169085   3.361   6.400   4.304  0.1896  1.6131 -0.5410
22548SOL    HW269086   3.212   6.388   4.279  0.0779 -1.3132  1.0097
22549SOL     OW69087   7.490   2.386   1.734  0.6767 -0.2871 -0.3856
22549SOL    HW169088   7.432   2.449   1.776  1.0539 -0.9819  1.2290
22549SOL    HW269089   7.442   2.358   1.656 -2.5137 -2.8346  2.2029
22550SOL     OW69090   2.462   2.599   7.721  1.1726  0.4347 -0.1914
22550SOL    HW169091   2.501   2.597   7.809  0.4188  0.2457  0.1405
22550SOL    HW269092   2.438   2.691   7.709  1.4988  0.5077 -0.3040
22551SOL     OW69093   7.602   1.564   5.180 -0.5197 -0.0774 -0.2376
22551SOL    HW169094   7.596   1.649   5.136 -0.5119  1.1427  1.9706
22551SOL    HW269095   7.519   1.521   5.160 -1.0204  0.9481 -0.4465
22552SOL     OW69096   0.496   5.967   2.375  0.5636  0.4878 -0.4734
22552SOL    HW169097   0.461   5.977   2.286 -1.2127 -0.0302  0.1223
22552SOL    HW269098   0.430   6.008   2.431  1.3092  0.1573  0.6798
22553SOL     OW69099   7.844   3.600   3.377  0.2164  0.6023 -0.0666
22553SOL    HW169100   7.761   3.612   3.331  1.1240  0.1740 -1.9006
22553SOL    HW269101   7.903   3.663   3.336  1.5842 -1.1760 -0.9235
22554SOL     OW69102   6.255   6.154   9.581  0.7674  0.0652  0.0135
22554SOL    HW169103   6.262   6.248   9.565  0.8737  0.1892  0.7583
22554SOL    HW269104   6.240   6.116   9.495  2.1972  0.6234 -0.5166
22555SOL     OW69105   4.454   6.194  10.678  0.3777 -0.1595  0.3499
22555SOL    HW169106   4.458   6.119  10.619 -0.7899 -1.2235  1.5484
22555SOL    HW269107   4.506   6.167  10.754  2.4933  1.4818 -0.4039
22556SOL     OW69108   5.914   5.216  11.472 -0.5136  0.0917  0.0147
22556SOL    HW169109   5.929   5.303  11.508 -0.7713  0.4307 -0.6752
22556SOL    HW269110   5.956   5.157  11.534  1.8112  0.8547 -0.7416
22557SOL     OW69111   2.789   0.341   5.144 -0.6861  0.4802 -0.1944
22557SOL    HW169112   2.882   0.363   5.142 -0.9395  1.6259 -1.9045
22557SOL    HW269113   2.768   0.332   5.237  1.1092  0.2659  0.2147
22558SOL     OW69114   6.944   4.604   3.562 -0.0251  0.0681  0.3078
22558SOL    HW169115   7.010   4.668   3.536  1.0651 -1.2178 -0.2358
22558SOL    HW269116   6.920   4.628   3.651  2.4264 -0.3615  1.1700
22559SOL     OW69117   3.359   6.712   1.005  0.1608 -0.2202  0.3524
22559SOL    HW169118   3.276   6.757   1.023 -0.0945 -0.8141  0.6868
22559SOL    HW269119   3.391   6.685   1.091  0.2150 -0.8362  0.1432
22560SOL     OW69120   2.733   3.740   3.681 -0.2578  0.3070  0.1917
22560SOL    HW169121   2.794   3.668   3.665 -0.5632  0.0815  0.0322
22560SOL    HW269122   2.779   3.797   3.743  0.5829  0.7275 -0.7873
22561SOL     OW69123   3.524   6.228   7.145 -0.1750 -0.3940 -0.6963
22561SOL    HW169124   3.503   6.307   7.193  1.5282  0.7225 -1.6894
22561SOL    HW269125   3.589   6.255   7.081 -2.0277 -1.8544 -3.4253
22562SOL     OW69126   2.021   1.334   9.273 -0.0916 -0.2959  0.2523
22562SOL    HW169127   1.994   1.246   9.299  0.0319 -0.3521  0.1888
22562SOL    HW269128   1.957   1.360   9.206 -0.1159 -0.3443  0.2570
22563SOL     OW69129   6.331   6.976   5.091  0.1776  0.0984  0.2629
22563SOL    HW169130   6.301   6.913   5.156 -0.9665 -0.4748 -0.7886
22563SOL    HW269131   6.281   7.056   5.109  0.0097  0.0056  0.2048
22564SOL     OW69132   5.730   3.222   4.543 -0.4762  0.0033 -0.3507
22564SOL    HW169133   5.788   3.204   4.617  0.9761  1.0033 -1.2051
22564SOL    HW269134   5.755   3.310   4.514 -2.1280  0.2731 -1.0374
22565SOL     OW69135   6.910   1.066   6.879 -0.5470  0.1298  0.3456
22565SOL    HW169136   6.852   1.006   6.925  0.7625 -0.8317  0.8013
22565SOL    HW269137   6.997   1.047   6.914  0.0365  1.6128 -0.2297
22566SOL     OW69138   0.793   5.644   5.011 -0.4105 -0.8793 -0.3175
22566SOL    HW169139   0.795   5.711   4.943  1.9103 -0.8645 -0.3171
22566SOL    HW269140   0.829   5.566   4.970  1.7456 -0.6654  1.0291
22567SOL     OW69141   3.992   1.348   5.355  0.0679  0.4292 -0.1615
22567SOL    HW169142   4.046   1.417   5.393  0.0437  0.3784 -0.0349
22567SOL    HW269143   4.054   1.280   5.329  0.0309  0.1980  0.3481
22568SOL     OW69144   5.452   7.418   9.761 -0.6841 -0.1525 -0.3559
22568SOL    HW169145   5.485   7.378   9.841 -0.0153 -0.0958 -0.6045
22568SOL    HW269146   5.369   7.458   9.787 -0.2187  0.3187  0.4359
22569SOL     OW69147   1.302   6.579   7.315  0.1724 -0.0169  0.6141
22569SOL    HW169148   1.245   6.655   7.326  0.5515  0.4572 -0.5209
22569SOL    HW269149   1.244   6.509   7.286  0.3097  0.8646 -2.0699
22570SOL     OW69150   2.596   4.601   7.825 -0.1110  0.0756 -0.0321
22570SOL    HW169151   2.581   4.554   7.907  1.2865 -1.5783 -0.6809
22570SOL    HW269152   2.568   4.691   7.844 -0.2973 -0.3800  2.0880
22571SOL     OW69153   2.817   4.473  11.995 -0.4268  0.5314  0.2972
22571SOL    HW169154   2.912   4.464  12.005  0.3213  1.3993 -3.9279
22571SOL    HW269155   2.786   4.383  11.986  0.3134  0.3051 -0.1043
22572SOL     OW69156   2.944   5.785   2.821 -0.0191  0.1690  0.2655
22572SOL    HW169157   2.984   5.816   2.903  1.1639 -0.5644 -0.0087
22572SOL    HW269158   2.927   5.693   2.837  1.2007 -0.2415 -0.6524
22573SOL     OW69159   7.865   6.928   9.283  0.1658  0.2613 -0.9167
22573SOL    HW169160   7.892   6.836   9.290 -1.6598 -0.2829 -0.5512
22573SOL    HW269161   7.922   6.965   9.215 -0.5376 -1.7288 -2.6878
22574SOL     OW69162   6.106   5.458  10.561 -0.2381 -0.2630  0.5358
22574SOL    HW169163   6.013   5.468  10.580 -0.0285 -0.8634  2.0404
22574SOL    HW269164   6.126   5.527  10.498 -1.6583 -0.0274  0.3211
22575SOL     OW69165   4.934   1.915  10.524  0.1677 -0.1061 -0.1767
22575SOL    HW169166   4.899   1.857  10.456  0.3414  0.3404 -0.6513
22575SOL    HW269167   4.917   2.003  10.491 -0.5062  0.1214  0.7533
22576SOL     OW69168   4.554   1.688   3.871 -0.0124  0.0696 -0.5944
22576SOL    HW169169   4.523   1.598   3.861  0.9803 -0.1496 -2.1310
22576SOL    HW269170   4.566   1.699   3.965 -0.1553 -1.4122 -0.3766
22577SOL     OW69171   0.640   0.446  11.565 -0.8791  0.5351  0.2737
22577SOL    HW169172   0.610   0.523  11.516  0.5444  2.1969  1.8620
22577SOL    HW269173   0.734   0.441  11.546 -0.8073 -0.3332  0.8235
22578SOL     OW69174   4.933   4.843   9.808  0.3967 -0.6610  0.0302
22578SOL    HW169175   4.997   4.783   9.846  0.0457 -0.9561  0.1555
22578SOL    HW269176   4.938   4.827   9.714  0.3435 -0.8408  0.0592
22579SOL     OW69177   3.678   6.313   5.048  0.4887  0.2758  0.1372
22579SOL    HW169178   3.661   6.280   5.136 -0.9160 -1.2745 -0.6482
22579SOL    HW269179   3.772   6.300   5.035  0.3739 -1.4185  0.7099
22580SOL     OW69180   4.372   0.445   5.053 -0.1535 -0.1004  0.3906
22580SOL    HW169181   4.337   0.531   5.028 -0.0855  0.5054  2.2795
22580SOL    HW269182   4.306   0.407   5.111 -0.7770 -1.9260 -1.3899
22581SOL     OW69183   1.264   0.228   5.272 -0.3941  0.1280 -0.2902
22581SOL    HW169184   1.181   0.244   5.317 -0.7220 -3.0814  0.4570
22581SOL    HW269185   1.330   0.264   5.331 -1.1565  3.2579 -1.1579
22582SOL     OW69186   1.064   3.936   0.443  0.2383  0.2907  0.8039
22582SOL    HW169187   1.110   3.995   0.384  0.1777 -0.7620 -0.3476
22582SOL    HW269188   0.972   3.961   0.437 -0.4019 -2.1907 -2.6575
22583SOL     OW69189   4.417   7.204   4.188  0.7146  0.4637 -0.3537
22583SOL    HW169190   4.364   7.148   4.245 -1.6638  1.3534 -1.5407
22583SOL    HW269191   4.447   7.275   4.245  1.0425 -0.2990  0.4513
22584SOL     OW69192   2.011   3.898   8.773 -0.6570  0.3155  0.0881
22584SOL    HW169193   2.098   3.938   8.767 -0.7976  1.0279  2.2152
22584SOL    HW269194   2.020   3.831   8.841 -1.4432 -0.5887 -0.6721
22585SOL     OW69195   1.365   2.375  10.663 -0.1865  0.1004  0.0488
22585SOL    HW169196   1.289   2.426  10.636 -0.6385 -0.9761 -0.7831
22585SOL    HW269197   1.342   2.284  10.643  0.5837 -0.4554  1.5172
22586SOL     OW69198   6.209   2.520  11.610  0.3405  0.3149  0.0570
22586SOL    HW169199   6.165   2.569  11.679  0.2967  0.8255 -0.3326
22586SOL    HW269200   6.171   2.432  11.615  0.6603  0.2132  0.9745
22587SOL     OW69201   0.296   0.650   2.675  0.0528 -0.1583 -0.4452
22587SOL    HW169202   0.334   0.568   2.706  0.0018 -0.2353 -0.5862
22587SOL    HW269203   0.261   0.629   2.589  2.0599  0.5632 -1.4946
22588SOL     OW69204   0.868   7.589   6.664 -0.3804  0.0374  0.7536
22588SOL    HW169205   0.933   7.522   6.686  2.7112  0.3463 -5.1413
22588SOL    HW269206   0.803   7.542   6.611 -0.6368  0.9795  0.2175
22589SOL     OW69207   5.365   6.652   4.521  0.0287  0.1260  0.0403
22589SOL    HW169208   5.365   6.746   4.504  0.0048 -0.1720 -1.8480
22589SOL    HW269209   5.445   6.637   4.571 -0.5347  1.2803  1.3371
22590SOL     OW69210   1.535   4.659   2.398 -0.0620 -0.0274  0.6240
22590SOL    HW169211   1.524   4.576   2.352 -0.4896 -0.6553  1.8067
22590SOL    HW269212   1.460   4.712   2.371  1.7034  1.1749 -2.4410
22591SOL     OW69213   7.360   0.669   4.245 -0.1436  0.1247  0.0395
22591SOL    HW169214   7.349   0.630   4.332  0.9296  1.7112  0.9487
22591SOL    HW269215   7.281   0.644   4.197 -1.3352  0.1968  1.8713
22592SOL     OW69216   0.994   4.754  10.070  0.0683 -0.4753 -0.4916
22592SOL    HW169217   0.938   4.832  10.079  2.3524  1.1949  0.2694
22592SOL    HW269218   0.937   4.681  10.093 -1.9670  1.0438 -0.4202
22593SOL     OW69219   1.599   2.883   5.559 -0.3787 -0.0113 -0.2520
22593SOL    HW169220   1.585   2.872   5.653 -0.3462 -0.7918 -0.3359
22593SOL    HW269221   1.638   2.800   5.530  3.0318  1.4382 -0.3039
22594SOL     OW69222   3.566   2.399   8.270  0.4243  0.0926  0.0796
22594SOL    HW169223   3.650   2.444   8.282  0.5535  0.0130 -0.5050
22594SOL    HW269224   3.504   2.450   8.322  0.5926  0.8805 -0.4713
22595SOL     OW69225   2.271   1.553   4.984  0.0011 -0.2876 -0.1472
22595SOL    HW169226   2.261   1.565   4.889 -0.6445 -0.4506 -0.1007
22595SOL    HW269227   2.330   1.478   4.993  0.8596  0.3254 -0.4170
22596SOL     OW69228   5.886   4.319   8.546  0.5384  0.2799  0.2675
22596SOL    HW169229   5.903   4.393   8.604 -0.6287  0.2908  0.6207
22596SOL    HW269230   5.869   4.359   8.461  2.0862  0.2726 -0.0742
22597SOL     OW69231   0.115   6.970  10.702  0.1169 -0.2922 -0.0063
22597SOL    HW169232   0.193   7.024  10.689  0.1812 -0.4007 -0.0706
22597SOL    HW269233   0.141   6.882  10.674  0.0330 -0.3713  0.1588
22598SOL     OW69234   1.336   7.431   9.376  0.2364 -0.3142  0.4218
22598SOL    HW169235   1.370   7.342   9.382  0.9188 -0.1769 -0.9772
22598SOL    HW269236   1.391   7.482   9.435 -0.4136 -0.8694  1.5357
22599SOL     OW69237   0.396   6.837  12.143  0.5863  0.5479  0.1697
22599SOL    HW169238   0.417   6.831  12.236  0.4896 -0.6081  0.1264
22599SOL    HW269239   0.481   6.840  12.099  0.6568  2.8548  0.3656
22600SOL     OW69240   2.639   3.502  10.866 -0.5644 -0.6456  0.3425
22600SOL    HW169241   2.710   3.439  10.871 -0.8287 -0.8315  2.4897
22600SOL    HW269242   2.561   3.449  10.850 -0.8010 -0.9182  2.2474
22601SOL     OW69243   1.174   6.495   5.164  0.0050  0.0763 -0.7531
22601SOL    HW169244   1.183   6.589   5.147  1.3443  0.4981  1.7385
22601SOL    HW269245   1.260   6.468   5.196 -0.3388 -2.0557 -1.4458
22602SOL     OW69246   6.485   1.079  10.285 -0.5974  0.3587 -0.4492
22602SOL    HW169247   6.440   1.119  10.210 -1.1426  0.5586 -0.0251
22602SOL    HW269248   6.474   1.142  10.356 -1.1554 -0.3609  0.1318
22603SOL     OW69249   4.355   4.296   1.321  0.2274  0.2707 -0.2860
22603SOL    HW169250   4.323   4.234   1.256 -0.4152 -0.4839  0.7089
22603SOL    HW269251   4.276   4.324   1.368  0.6320  1.0516 -0.0484
22604SOL     OW69252   1.153   4.324   8.698  0.2452 -0.2847 -0.3091
22604SOL    HW169253   1.176   4.385   8.627  1.9825  0.3370  0.7091
22604SOL    HW269254   1.170   4.374   8.778 -0.5170 -1.3646  0.5502
22605SOL     OW69255   6.670   7.734   2.200 -0.1983 -0.0208  0.3134
22605SOL    HW169256   6.608   7.806   2.208 -0.7666 -0.5031  0.3167
22605SOL    HW269257   6.732   7.763   2.133 -0.4083  0.4759  0.3278
22606SOL     OW69258   6.676   5.286   5.272  0.4586  0.5426  0.2742
22606SOL    HW169259   6.680   5.371   5.315  0.4801  1.1265 -0.8370
22606SOL    HW269260   6.764   5.251   5.278  0.1302 -0.0712  2.0005
22607SOL     OW69261   1.541   4.684   3.600  0.1640 -0.4632  0.1796
22607SOL    HW169262   1.606   4.615   3.588  0.9992  0.1346  1.0488
22607SOL    HW269263   1.562   4.722   3.686 -0.4545  0.6688 -0.1427
22608SOL     OW69264   1.952   3.534  10.876 -0.1464  0.5424 -0.4779
22608SOL    HW169265   1.882   3.470  10.869 -1.6566  1.9039  1.0470
22608SOL    HW269266   2.030   3.489  10.844 -1.3222 -1.6954 -0.3797
22609SOL     OW69267   7.572   4.571   3.552 -0.4797 -0.4605 -0.3047
22609SOL    HW169268   7.514   4.616   3.491 -0.6070  0.7061  0.6481
22609SOL    HW269269   7.521   4.566   3.634  0.6729  0.4560  0.5015
22610SOL     OW69270   7.416   0.328   4.469  0.3618 -0.3357 -0.5134
22610SOL    HW169271   7.479   0.264   4.501 -0.1351 -1.4430 -1.6786
22610SOL    HW269272   7.447   0.350   4.381  0.4915  1.0108 -0.1550
22611SOL     OW69273   4.380   2.851   1.294  0.5201  0.0243 -0.8167
22611SOL    HW169274   4.329   2.834   1.373  0.8526 -1.1252 -0.8321
22611SOL    HW269275   4.349   2.936   1.263  0.6841  0.6953  0.7802
22612SOL     OW69276   1.408   3.772   7.441 -0.0697 -0.0988  0.4812
22612SOL    HW169277   1.439   3.684   7.465 -2.0288 -0.6505  1.2393
22612SOL    HW269278   1.402   3.770   7.346 -0.5689 -1.0031  0.5119
22613SOL     OW69279   6.435   4.885   0.412  0.0004  0.5818  0.4079
22613SOL    HW169280   6.414   4.978   0.402 -2.9435  0.0746  0.7969
22613SOL    HW269281   6.460   4.875   0.504  1.2044  1.0889  0.1519
22614SOL     OW69282   6.992   0.721   5.457 -0.1152 -0.1291 -0.2248
22614SOL    HW169283   6.948   0.805   5.447  1.5366  0.7979 -0.1400
22614SOL    HW269284   6.969   0.672   5.379 -3.1297 -0.6281  0.8639
22615SOL     OW69285   2.154   7.763   2.112 -0.1688  0.0248  0.4277
22615SOL    HW169286   2.183   7.681   2.070  1.2482  0.3726  0.6676
22615SOL    HW269287   2.161   7.745   2.206 -1.4941 -0.1206  0.5120
22616SOL     OW69288   7.776   0.097   5.353  0.5711  0.4912  0.0377
22616SOL    HW169289   7.691   0.071   5.317 -0.1655  1.5329  0.9490
22616SOL    HW269290   7.840   0.067   5.288 -0.4450 -0.6646 -0.4832
22617SOL     OW69291   6.663   5.344   2.401 -0.7258 -0.7982 -0.4394
22617SOL    HW169292   6.575   5.308   2.410 -0.4623 -1.7444 -1.3464
22617SOL    HW269293   6.716   5.293   2.462 -0.7346 -0.4880 -0.1710
22618SOL     OW69294   6.246   3.086   2.421  0.3633  0.0358  0.0462
22618SOL    HW169295   6.320   3.130   2.462  0.5092 -0.4582  0.3165
22618SOL    HW269296   6.174   3.149   2.428  0.4941  0.1207  0.6906
22619SOL     OW69297   2.732   7.265   5.251  0.1422 -0.3369 -0.0305
22619SOL    HW169298   2.823   7.277   5.224 -0.6203  0.1942 -2.6762
22619SOL    HW269299   2.690   7.221   5.177 -1.2421 -3.0678  2.1769
22620SOL     OW69300   4.827   0.112  10.485 -0.0872 -0.4192 -0.0094
22620SOL    HW169301   4.878   0.106  10.566  0.9470 -0.8502 -0.6722
22620SOL    HW269302   4.862   0.189  10.440  0.5853 -1.1951 -0.8563
22621SOL     OW69303   6.347   2.264   8.062  0.3280 -0.2924 -0.2831
22621SOL    HW169304   6.300   2.206   8.002  0.4180 -0.2006 -0.4445
22621SOL    HW269305   6.292   2.343   8.067  1.2615  0.5099 -1.7888
22622SOL     OW69306   2.983   6.404   8.720 -0.0840 -0.0882 -0.2191
22622SOL    HW169307   2.915   6.415   8.786  1.7286  1.7863  1.4769
22622SOL    HW269308   3.040   6.335   8.756 -0.2225 -0.5408 -0.8587
22623SOL     OW69309   2.931   6.434  11.984 -0.3532  0.3012 -0.3959
22623SOL    HW169310   2.983   6.387  12.050 -0.1007 -0.0544 -0.8448
22623SOL    HW269311   2.967   6.523  11.985  0.6532 -0.0751 -1.0875
22624SOL     OW69312   6.714   7.799   0.733 -0.3079  0.5381  0.3127
22624SOL    HW169313   6.718   7.786   0.638  1.7644 -0.4224  0.4779
22624SOL    HW269314   6.674   7.718   0.766  0.4456  0.1642  0.3454
22625SOL     OW69315   2.054   3.378   5.143 -0.5775  0.5657  0.1203
22625SOL    HW169316   2.127   3.376   5.204 -1.1935  1.4189  0.9223
22625SOL    HW269317   1.990   3.316   5.179 -0.9651  1.1109  0.3837
22626SOL     OW69318   6.121   6.881   0.271 -0.4163 -0.1075 -0.3995
22626SOL    HW169319   6.174   6.890   0.191  0.4457 -1.4501 -0.0230
22626SOL    HW269320   6.168   6.933   0.336 -1.6387  1.7751 -0.9634
22627SOL     OW69321   1.352   1.172   8.862 -0.5385 -0.0885 -0.0774
22627SOL    HW169322   1.359   1.122   8.781  2.0261 -0.3735  0.2274
22627SOL    HW269323   1.372   1.109   8.931  1.1287  0.9300  0.4342
22628SOL     OW69324   2.987   3.832   3.953 -0.6450 -0.0435 -0.3490
22628SOL    HW169325   2.939   3.904   3.911  1.2775  2.5534  1.5938
22628SOL    HW269326   2.921   3.787   4.006 -2.0149 -0.1492 -2.0492
22629SOL     OW69327   4.127   2.092   5.369 -0.8937 -0.6517  0.3206
22629SOL    HW169328   4.063   2.142   5.419  0.0037  1.5446 -0.6308
22629SOL    HW269329   4.188   2.059   5.435 -0.9051  0.4243  0.8906
22630SOL     OW69330   7.610   6.588   7.717 -0.0458 -0.2241  0.0888
22630SOL    HW169331   7.683   6.642   7.685  0.4730 -0.1632  1.3230
22630SOL    HW269332   7.550   6.651   7.757  0.1134 -0.4640  0.7096
22631SOL     OW69333   0.318   1.566  12.281  0.0584  0.6348  0.3422
22631SOL    HW169334   0.300   1.484  12.235  1.5893  0.5330 -0.1422
22631SOL    HW269335   0.235   1.590  12.321  0.0464 -2.2462  2.3126
22632SOL     OW69336   3.518   2.516   6.725  0.1837  0.0631 -0.3168
22632SOL    HW169337   3.585   2.528   6.657 -0.2075 -1.6037 -1.0631
22632SOL    HW269338   3.516   2.421   6.740 -1.0385  0.2164  0.6941
22633SOL     OW69339   2.081   4.239  10.631  0.0639 -0.2597 -0.6420
22633SOL    HW169340   2.126   4.166  10.672  1.4126  0.1915 -1.2583
22633SOL    HW269341   2.132   4.316  10.658 -1.2983  0.4711 -0.0368
22634SOL     OW69342   3.680   5.448   8.296  0.8712  0.1832 -0.3827
22634SOL    HW169343   3.654   5.437   8.387 -1.6020  0.8886 -0.9566
22634SOL    HW269344   3.666   5.540   8.277 -0.3044 -0.2730 -1.9270
22635SOL     OW69345   5.118   2.434  11.739 -0.8247  0.0025 -0.0563
22635SOL    HW169346   5.082   2.395  11.819 -1.1511 -1.1699 -0.7442
22635SOL    HW269347   5.202   2.470  11.765 -1.1562  0.0972  0.9273
22636SOL     OW69348   0.556   2.003   7.045  0.1563 -0.2713  0.0890
22636SOL    HW169349   0.647   2.033   7.049 -0.1127  0.4830  0.8854
22636SOL    HW269350   0.521   2.043   6.966  0.7297 -1.2146 -0.6596
22637SOL     OW69351   4.758   0.880  11.721  0.0460  0.5307  0.0720
22637SOL    HW169352   4.753   0.870  11.626  0.8324 -0.4287  0.1125
22637SOL    HW269353   4.710   0.960  11.740  0.6316  1.2007 -1.2186
22638SOL     OW69354   5.441   0.733   6.426 -0.1595  0.5517  0.5513
22638SOL    HW169355   5.460   0.669   6.494 -0.2393  0.4083  0.4404
22638SOL    HW269356   5.459   0.818   6.466  0.5099  0.4317  0.5170
22639SOL     OW69357   0.659   1.801   8.972 -0.1014  0.1677 -0.0139
22639SOL    HW169358   0.610   1.852   9.037  1.3248 -0.0188  1.2745
22639SOL    HW269359   0.599   1.791   8.898 -1.0997  2.0479  0.4869
22640SOL     OW69360   2.421   7.241   3.495  0.7064  0.2144  0.2640
22640SOL    HW169361   2.395   7.171   3.554  0.2263 -0.3938 -0.6393
22640SOL    HW269362   2.343   7.297   3.489  0.6216  0.0600 -0.0937
22641SOL     OW69363   2.125   2.874   2.927  0.3429  0.1492 -0.3275
22641SOL    HW169364   2.123   2.820   3.006 -3.1912  1.3337  0.5566
22641SOL    HW269365   2.209   2.920   2.931 -0.2794  1.2341  3.5059
22642SOL     OW69366   1.376   4.881   5.740 -0.0977 -0.6641 -0.2616
22642SOL    HW169367   1.316   4.897   5.814 -2.1175 -1.6215 -1.6020
22642SOL    HW269368   1.463   4.889   5.778 -1.0451  0.7105  1.8223
22643SOL     OW69369   0.939   7.652   8.888 -0.0579 -0.2829  0.1553
22643SOL    HW169370   0.999   7.651   8.814  0.0533  0.4083  0.2313
22643SOL    HW269371   0.922   7.559   8.906  2.1365 -0.5732  1.0557
22644SOL     OW69372   4.026   5.164  10.018  0.4420 -0.2569 -0.7490
22644SOL    HW169373   4.084   5.090  10.038 -2.0660 -2.0540  0.3612
22644SOL    HW269374   4.086   5.234   9.991  3.2304 -1.5338  1.5245
22645SOL     OW69375   5.363   0.069   8.280  0.5302  0.4405  0.3315
22645SOL    HW169376   5.456   0.085   8.295  0.4720  1.3927 -0.1801
22645SOL    HW269377   5.330   0.153   8.246 -0.5009  0.1036  0.4601
22646SOL     OW69378   2.367   3.934   5.906  0.0769  0.0207  0.5156
22646SOL    HW169379   2.292   3.894   5.863 -0.8495  0.3155  1.7975
22646SOL    HW269380   2.430   3.949   5.835 -2.1247  2.2957 -1.1486
22647SOL     OW69381   3.640   4.302   2.596 -0.0967 -0.0061  0.3620
22647SOL    HW169382   3.718   4.284   2.545  0.1185  2.4560 -0.2965
22647SOL    HW269383   3.616   4.392   2.574 -2.1613 -0.1098  1.8024
22648SOL     OW69384   4.309   7.899   8.116 -0.1105  0.1634  0.4554
22648SOL    HW169385   4.355   7.982   8.128 -0.0092  0.7035 -2.8247
22648SOL    HW269386   4.375   7.832   8.130  0.6838  0.7968 -0.1874
22649SOL     OW69387   6.984   6.900   4.221  0.7596 -0.1581  0.1131
22649SOL    HW169388   6.889   6.889   4.218  0.8808 -1.0811 -0.8758
22649SOL    HW269389   6.997   6.995   4.228 -0.2312 -0.0642  0.8090
22650SOL     OW69390   6.906   4.916   9.343 -0.4144 -0.5324 -0.3391
22650SOL    HW169391   6.847   4.879   9.410 -0.4951 -0.2157 -0.2338
22650SOL    HW269392   6.958   4.841   9.314 -0.5069 -0.7112 -0.0549
22651SOL     OW69393   3.417   5.306  10.300 -0.5056  0.1063  0.5821
22651SOL    HW169394   3.351   5.360  10.343 -0.7604  1.1718 -1.0343
22651SOL    HW269395   3.478   5.369  10.260 -0.5792 -0.7686 -1.0076
22652SOL     OW69396   7.207   6.839   4.805  0.7873 -0.1294 -0.7136
22652SOL    HW169397   7.163   6.924   4.796 -0.2502 -0.4198  1.0421
22652SOL    HW269398   7.138   6.775   4.789  1.2584 -0.6272 -0.7565
22653SOL     OW69399   1.761   1.114   3.841 -0.8769  0.1987 -0.1550
22653SOL    HW169400   1.717   1.159   3.770 -0.9166  0.2857 -0.0754
22653SOL    HW269401   1.853   1.140   3.834 -1.0663  1.0790  0.4906
22654SOL     OW69402   4.200   2.140  10.110 -0.2012 -0.1650  0.6764
22654SOL    HW169403   4.281   2.152  10.060  0.7155  0.2860  2.1897
22654SOL    HW269404   4.228   2.142  10.202 -2.1604  1.9690  1.3271
22655SOL     OW69405   7.059   7.681  10.401  0.4582 -0.6018  0.6114
22655SOL    HW169406   7.149   7.667  10.371  0.5459  1.4808 -0.2955
22655SOL    HW269407   7.067   7.691  10.495  1.2877  0.1428  0.4800
22656SOL     OW69408   6.287   3.596   9.802  0.4165  0.2548  0.4668
22656SOL    HW169409   6.208   3.640   9.770  0.7102  0.9785  0.7118
22656SOL    HW269410   6.265   3.566   9.889  0.9596  2.0706  1.2866
22657SOL     OW69411   0.733   4.764   8.043 -0.1758 -0.1009  0.1692
22657SOL    HW169412   0.798   4.833   8.052  1.8526 -1.7038 -1.0439
22657SOL    HW269413   0.761   4.716   7.964 -1.5642 -2.1650  0.8522
22658SOL     OW69414   1.786   0.233   9.362  0.2806 -0.4443  0.2967
22658SOL    HW169415   1.696   0.256   9.386  0.0189  1.2906 -1.9233
22658SOL    HW269416   1.838   0.257   9.439 -0.7731  2.2088  0.3105
22659SOL     OW69417   6.198   5.879   0.510  0.3432  0.6882 -0.2331
22659SOL    HW169418   6.237   5.890   0.424  0.8006  3.3037  0.2116
22659SOL    HW269419   6.121   5.936   0.509  0.8367  1.4472  1.3072
22660SOL     OW69420   6.415   5.637   0.928 -0.1531 -0.0562  0.2748
22660SOL    HW169421   6.413   5.649   0.833 -0.8693 -1.8912  0.0239
22660SOL    HW269422   6.470   5.708   0.960  2.9804 -1.3417 -1.8315
22661SOL     OW69423   1.031   3.128   9.711 -0.1256 -0.1563 -0.0024
22661SOL    HW169424   0.966   3.068   9.673  2.1688 -0.9416 -3.1173
22661SOL    HW269425   1.092   3.071   9.757 -0.2398  0.2969  0.7231
22662SOL     OW69426   6.068   6.515  11.203  0.0544  0.6765 -0.0583
22662SOL    HW169427   6.108   6.434  11.172 -0.1830  0.9984 -1.2733
22662SOL    HW269428   6.075   6.575  11.128  2.9187  2.7924  1.7217
22663SOL     OW69429   0.867   0.837   7.813  0.2886 -0.2140  0.0369
22663SOL    HW169430   0.911   0.844   7.898 -0.9449  2.2678  0.5680
22663SOL    HW269431   0.862   0.927   7.782 -2.9072 -0.5432 -0.7322
22664SOL     OW69432   7.226   5.513   5.172 -0.3218  0.0194 -0.1177
22664SOL    HW169433   7.247   5.441   5.113 -0.7309 -0.3361  0.1582
22664SOL    HW269434   7.271   5.491   5.253  0.2721  0.5274 -0.3077
22665SOL     OW69435   4.137   7.504   4.542 -0.6431 -0.0410  0.5766
22665SOL    HW169436   4.183   7.588   4.542 -1.5709  0.5358 -1.3758
22665SOL    HW269437   4.137   7.476   4.633  0.6619  1.5374  1.0961
22666SOL     OW69438   2.766   6.629   9.523 -0.5500  0.1102  0.5233
22666SOL    HW169439   2.747   6.535   9.521 -2.0004  0.2889  2.8278
22666SOL    HW269440   2.760   6.653   9.615 -4.3361  3.2238 -0.2631
22667SOL     OW69441   2.787   0.027   5.229  0.3947 -0.3096  0.6027
22667SOL    HW169442   2.762   0.113   5.195 -0.0645 -0.9247 -0.6708
22667SOL    HW269443   2.713  -0.030   5.207  1.2251 -1.2986  0.3163
22668SOL     OW69444   3.227   5.634  12.363 -0.1102 -0.5220  0.7516
22668SOL    HW169445   3.199   5.707  12.309 -0.0356  1.4439  3.1755
22668SOL    HW269446   3.146   5.603  12.405  0.0522 -0.9415  0.7614
22669SOL     OW69447   1.050   4.189   9.276  0.2501  0.0798  0.1521
22669SOL    HW169448   1.075   4.271   9.319 -0.6521 -0.0454  0.9405
22669SOL    HW269449   1.038   4.127   9.348 -1.5678 -0.0645 -0.2191
22670SOL     OW69450   3.675   2.640   9.181 -0.8357 -0.3986 -0.6124
22670SOL    HW169451   3.733   2.713   9.200  0.4093 -1.4779 -0.1440
22670SOL    HW269452   3.588   2.680   9.175 -0.0164  1.3451 -1.8994
22671SOL     OW69453   5.216   5.111  11.182 -0.2203  0.3871  0.2147
22671SOL    HW169454   5.301   5.071  11.165 -0.2871  0.5645 -0.5812
22671SOL    HW269455   5.204   5.172  11.109 -2.5460 -2.0640 -1.6436
22672SOL     OW69456   7.935   2.176   0.158 -0.5020 -0.2980 -0.1578
22672SOL    HW169457   7.892   2.135   0.233 -0.5884 -0.6582 -0.4017
22672SOL    HW269458   8.004   2.114   0.133  1.0721  0.8856  1.0733
22673SOL     OW69459   5.673   5.852   9.417 -0.2027 -0.2118  0.4580
22673SOL    HW169460   5.721   5.786   9.367  0.3311 -0.4408  1.2533
22673SOL    HW269461   5.602   5.803   9.458 -1.0062  0.0878 -0.5477
22674SOL     OW69462   4.273   5.234   4.874 -0.0798 -0.1224  0.4586
22674SOL    HW169463   4.261   5.170   4.945 -0.2639 -0.3875  0.1900
22674SOL    HW269464   4.263   5.182   4.794 -0.4001  0.2808  0.2391
22675SOL     OW69465   2.732   6.154   7.870 -0.8805  0.0583 -0.2574
22675SOL    HW169466   2.735   6.065   7.834  0.0766 -0.4975  1.0883
22675SOL    HW269467   2.714   6.210   7.795 -1.4427 -1.2620 -1.1523
22676SOL     OW69468   2.311   6.613   9.006 -0.4653  0.1529  0.0338
22676SOL    HW169469   2.219   6.630   8.986 -0.3609  1.7210  0.6763
22676SOL    HW269470   2.356   6.695   8.983  0.6833 -0.3961  0.2318
22677SOL     OW69471   1.845   0.197  11.164 -0.3701  0.3757  0.2580
22677SOL    HW169472   1.779   0.175  11.098 -0.9200  0.8380  0.6335
22677SOL    HW269473   1.874   0.285  11.140  0.2071  0.1281  0.0270
22678SOL     OW69474   1.492   2.968   1.168 -0.2324 -0.0315  0.2503
22678SOL    HW169475   1.490   3.050   1.118 -0.3865  0.1684  0.5833
22678SOL    HW269476   1.569   2.921   1.135 -0.9658 -0.4097 -0.9777
22679SOL     OW69477   7.148   6.774   0.911  0.5601 -0.1914  0.5170
22679SOL    HW169478   7.128   6.765   1.004  3.0057 -1.9154  0.9752
22679SOL    HW269479   7.063   6.776   0.868 -0.6206 -0.9922  2.6646
22680SOL     OW69480   4.437   5.283   3.698 -0.0725  0.2045 -0.4411
22680SOL    HW169481   4.413   5.328   3.779  0.6641  1.0671 -0.6768
22680SOL    HW269482   4.357   5.284   3.645 -0.4430  0.0054  0.1070
22681SOL     OW69483   6.235   1.823   5.782 -0.4052 -0.2743  0.2127
22681SOL    HW169484   6.258   1.912   5.755  1.8184 -0.6475  0.7396
22681SOL    HW269485   6.141   1.816   5.763 -0.0039  1.0770 -2.8417
22682SOL     OW69486   5.959   7.382   8.241  0.0480 -0.5425 -0.1829
22682SOL    HW169487   5.942   7.441   8.314 -0.7601 -1.9925  0.8371
22682SOL    HW269488   5.888   7.400   8.178  0.1639 -0.0037 -0.1595
22683SOL     OW69489   1.448   4.345   3.570  0.2771 -0.0407  0.1826
22683SOL    HW169490   1.357   4.315   3.569  0.6834 -1.3915  1.7007
22683SOL    HW269491   1.470   4.356   3.662  1.0888  2.2024 -0.1921
22684SOL     OW69492   5.698   3.831   4.389  0.6048  0.4596  0.0375
22684SOL    HW169493   5.769   3.886   4.421  0.8352  0.0553  0.2306
22684SOL    HW269494   5.712   3.825   4.295 -0.3558  2.0534 -0.2443
22685SOL     OW69495   2.024   0.959   5.721 -0.8402 -0.0967 -0.0847
22685SOL    HW169496   2.114   0.991   5.715 -0.6826 -0.6962 -1.0414
22685SOL    HW269497   2.033   0.864   5.732 -1.3352 -0.0141  1.1370
22686SOL     OW69498   5.504   2.385   6.789  0.0941  0.0766 -0.0318
22686SOL    HW169499   5.567   2.439   6.838 -0.2035 -1.1594  1.7987
22686SOL    HW269500   5.519   2.296   6.820 -2.8652 -0.2166  0.8550
22687SOL     OW69501   1.696   3.519   9.828 -0.2002 -0.1568 -0.2923
22687SOL    HW169502   1.649   3.580   9.771 -2.4229  1.4937  2.9233
22687SOL    HW269503   1.648   3.436   9.818 -0.3815  0.0251 -1.0084
22688SOL     OW69504   6.175   0.187   6.422  0.3658  0.2489 -0.6605
22688SOL    HW169505   6.086   0.210   6.449  0.5726 -0.0685  0.3252
22688SOL    HW269506   6.193   0.104   6.465  1.2232  0.4202 -0.6711
22689SOL     OW69507   3.672   3.511   5.026 -0.0080  0.0272  0.2801
22689SOL    HW169508   3.593   3.477   4.984  0.0012 -1.1409  1.1330
22689SOL    HW269509   3.685   3.453   5.101  1.7833  0.0640  0.0342
22690SOL     OW69510   7.010   7.176   7.818 -0.5565  0.3984  0.0999
22690SOL    HW169511   6.974   7.092   7.849 -0.7188  0.8821  1.2654
22690SOL    HW269512   7.006   7.233   7.894  1.2690  0.9348 -0.1498
22691SOL     OW69513   2.537   3.228  11.750 -0.7680 -0.0402  0.3884
22691SOL    HW169514   2.538   3.312  11.705 -1.1417  0.0564  0.5531
22691SOL    HW269515   2.603   3.176  11.705 -2.5307 -0.6584 -1.6574
22692SOL     OW69516   6.323   6.202   7.837 -0.1138  0.8133 -0.5266
22692SOL    HW169517   6.384   6.149   7.786 -0.1947 -1.0729  1.2291
22692SOL    HW269518   6.313   6.282   7.786  1.9501  0.1872 -2.0580
22693SOL     OW69519   7.288   1.787   0.624  0.6448  0.0054  0.5169
22693SOL    HW169520   7.192   1.790   0.619  0.5676 -0.3837  1.5524
22693SOL    HW269521   7.310   1.695   0.605  0.9332  0.3894 -1.1839
22694SOL     OW69522   4.603   1.054   8.531 -0.0147  0.0536 -0.5959
22694SOL    HW169523   4.513   1.042   8.561  0.6088 -2.5577  0.4230
22694SOL    HW269524   4.616   0.986   8.465  1.5837 -0.4140  0.1656
22695SOL     OW69525   7.778   6.766   4.230 -0.1074 -0.6596 -0.2382
22695SOL    HW169526   7.807   6.733   4.315  2.4425 -2.1703 -1.5269
22695SOL    HW269527   7.683   6.763   4.234 -0.2413  2.1897  3.5260
22696SOL     OW69528   1.692   2.075   2.920 -1.1235  0.5387 -0.1862
22696SOL    HW169529   1.702   1.981   2.905  0.3839  0.4411  1.2373
22696SOL    HW269530   1.763   2.098   2.979  0.3625  3.1540 -2.7194
22697SOL     OW69531   2.131   4.246   7.176  0.0053  0.4535 -0.2201
22697SOL    HW169532   2.150   4.323   7.229  1.4523 -0.5216  0.7709
22697SOL    HW269533   2.080   4.189   7.233  1.2885 -0.4610  0.0662
22698SOL     OW69534   5.137   0.936   3.955  0.0886 -0.1145 -0.2773
22698SOL    HW169535   5.084   1.011   3.929 -0.1936 -0.0581  0.4491
22698SOL    HW269536   5.158   0.951   4.047  2.9737  0.8351 -0.9664
22699SOL     OW69537   0.121   5.945   3.033  1.0311  0.0964  0.0961
22699SOL    HW169538   0.195   5.939   3.093 -0.6247 -2.1911  2.1113
22699SOL    HW269539   0.044   5.946   3.089 -0.5721 -0.4475 -1.9608
22700SOL     OW69540   1.124   0.886   6.570  0.3140  0.1930  0.5014
22700SOL    HW169541   1.103   0.793   6.572  1.6994 -0.1215  1.0201
22700SOL    HW269542   1.039   0.929   6.557 -0.1893 -1.1875 -1.1412
22701SOL     OW69543   4.776   0.450   2.273  0.1911  0.3925  0.1076
22701SOL    HW169544   4.820   0.369   2.294  0.0116  0.6400  1.5103
22701SOL    HW269545   4.780   0.456   2.177 -1.5671 -2.2667 -0.2270
22702SOL     OW69546   7.582   1.313   8.995 -0.2029  0.3770  0.1422
22702SOL    HW169547   7.537   1.398   8.994 -0.5046  0.2199  0.2131
22702SOL    HW269548   7.659   1.328   9.048 -0.3201  0.5770  0.2592
22703SOL     OW69549   3.502   6.793   6.382  0.1471  0.3203  0.1452
22703SOL    HW169550   3.480   6.700   6.393  0.6308  0.2728  0.7477
22703SOL    HW269551   3.465   6.835   6.459  1.6924  0.3122  0.9316
22704SOL     OW69552   6.537   5.192   8.806  0.0898  0.4422 -0.0594
22704SOL    HW169553   6.460   5.165   8.855  0.0769 -0.9791 -0.8124
22704SOL    HW269554   6.609   5.189   8.870 -0.2319  0.3798  0.2985
22705SOL     OW69555   4.332   7.670  11.954 -0.0653  0.5164 -0.0722
22705SOL    HW169556   4.407   7.610  11.954 -0.5291 -0.0667  0.4365
22705SOL    HW269557   4.304   7.674  12.045 -0.7175  0.6648 -0.2738
22706SOL     OW69558   5.180   6.973   3.536 -0.0954  1.0315 -0.6726
22706SOL    HW169559   5.132   6.924   3.603  1.1083 -0.3710 -0.8076
22706SOL    HW269560   5.163   6.926   3.454  2.3454 -0.1862 -0.5632
22707SOL     OW69561   1.196   4.255   0.602 -0.2162  0.0239  0.1867
22707SOL    HW169562   1.140   4.214   0.536  0.1562 -0.2612  0.0436
22707SOL    HW269563   1.135   4.298   0.662 -0.6347 -0.9826  0.5050
22708SOL     OW69564   7.798   4.647   4.133  0.0257 -0.2116 -0.1907
22708SOL    HW169565   7.882   4.624   4.173 -1.7368 -1.6349  3.0560
22708SOL    HW269566   7.767   4.566   4.094 -0.4481 -0.0434 -0.1727
22709SOL     OW69567   5.189   3.230   6.445 -0.0818 -0.0306 -0.0167
22709SOL    HW169568   5.269   3.251   6.396 -0.7823 -1.8026 -2.1104
22709SOL    HW269569   5.210   3.151   6.493 -0.6681 -0.7772 -0.9504
22710SOL     OW69570   1.301   5.513  11.088  0.2466 -0.3786  0.1092
22710SOL    HW169571   1.331   5.578  11.151  2.7750 -1.1080 -0.2402
22710SOL    HW269572   1.329   5.429  11.124  0.8527 -0.8919 -1.4572
22711SOL     OW69573   7.899   6.828   0.939  0.2526  0.3428 -0.4090
22711SOL    HW169574   7.880   6.918   0.965 -0.1518 -0.2277  1.4267
22711SOL    HW269575   7.831   6.777   0.982  1.5941 -1.0264  0.1660
22712SOL     OW69576   1.379   7.044   4.417 -0.8346 -0.6097  0.8708
22712SOL    HW169577   1.289   7.074   4.409 -0.3943  0.2672 -3.3218
22712SOL    HW269578   1.385   6.970   4.355  1.6108  0.3978 -0.2519
22713SOL     OW69579   6.078   2.959   5.413 -0.3361  0.0516  0.3720
22713SOL    HW169580   6.157   2.925   5.370 -0.6604 -1.9798  1.2452
22713SOL    HW269581   6.044   3.025   5.352  1.7166  0.5805 -0.2680
22714SOL     OW69582   2.565   0.853  12.287  0.3986 -0.1044  0.1259
22714SOL    HW169583   2.543   0.906  12.210  0.8008 -1.2661 -0.8175
22714SOL    HW269584   2.482   0.812  12.312 -0.1076  1.5346  1.3752
22715SOL     OW69585   1.973   3.518   1.453 -0.4805 -0.2750  0.1217
22715SOL    HW169586   2.052   3.567   1.429 -0.9082  0.1000 -0.5209
22715SOL    HW269587   1.985   3.433   1.410 -1.8164  0.7996 -2.5933
22716SOL     OW69588   2.120   0.381   3.789  0.4335 -0.4505  0.2360
22716SOL    HW169589   2.049   0.444   3.794 -0.1103 -0.9951 -0.4321
22716SOL    HW269590   2.193   0.422   3.836 -0.6685 -0.3819  1.9604
22717SOL     OW69591   7.028   3.491   2.186  0.1061  0.8307  0.0383
22717SOL    HW169592   7.004   3.459   2.273 -0.8518 -0.3922 -0.6550
22717SOL    HW269593   6.966   3.561   2.168 -1.3494 -0.5830 -0.6657
22718SOL     OW69594   6.996   3.500   7.409  0.1532  0.2337 -0.3025
22718SOL    HW169595   6.905   3.474   7.423  0.1814 -0.2226 -0.9558
22718SOL    HW269596   7.001   3.590   7.443 -0.0380 -0.4276  1.6226
22719SOL     OW69597   1.630   5.653  10.806  0.2207  0.4817  0.4836
22719SOL    HW169598   1.703   5.670  10.866  0.4408 -0.6548  0.5643
22719SOL    HW269599   1.618   5.558  10.809  0.3695  0.3663 -1.4262
22720SOL     OW69600   0.448   3.434  11.218  0.1237  0.5480  0.1277
22720SOL    HW169601   0.491   3.351  11.239  0.8068  1.2170  1.5340
22720SOL    HW269602   0.420   3.425  11.127  1.8524 -0.5148 -0.3448
22721SOL     OW69603   7.642   1.302   3.826  0.2126  0.3617 -0.2838
22721SOL    HW169604   7.627   1.278   3.918  1.6222  0.4924  0.0167
22721SOL    HW269605   7.692   1.228   3.791 -0.5085  0.2112 -1.0250
22722SOL     OW69606   6.912   7.281   4.947 -0.1608  0.3050  0.2932
22722SOL    HW169607   6.900   7.249   4.857 -1.1069  2.4502 -0.4138
22722SOL    HW269608   6.986   7.230   4.981  1.9702  1.1826 -2.6237
22723SOL     OW69609   2.145   4.125   3.544  0.5697 -0.2784 -0.3594
22723SOL    HW169610   2.106   4.200   3.501 -0.9801 -1.2725 -0.7779
22723SOL    HW269611   2.185   4.160   3.624 -0.6264  0.9010 -0.2506
22724SOL     OW69612   1.544   3.319   4.327 -0.5249  0.1619 -0.0373
22724SOL    HW169613   1.577   3.407   4.308  0.3715  0.0671  0.9323
22724SOL    HW269614   1.483   3.332   4.400 -0.9263  0.0527 -0.3485
22725SOL     OW69615   7.063   6.687   3.341 -0.2546 -0.5049  0.1160
22725SOL    HW169616   6.988   6.746   3.337 -0.6409 -0.9451  0.7065
22725SOL    HW269617   7.030   6.604   3.306 -0.2029 -0.8471  0.8477
22726SOL     OW69618   2.572   1.587   4.157 -0.0663 -0.2227 -0.4169
22726SOL    HW169619   2.590   1.669   4.204 -0.4750 -0.2886 -0.1349
22726SOL    HW269620   2.592   1.518   4.221 -1.1313 -0.2991 -0.1443
22727SOL     OW69621   5.225   6.648   8.667  0.7227 -0.0316 -0.4063
22727SOL    HW169622   5.192   6.665   8.755 -2.2789  1.3212 -1.6346
22727SOL    HW269623   5.299   6.708   8.657  0.4349  0.5667  0.8382
22728SOL     OW69624   5.257   6.543   9.175 -0.5184 -0.0114 -0.5781
22728SOL    HW169625   5.326   6.482   9.148 -0.2622  0.3754 -0.8069
22728SOL    HW269626   5.288   6.578   9.259  0.0876  0.9702 -1.2010
22729SOL     OW69627   7.143   7.597  12.149 -0.0727  0.4981 -0.1541
22729SOL    HW169628   7.203   7.546  12.203  2.2386  0.6391 -2.3631
22729SOL    HW269629   7.158   7.688  12.175 -0.2423  0.4388  0.1469
22730SOL     OW69630   4.037   2.896   0.479  0.2844 -0.0891 -0.0997
22730SOL    HW169631   4.124   2.921   0.510 -0.3121  0.8045  0.9056
22730SOL    HW269632   4.048   2.805   0.449  1.5235 -0.0295  0.1207
22731SOL     OW69633   5.630   2.991   1.710 -0.0698 -0.5114  0.0791
22731SOL    HW169634   5.588   2.939   1.778  1.2815  0.7645  2.0032
22731SOL    HW269635   5.582   2.971   1.630 -3.4264 -0.1279  1.8425
22732SOL     OW69636   0.048   5.698   1.025  0.0721  0.2494  0.6017
22732SOL    HW169637   0.102   5.765   0.983 -0.7224  0.3923 -0.2063
22732SOL    HW269638   0.016   5.739   1.105  1.3610  0.0748  1.2353
22733SOL     OW69639   6.166   6.010  11.135  0.0362 -0.1187  0.2230
22733SOL    HW169640   6.079   6.041  11.109  0.5445  0.2190 -1.1852
22733SOL    HW269641   6.150   5.949  11.206 -1.1833  1.6766  1.5972
22734SOL     OW69642   7.020   0.179   2.360 -0.0438 -0.3063 -0.0618
22734SOL    HW169643   6.931   0.143   2.367  0.4782 -1.6037  0.3029
22734SOL    HW269644   7.011   0.271   2.385 -1.2374 -0.4930  0.2512
22735SOL     OW69645   1.347   0.616   5.289 -0.2918 -0.4107 -0.1032
22735SOL    HW169646   1.439   0.615   5.264  0.0874 -0.6398  1.2152
22735SOL    HW269647   1.310   0.690   5.242  0.8006  0.2879  0.1001
22736SOL     OW69648   3.277   1.792   2.830  0.7524  0.4287 -0.7293
22736SOL    HW169649   3.305   1.797   2.921  0.5111 -0.7422 -0.5783
22736SOL    HW269650   3.306   1.875   2.791  1.4591  0.6458  0.2351
22737SOL     OW69651   1.976   4.322  10.412 -0.0435  0.1408  0.0259
22737SOL    HW169652   2.012   4.301  10.498 -0.7977  0.0169  0.3137
22737SOL    HW269653   2.046   4.372  10.369 -0.2542  1.5780  1.2785
22738SOL     OW69654   2.635   2.760   4.394  0.3751 -0.1415  0.3437
22738SOL    HW169655   2.574   2.834   4.389 -0.1503 -0.5573  0.5555
22738SOL    HW269656   2.594   2.698   4.454  0.9704 -0.4657  0.4298
22739SOL     OW69657   2.347   2.337   1.518 -0.1103  0.1484 -0.3159
22739SOL    HW169658   2.420   2.398   1.520  0.4029 -0.4695  0.8988
22739SOL    HW269659   2.321   2.333   1.426 -0.0298  2.0216 -0.4513
22740SOL     OW69660   7.307   2.577   3.106  0.5812  0.6649  0.0634
22740SOL    HW169661   7.344   2.552   3.190 -0.7476  1.2900  0.8524
22740SOL    HW269662   7.336   2.668   3.093 -0.9778  1.3168  0.9022
22741SOL     OW69663   4.705   4.879   4.078  0.0546 -0.3423  0.3655
22741SOL    HW169664   4.622   4.915   4.046 -0.0994 -2.3784 -1.7433
22741SOL    HW269665   4.761   4.956   4.089 -1.4748  0.8970 -0.1169
22742SOL     OW69666   3.644   2.822   0.967 -0.7765 -0.1153  0.1914
22742SOL    HW169667   3.596   2.746   1.001 -1.7062  0.0183 -0.7522
22742SOL    HW269668   3.653   2.804   0.873  2.0875 -0.6910  0.4839
22743SOL     OW69669   4.340   7.455   5.183 -0.2650  0.0927  0.2104
22743SOL    HW169670   4.355   7.523   5.248  0.7904 -1.2140  1.3927
22743SOL    HW269671   4.278   7.395   5.224 -3.1737  1.4880 -1.7440
22744SOL     OW69672   2.665   4.066   0.960 -0.1463  0.6113  0.1021
22744SOL    HW169673   2.631   4.121   0.889 -0.3196  0.2222 -0.1153
22744SOL    HW269674   2.750   4.106   0.982  0.9039 -0.4762 -1.7462
22745SOL     OW69675   7.007   0.036   1.340 -0.0952  0.0890  0.0203
22745SOL    HW169676   7.024  -0.058   1.342 -0.0121  0.0941 -0.3134
22745SOL    HW269677   6.938   0.047   1.275  1.4043  0.4699 -1.5815
22746SOL     OW69678   6.743   7.965   4.049  0.0917  0.2830 -0.3598
22746SOL    HW169679   6.838   7.966   4.043  0.0537  1.5593 -0.8939
22746SOL    HW269680   6.715   8.050   4.015 -1.2443 -0.0972 -0.2758
22747SOL     OW69681   4.856   0.038   3.772 -1.1644 -0.1047 -0.1189
22747SOL    HW169682   4.893   0.102   3.711  0.6815  0.2337  1.2727
22747SOL    HW269683   4.903   0.053   3.854 -1.6319 -2.3541  0.6326
22748SOL     OW69684   7.026   7.254   1.469  0.2982 -0.1189 -0.0176
22748SOL    HW169685   7.067   7.235   1.554 -0.4224 -2.0616 -0.0556
22748SOL    HW269686   6.933   7.243   1.484 -0.1362  2.4003 -0.4060
22749SOL     OW69687   3.382   7.872   8.781  0.7903 -0.0699  0.1831
22749SOL    HW169688   3.397   7.879   8.687  0.4702  0.0384  0.1376
22749SOL    HW269689   3.407   7.782   8.803  0.7056 -0.1489 -0.0384
22750SOL     OW69690   3.369   5.072   7.526 -0.2803  0.3226 -0.2492
22750SOL    HW169691   3.459   5.069   7.494 -0.3205 -0.2015 -0.3200
22750SOL    HW269692   3.366   5.149   7.584  0.0389  0.7225 -0.7578
22751SOL     OW69693   1.067   3.674   6.649 -0.1544  0.7567 -0.7850
22751SOL    HW169694   1.104   3.592   6.681  0.1023  1.1349 -0.0906
22751SOL    HW269695   1.034   3.653   6.561  1.0066  0.2187 -1.1129
22752SOL     OW69696   4.770   2.747   0.511  0.7423  0.1843  0.1890
22752SOL    HW169697   4.797   2.784   0.595 -0.0522 -0.2657  0.6514
22752SOL    HW269698   4.674   2.753   0.512  0.7665  2.0536 -1.5403
22753SOL     OW69699   7.635   6.847   5.019  0.6977  0.9193 -0.1226
22753SOL    HW169700   7.668   6.759   5.039  0.4226  0.5711 -1.1970
22753SOL    HW269701   7.681   6.873   4.939 -1.2655  0.6232 -1.3839
22754SOL     OW69702   0.428   0.418   2.395  0.1576  0.0834  0.0120
22754SOL    HW169703   0.473   0.335   2.380  0.0509  0.3359 -2.0897
22754SOL    HW269704   0.336   0.394   2.406  0.4069 -0.2206  1.7174
22755SOL     OW69705   4.050   2.917   1.906  0.2676 -0.2246  0.1304
22755SOL    HW169706   4.045   3.002   1.949 -1.0101 -0.2967  0.1467
22755SOL    HW269707   4.058   2.938   1.813  1.1281 -0.0899  0.2240
22756SOL     OW69708   2.075   7.470   4.131  0.3225 -0.3552 -0.0030
22756SOL    HW169709   1.987   7.507   4.124  1.3006  2.8436  2.1922
22756SOL    HW269710   2.067   7.398   4.194 -0.5176  0.9691  1.4693
22757SOL     OW69711   0.323   0.381   1.277 -0.3141  0.2095 -0.4398
22757SOL    HW169712   0.380   0.452   1.308  0.8774 -1.1231  0.5418
22757SOL    HW269713   0.248   0.383   1.335 -0.1876  0.5366 -0.2842
22758SOL     OW69714   6.471   4.496   5.843  0.0974  0.5521  0.2784
22758SOL    HW169715   6.417   4.417   5.835  2.4267 -1.0348 -1.2091
22758SOL    HW269716   6.410   4.565   5.869 -1.9444 -1.8608  2.4274
22759SOL     OW69717   2.331   7.389   0.188  0.0984 -0.1319  0.0430
22759SOL    HW169718   2.315   7.484   0.188  0.5442 -0.0129  1.9626
22759SOL    HW269719   2.421   7.380   0.218  0.0521 -1.1688 -0.1020
22760SOL     OW69720   0.506   5.318   3.183 -0.2357 -0.6024  0.3006
22760SOL    HW169721   0.538   5.228   3.186  2.0445  0.1610  0.5812
22760SOL    HW269722   0.452   5.327   3.262  0.8262 -1.2610  1.1211
22761SOL     OW69723   4.962   6.128   3.835  0.1945 -0.1134  0.2566
22761SOL    HW169724   4.949   6.045   3.881 -0.4374 -0.2786 -0.1992
22761SOL    HW269725   4.878   6.144   3.791  0.1667  0.9734  0.6687
22762SOL     OW69726   4.715   4.926   8.077 -0.9953  0.2907  0.0219
22762SOL    HW169727   4.631   4.880   8.072 -1.2240  0.5499  1.2888
22762SOL    HW269728   4.780   4.856   8.070 -1.3207  0.0094 -0.2589
22763SOL     OW69729   0.772   6.579   6.716 -0.4685  0.2200 -0.0194
22763SOL    HW169730   0.697   6.523   6.694 -0.4897 -0.0584  0.7204
22763SOL    HW269731   0.818   6.590   6.634 -0.1635 -1.3532 -0.0972
22764SOL     OW69732   7.760   2.338   4.743  0.3090 -0.5654 -0.3035
22764SOL    HW169733   7.718   2.422   4.763 -2.8190 -2.2559  0.9450
22764SOL    HW269734   7.687   2.279   4.724  2.3400 -3.2148 -0.3937
22765SOL     OW69735   3.104   6.427   8.091 -0.1712 -0.5898  0.0044
22765SOL    HW169736   3.133   6.378   8.014  0.1765 -0.7676  0.2477
22765SOL    HW269737   3.184   6.452   8.137 -0.3495  0.0739 -0.0274
22766SOL     OW69738   0.698   5.122   3.209 -0.1584 -0.2291  0.5297
22766SOL    HW169739   0.775   5.091   3.257  0.5857 -0.4308 -0.7525
22766SOL    HW269740   0.733   5.175   3.138 -1.2733  0.6542  0.6096
22767SOL     OW69741   0.978   3.971   8.378  0.2320  0.6736  0.2276
22767SOL    HW169742   0.958   4.043   8.438  0.1935  0.2336  0.7422
22767SOL    HW269743   1.045   3.920   8.423  0.1603  0.3080 -0.0764
22768SOL     OW69744   7.754   1.086   5.202  0.6981 -0.1116 -0.6677
22768SOL    HW169745   7.819   1.157   5.209 -1.2029  1.7339 -0.7685
22768SOL    HW269746   7.726   1.089   5.111  0.4549 -0.8790 -0.6186
22769SOL     OW69747   3.812   7.222   6.234 -0.3545  0.0077  0.0529
22769SOL    HW169748   3.725   7.196   6.203 -0.7669  0.7469  0.5627
22769SOL    HW269749   3.827   7.307   6.194  0.4588 -0.4324 -0.6141
22770SOL     OW69750   6.016   4.142  11.263 -0.2270 -0.1079  0.2521
22770SOL    HW169751   6.104   4.112  11.286  1.4106  1.4903 -3.1490
22770SOL    HW269752   5.987   4.083  11.193 -1.4411  0.0132  0.6263
22771SOL     OW69753   5.921   6.466   1.434 -0.5534 -0.1700  0.0850
22771SOL    HW169754   5.996   6.410   1.453  0.4532  1.2368  0.4652
22771SOL    HW269755   5.958   6.540   1.385 -1.8383  0.1601 -0.4389
22772SOL     OW69756   2.343   6.947   7.497 -0.0969 -0.4930 -0.1474
22772SOL    HW169757   2.270   6.966   7.556 -2.2997 -1.7779 -2.2707
22772SOL    HW269758   2.330   7.008   7.424  0.7922 -0.9545 -0.7040
22773SOL     OW69759   6.931   6.969   1.358 -0.1674  0.0221 -0.7325
22773SOL    HW169760   6.885   6.999   1.280 -0.7934  2.1455  0.3613
22773SOL    HW269761   6.946   7.048   1.409  2.5368 -0.9332  0.1473
22774SOL     OW69762   2.769   6.415   3.496  0.6145  0.8696 -0.2130
22774SOL    HW169763   2.713   6.407   3.419  0.1163  0.9713  0.1383
22774SOL    HW269764   2.709   6.427   3.569  1.1143  1.7823  0.0666
22775SOL     OW69765   0.976   6.629   0.703  0.0285 -0.4746 -0.0405
22775SOL    HW169766   0.923   6.655   0.627  0.1812  0.8366  0.2839
22775SOL    HW269767   1.064   6.616   0.666 -0.0581 -0.5953 -0.2106
22776SOL     OW69768   1.020   5.976   9.614  0.4220  0.2433 -0.0837
22776SOL    HW169769   1.056   5.913   9.676 -1.0854 -1.2342 -0.6105
22776SOL    HW269770   1.079   5.972   9.539 -0.2824 -1.4978 -0.5977
22777SOL     OW69771   1.214   3.176   4.563 -0.0817 -0.7155  0.0116
22777SOL    HW169772   1.164   3.166   4.644 -0.3825 -0.7822 -0.1796
22777SOL    HW269773   1.153   3.151   4.494  0.6056 -2.0269 -0.1524
22778SOL     OW69774   5.475   4.435  10.430  0.7543 -0.6108  0.2840
22778SOL    HW169775   5.468   4.363  10.367  1.1861  0.1610 -0.6878
22778SOL    HW269776   5.410   4.499  10.400  0.8289 -0.3175  0.7400
22779SOL     OW69777   7.918   0.037   8.609 -0.1559  0.7123 -0.0091
22779SOL    HW169778   7.950   0.127   8.616 -0.7648  0.9168  0.1219
22779SOL    HW269779   7.896   0.011   8.698 -0.8284  0.7446 -0.1619
22780SOL     OW69780   0.157   4.054   9.623  0.0256  0.0261 -0.3484
22780SOL    HW169781   0.171   4.131   9.678  0.2820 -1.1111  1.2544
22780SOL    HW269782   0.219   3.989   9.656 -0.0216 -0.8165 -1.8094
22781SOL     OW69783   1.606   1.198   9.561 -0.5489  0.4815  0.6866
22781SOL    HW169784   1.693   1.181   9.598 -0.4015 -0.6055 -0.1072
22781SOL    HW269785   1.612   1.167   9.471 -1.4070  1.5191  0.2555
22782SOL     OW69786   4.555   3.346   9.649  0.0372 -0.2340 -0.7767
22782SOL    HW169787   4.492   3.281   9.681  1.5601 -0.3127  2.3622
22782SOL    HW269788   4.636   3.296   9.635  0.1507  0.3197 -2.2702
22783SOL     OW69789   6.811   5.007  12.390 -0.1615 -0.2063  0.0700
22783SOL    HW169790   6.871   5.033  12.320 -0.7923 -0.8211 -0.7197
22783SOL    HW269791   6.774   5.090  12.422  0.6443  0.1283  0.1625
22784SOL     OW69792   4.882   1.256   7.844 -1.0039  0.6062  0.6157
22784SOL    HW169793   4.841   1.334   7.881 -0.0548  0.7532  1.3612
22784SOL    HW269794   4.869   1.188   7.910  1.1535  0.9997  1.5101
22785SOL     OW69795   3.750   6.237   2.507 -0.0202 -0.2138 -0.5579
22785SOL    HW169796   3.778   6.152   2.539  0.4086  0.0520 -0.2152
22785SOL    HW269797   3.663   6.222   2.469 -0.5479 -0.5235  0.7495
22786SOL     OW69798   5.923   1.945   6.308  0.1827 -0.1696 -0.6084
22786SOL    HW169799   5.837   1.963   6.270 -0.0289  1.3494  0.4687
22786SOL    HW269800   5.908   1.872   6.368 -0.3812  0.1139 -0.3954
22787SOL     OW69801   6.986   5.773   1.392  0.5150  0.2537  0.0554
22787SOL    HW169802   6.971   5.807   1.480 -1.5443  0.1509 -0.2014
22787SOL    HW269803   6.970   5.848   1.335  1.8233  0.3156 -0.2411
22788SOL     OW69804   6.103   0.158   5.783 -0.5700 -0.4062 -0.3954
22788SOL    HW169805   6.113   0.180   5.690  0.5776  0.2002 -0.1426
22788SOL    HW269806   6.100   0.063   5.785  1.7160 -0.5303 -0.8668
22789SOL     OW69807   2.918   4.993   3.271 -0.1607 -0.4300  0.1854
22789SOL    HW169808   2.996   4.939   3.272 -0.4265 -0.8156  0.1894
22789SOL    HW269809   2.951   5.082   3.260  0.2609 -0.6182 -0.0971
22790SOL     OW69810   3.551   2.163   4.372 -0.0467  0.3361  0.7066
22790SOL    HW169811   3.610   2.103   4.419  0.7559  2.6195  2.8689
22790SOL    HW269812   3.466   2.120   4.375  0.4489 -0.6310  2.3556
22791SOL     OW69813   0.582   5.749   1.662 -1.1309  0.4766 -0.1234
22791SOL    HW169814   0.615   5.807   1.594 -0.3236  0.9708  0.6633
22791SOL    HW269815   0.493   5.727   1.634 -1.1651  1.4612 -0.8352
22792SOL     OW69816   2.781   1.508   0.109 -0.2811  0.1183  0.0888
22792SOL    HW169817   2.734   1.452   0.047 -0.2569 -0.0618  0.2304
22792SOL    HW269818   2.855   1.454   0.138 -0.9495 -0.2458  1.1725
22793SOL     OW69819   5.999   1.799   5.146 -0.3375 -0.5395  0.0323
22793SOL    HW169820   6.036   1.740   5.080 -0.1066 -0.3014 -0.0532
22793SOL    HW269821   5.933   1.850   5.098 -0.1540 -0.3511 -0.0213
22794SOL     OW69822   4.982   4.090   2.345  0.8401 -0.4632  0.7966
22794SOL    HW169823   4.984   4.004   2.304  3.0829 -0.4834  0.8343
22794SOL    HW269824   4.939   4.146   2.280  0.3396 -1.3812  0.3155
22795SOL     OW69825   6.210   5.404   3.317 -0.0409 -0.6677  0.8393
22795SOL    HW169826   6.298   5.379   3.345 -0.3455 -2.0552  0.6174
22795SOL    HW269827   6.223   5.481   3.262  1.3681 -2.3931 -1.4306
22796SOL     OW69828   3.858   1.665  11.084 -0.5291 -0.1570  0.2317
22796SOL    HW169829   3.866   1.740  11.025  1.9507  0.4304  1.1719
22796SOL    HW269830   3.773   1.676  11.127 -0.1128  2.3337  0.5605
22797SOL     OW69831   1.598   2.252   5.315  0.1221 -0.0698 -0.1258
22797SOL    HW169832   1.559   2.253   5.227 -2.9351  0.0997  1.1219
22797SOL    HW269833   1.584   2.162   5.346 -1.9199  0.6775  1.3554
22798SOL     OW69834   2.652   6.139   6.347  0.0263  0.0707 -0.0349
22798SOL    HW169835   2.567   6.179   6.364  0.3708  0.5862  0.5092
22798SOL    HW269836   2.636   6.080   6.274 -0.6894  0.5306 -0.2625
22799SOL     OW69837   5.793   1.376   5.992 -0.1173  0.1141 -0.3184
22799SOL    HW169838   5.878   1.391   5.950  0.5312  0.0274  0.9048
22799SOL    HW269839   5.776   1.457   6.041  0.6601 -0.8889  1.7264
22800SOL     OW69840   3.844   1.440  11.255  0.5050  0.1313  0.1562
22800SOL    HW169841   3.787   1.476  11.323  1.3838  0.4051  0.7606
22800SOL    HW269842   3.824   1.493  11.177 -0.9738 -0.6065 -0.0055
22801SOL     OW69843   1.027   7.885   2.619 -0.8108  0.4288  0.0112
22801SOL    HW169844   1.066   7.928   2.695 -1.5893  1.0197  0.0944
22801SOL    HW269845   1.009   7.796   2.647  3.8575 -1.1272 -1.1428
22802SOL     OW69846   2.142   2.909   0.481  0.0683  0.0461  0.3102
22802SOL    HW169847   2.119   2.918   0.574  1.7447 -1.5867  0.9581
22802SOL    HW269848   2.080   2.844   0.447 -0.5254  0.6197  0.2724
22803SOL     OW69849   5.051   0.498  11.732  0.0971  0.2018  0.7363
22803SOL    HW169850   5.039   0.453  11.815 -0.6995  1.3039  1.2400
22803SOL    HW269851   5.116   0.566  11.751  0.4267  0.0215  0.2761
22804SOL     OW69852   1.135   6.143  10.740 -0.5470  0.3484  0.1453
22804SOL    HW169853   1.197   6.086  10.693  0.0962  1.6585 -0.6813
22804SOL    HW269854   1.191   6.206  10.785 -1.2547  1.1500 -0.0688
22805SOL     OW69855   4.389   3.102   4.661 -0.2028  0.3318 -0.2510
22805SOL    HW169856   4.455   3.044   4.624  0.6096  1.2755 -0.3299
22805SOL    HW269857   4.438   3.179   4.690 -1.1330  0.6265  0.6274
22806SOL     OW69858   4.031   1.255   6.370  0.6612 -0.2632 -0.0969
22806SOL    HW169859   3.998   1.341   6.345 -0.7539 -0.8446 -0.3196
22806SOL    HW269860   4.118   1.251   6.332  0.2647  0.5950 -1.1555
22807SOL     OW69861   7.378   7.244   6.533  0.1603 -0.3872  0.2793
22807SOL    HW169862   7.429   7.199   6.601 -0.7168 -0.1269  1.1208
22807SOL    HW269863   7.290   7.250   6.569 -0.3896 -0.4676 -0.9947
22808SOL     OW69864   3.781   5.648   0.764  0.8016 -0.6657  0.4269
22808SOL    HW169865   3.837   5.673   0.690 -0.5718  1.1528 -0.0540
22808SOL    HW269866   3.796   5.716   0.830 -0.7930 -0.1310  0.2875
22809SOL     OW69867   6.394   5.599  11.021 -0.5353 -0.3767  0.2105
22809SOL    HW169868   6.333   5.571  10.953  0.6840 -0.5622 -0.8590
22809SOL    HW269869   6.390   5.694  11.020 -1.5999 -0.4065  0.9157
22810SOL     OW69870   1.813   6.210   8.300 -0.0805 -0.3684 -0.3865
22810SOL    HW169871   1.907   6.210   8.278 -0.1052  1.7463 -0.6659
22810SOL    HW269872   1.810   6.171   8.388  0.9502 -1.2077 -0.6927
22811SOL     OW69873   5.625   1.649   8.073  0.1624  0.5711 -0.2905
22811SOL    HW169874   5.606   1.556   8.070 -0.5148  0.7309 -1.2139
22811SOL    HW269875   5.562   1.684   8.136  1.0922  0.2653  0.8399
22812SOL     OW69876   6.101   6.886  11.241 -0.3140  0.8097  0.0785
22812SOL    HW169877   6.113   6.821  11.172 -0.3083 -0.3313  1.1196
22812SOL    HW269878   6.026   6.938  11.212  0.1378  0.8179 -1.1251
22813SOL     OW69879   5.165   6.261   6.410  0.1972  0.2606  0.0031
22813SOL    HW169880   5.215   6.335   6.376 -1.0342  0.4236 -1.5492
22813SOL    HW269881   5.155   6.280   6.503  2.7958  0.3119  0.3475
22814SOL     OW69882   0.320   5.320   6.755  0.4985 -0.4880  0.8621
22814SOL    HW169883   0.319   5.414   6.772  0.3232 -0.4618  0.7012
22814SOL    HW269884   0.229   5.298   6.736  0.5199 -0.7114  1.0153
22815SOL     OW69885   7.242   3.662  11.482  0.3674 -0.0777 -0.1072
22815SOL    HW169886   7.179   3.693  11.416  0.5898 -0.2200 -0.3881
22815SOL    HW269887   7.187   3.631  11.554  0.0939 -0.7802 -0.6054
22816SOL     OW69888   6.547   6.178  10.785  0.1321  0.6556  0.1891
22816SOL    HW169889   6.466   6.175  10.837 -0.3193 -1.2223 -0.5434
22816SOL    HW269890   6.517   6.198  10.696  0.6338  1.1858  0.1307
22817SOL     OW69891   5.808   1.564  10.159  0.3135 -0.1493 -0.5344
22817SOL    HW169892   5.815   1.543  10.066  0.6371 -1.2153 -0.2867
22817SOL    HW269893   5.858   1.645  10.169  0.6712 -0.2766 -1.2136
22818SOL     OW69894   7.648   7.599   7.355 -0.4819  0.0222  0.4048
22818SOL    HW169895   7.586   7.539   7.396  0.4295 -1.1288  0.1184
22818SOL    HW269896   7.605   7.626   7.274 -1.6100  1.0960  1.3125
22819SOL     OW69897   6.163   4.879   8.198  0.2281 -0.1711 -0.3791
22819SOL    HW169898   6.126   4.921   8.121  0.3755  1.4031  0.3679
22819SOL    HW269899   6.205   4.800   8.165  1.1441  0.9550 -2.0702
22820SOL     OW69900   7.638   2.585   4.762 -0.0967 -0.4444  0.2999
22820SOL    HW169901   7.646   2.578   4.857 -1.1108 -0.4156  0.4012
22820SOL    HW269902   7.558   2.637   4.749 -0.1150 -0.6828 -0.5715
22821SOL     OW69903   1.099   7.235  10.426  0.5218  0.0050 -0.1768
22821SOL    HW169904   1.025   7.291  10.400 -0.0111 -1.5264 -2.2072
22821SOL    HW269905   1.164   7.249  10.357  0.8162 -1.0711 -0.1263
22822SOL     OW69906   2.331   1.180   1.288 -0.2183 -0.2699 -0.1649
22822SOL    HW169907   2.366   1.111   1.345 -0.4677 -1.6535 -1.6280
22822SOL    HW269908   2.382   1.258   1.311 -0.6154 -0.6426  2.2505
22823SOL     OW69909   2.651   4.746   4.427  0.2652 -0.3448 -0.2456
22823SOL    HW169910   2.687   4.830   4.400 -0.4950 -0.2486 -0.9935
22823SOL    HW269911   2.619   4.706   4.347  0.4553 -1.2744  0.1320
22824SOL     OW69912   4.158   3.282  10.009  0.0445 -0.3873 -0.2584
22824SOL    HW169913   4.141   3.318   9.922  1.5100  1.4825  0.1529
22824SOL    HW269914   4.242   3.320  10.034  0.6707 -2.5153  1.1546
22825SOL     OW69915   5.224   4.292   9.433  0.2393  0.1668  0.5377
22825SOL    HW169916   5.306   4.337   9.414  0.5407 -0.0720  1.2637
22825SOL    HW269917   5.199   4.252   9.349 -0.2255  1.9539 -0.2214
22826SOL     OW69918   5.483   5.644   9.606 -0.3085 -0.5570  0.0400
22826SOL    HW169919   5.441   5.571   9.560 -1.4681 -1.0383  1.7384
22826SOL    HW269920   5.529   5.602   9.679  1.2116  0.1965 -0.4617
22827SOL     OW69921   1.371   3.218  10.759  0.3655 -0.3335  0.0879
22827SOL    HW169922   1.410   3.296  10.720  0.5759 -0.6651 -0.3816
22827SOL    HW269923   1.395   3.222  10.852 -0.1465  0.4723  0.1918
22828SOL     OW69924   1.253   4.459   0.877 -0.0069  0.6838 -0.0576
22828SOL    HW169925   1.246   4.490   0.968  0.7570  0.0530  0.2331
22828SOL    HW269926   1.169   4.417   0.859  0.5545 -1.0081  1.0775
22829SOL     OW69927   6.415   2.633   2.340 -0.1809 -0.0689 -0.2522
22829SOL    HW169928   6.378   2.721   2.330 -0.8624 -0.2401  0.5787
22829SOL    HW269929   6.432   2.603   2.251  1.7665  1.6022 -0.4887
22830SOL     OW69930   7.488   0.197   6.605  0.4201 -0.1364 -0.3800
22830SOL    HW169931   7.484   0.140   6.682  3.1139 -0.4087 -0.3614
22830SOL    HW269932   7.405   0.182   6.560  0.5276 -3.2424  0.2360
22831SOL     OW69933   1.473   4.788   6.106 -0.0967 -0.7057  0.2959
22831SOL    HW169934   1.545   4.752   6.054  0.3625 -0.2196  0.5826
22831SOL    HW269935   1.457   4.722   6.174 -0.5930 -1.2680 -0.3654
22832SOL     OW69936   6.135   6.630   5.490  0.4622  0.5056  0.0517
22832SOL    HW169937   6.119   6.614   5.584  3.8640  1.6020  0.9388
22832SOL    HW269938   6.183   6.552   5.461  1.1754  1.0513 -0.2459
22833SOL     OW69939   6.342   5.713   6.767 -0.6094  0.1189 -0.4564
22833SOL    HW169940   6.358   5.667   6.849 -0.2345 -1.9233 -1.6147
22833SOL    HW269941   6.375   5.802   6.782  2.1291 -0.9945  0.6829
22834SOL     OW69942   2.340   1.051   4.374  0.2962  0.1993 -0.1581
22834SOL    HW169943   2.365   1.140   4.351  0.0066  0.6131  1.0191
22834SOL    HW269944   2.261   1.062   4.428  0.4543 -0.7404  0.2879
22835SOL     OW69945   4.485   5.534  12.202 -0.3883 -0.5327 -0.0657
22835SOL    HW169946   4.536   5.547  12.282 -0.6713  2.4119 -0.2587
22835SOL    HW269947   4.552   5.517  12.135  0.0871 -0.1820  0.3059
22836SOL     OW69948   6.610   1.849   8.186 -0.2678 -0.4944 -0.3095
22836SOL    HW169949   6.672   1.920   8.204 -1.2220 -0.1178  1.7418
22836SOL    HW269950   6.598   1.851   8.091 -0.5084  2.3292 -0.2948
22837SOL     OW69951   5.135   6.605   6.952 -0.3660 -0.0181  0.3411
22837SOL    HW169952   5.220   6.603   6.908  0.6618  0.4733  2.1816
22837SOL    HW269953   5.087   6.530   6.917  1.5759 -1.4619  0.6261
22838SOL     OW69954   0.416   1.505   8.621 -0.0133  0.3144  0.0123
22838SOL    HW169955   0.465   1.457   8.554  0.4187 -0.6272  0.9700
22838SOL    HW269956   0.456   1.592   8.622 -0.6535  0.6651 -1.5845
22839SOL     OW69957   7.183   6.941   1.479 -0.2164  0.3228  0.6551
22839SOL    HW169958   7.099   6.921   1.437  0.3866  1.3905 -1.1856
22839SOL    HW269959   7.232   6.990   1.412  2.0276 -0.5999  1.5233
22840SOL     OW69960   5.363   7.670   4.830  0.0553 -0.2629 -0.2146
22840SOL    HW169961   5.411   7.693   4.750 -1.4770  0.5417 -0.9304
22840SOL    HW269962   5.311   7.593   4.806 -1.0054  0.4438 -0.2490
22841SOL     OW69963   1.800   6.550   2.283  0.2516  0.0845  0.1574
22841SOL    HW169964   1.799   6.455   2.296  1.4076 -0.4831 -2.9914
22841SOL    HW269965   1.710   6.570   2.257  0.4578 -0.5883 -1.2156
22842SOL     OW69966   7.079   4.888   1.542 -0.1623 -0.1481  0.1700
22842SOL    HW169967   7.068   4.847   1.628 -0.1441 -0.7114 -0.0944
22842SOL    HW269968   7.171   4.911   1.539 -0.3062  0.5393  0.5889
22843SOL     OW69969   1.506   4.393  10.281  0.2059  0.9981 -0.0888
22843SOL    HW169970   1.564   4.331  10.325  1.3941  1.3628 -1.0775
22843SOL    HW269971   1.565   4.461  10.248 -0.7059  1.0429 -1.7050
22844SOL     OW69972   2.750   4.728   6.537 -0.0993 -0.0046  0.0723
22844SOL    HW169973   2.689   4.756   6.470 -0.6057 -1.8876 -0.3198
22844SOL    HW269974   2.819   4.794   6.536 -0.5305  0.4690 -1.6990
22845SOL     OW69975   6.510   4.207  12.155  0.1911 -0.2202  0.4314
22845SOL    HW169976   6.440   4.269  12.137  1.4343  1.0426 -0.2569
22845SOL    HW269977   6.467   4.135  12.201 -1.5010  0.6029  0.2208
22846SOL     OW69978   4.221   0.650   0.851 -0.1305  0.8377 -0.0866
22846SOL    HW169979   4.209   0.566   0.897  0.7863  0.6557 -0.1576
22846SOL    HW269980   4.134   0.671   0.817 -0.2986 -0.2925 -0.4076
22847SOL     OW69981   1.841   4.150   4.096  0.2688 -0.4013 -0.2305
22847SOL    HW169982   1.883   4.230   4.065 -1.3217 -0.0246 -1.5593
22847SOL    HW269983   1.796   4.176   4.176 -0.7832  0.2142 -1.0107
22848SOL     OW69984   3.678   4.042   9.872 -0.0700 -0.1317 -0.0675
22848SOL    HW169985   3.642   4.130   9.864  1.3435  0.3414 -2.2353
22848SOL    HW269986   3.683   4.026   9.966 -0.0131  2.2353  0.3908
22849SOL     OW69987   2.897   5.931   4.142  0.2766  0.1554  0.5136
22849SOL    HW169988   2.969   5.905   4.083 -2.0238 -2.2257 -1.5296
22849SOL    HW269989   2.899   5.866   4.212  0.3387  0.3184  0.6635
22850SOL     OW69990   0.323   2.722   9.782 -0.3911  0.5418 -0.1010
22850SOL    HW169991   0.330   2.719   9.687 -1.9550 -0.2106 -0.2155
22850SOL    HW269992   0.395   2.666   9.812  0.4672  1.2322 -0.7858
22851SOL     OW69993   7.757   0.936   4.389  0.3608 -0.3766  0.1300
22851SOL    HW169994   7.667   0.944   4.359 -0.6409 -1.3966  2.5794
22851SOL    HW269995   7.787   0.853   4.351 -0.3961 -0.9548  0.7468
22852SOL     OW69996   4.987   6.318   1.742 -0.0518 -0.1656 -0.6569
22852SOL    HW169997   4.988   6.397   1.796  1.0219 -1.5347  1.4682
22852SOL    HW269998   5.079   6.303   1.720 -0.2852 -0.6508 -1.3364
22853SOL     OW69999   4.326   3.891   0.941  0.4237 -0.0677  0.2252
22853SOL    HW170000   4.236   3.861   0.951  0.1769  0.6759  0.2696
22853SOL    HW270001   4.343   3.943   1.020 -0.3469  2.8383 -1.3497
22854SOL     OW70002   4.023   7.925   7.344 -0.7569  0.0733  0.2083
22854SOL    HW170003   4.068   7.985   7.403 -1.0088 -0.2763  0.7699
22854SOL    HW270004   4.079   7.847   7.341 -1.1735 -0.2539  0.6886
22855SOL     OW70005   1.170   2.972   2.342  0.0139 -0.4809  0.5067
22855SOL    HW170006   1.245   2.995   2.396  0.1724 -1.9904  0.9610
22855SOL    HW270007   1.207   2.920   2.271 -0.5205 -0.6613  0.3597
22856SOL     OW70008   7.790   6.231   4.743  0.1528 -0.1013 -0.1754
22856SOL    HW170009   7.878   6.256   4.715  0.7560 -0.7845  0.9931
22856SOL    HW270010   7.753   6.185   4.668  0.9208 -0.0861 -0.5750
22857SOL     OW70011   2.857   3.665   7.352 -0.2823  0.1392  0.2729
22857SOL    HW170012   2.789   3.602   7.331  0.0231 -0.3257  0.6705
22857SOL    HW270013   2.864   3.662   7.447  0.8720 -0.4303  0.1856
22858SOL     OW70014   0.589   1.449   0.356 -0.3227 -0.7287  0.1704
22858SOL    HW170015   0.654   1.441   0.425  1.6211  0.6748 -1.3707
22858SOL    HW270016   0.549   1.362   0.351  1.4682 -1.6725  1.1617
22859SOL     OW70017   1.189   1.326   4.617 -0.2986  0.0597 -0.6730
22859SOL    HW170018   1.130   1.313   4.542 -0.7069  0.3784 -0.4078
22859SOL    HW270019   1.153   1.272   4.686 -1.2364  1.4908  0.0096
22860SOL     OW70020   0.224   7.496   5.683 -0.1782 -0.0673  0.1811
22860SOL    HW170021   0.222   7.532   5.594 -0.3546 -2.2440 -0.7712
22860SOL    HW270022   0.133   7.478   5.704 -0.0340 -0.7535  0.2504
22861SOL     OW70023   1.622   2.407   4.249 -0.1150 -0.1899  0.0356
22861SOL    HW170024   1.651   2.316   4.238  1.9833  0.4503 -0.2668
22861SOL    HW270025   1.644   2.429   4.340 -0.3568  0.0778  0.0297
22862SOL     OW70026   2.127   7.843   7.855 -0.4309  0.3862  0.0495
22862SOL    HW170027   2.141   7.798   7.771  2.5890  0.7885  0.2291
22862SOL    HW270028   2.154   7.779   7.921 -1.1083  0.6795  0.6195
22863SOL     OW70029   6.956   6.637   6.811  0.5224 -0.9400  0.3415
22863SOL    HW170030   6.862   6.651   6.817  0.6957  0.9251 -0.5673
22863SOL    HW270031   6.971   6.614   6.719  1.3119  2.6360 -0.5545
22864SOL     OW70032   2.892   1.129   3.938  0.5907 -0.7255  0.2232
22864SOL    HW170033   2.861   1.083   3.860 -1.6956 -0.4852  0.9176
22864SOL    HW270034   2.848   1.085   4.010 -0.1600  1.2939  1.0595
22865SOL     OW70035   1.901   5.474   2.091 -0.3642  0.2271  0.3229
22865SOL    HW170036   1.868   5.417   2.161 -0.7470  2.5248  2.1473
22865SOL    HW270037   1.990   5.495   2.117  0.2441 -0.5308 -1.0330
22866SOL     OW70038   1.322   4.570   2.045  0.0565 -0.0779  0.1669
22866SOL    HW170039   1.391   4.506   2.060 -0.2817 -0.4959 -0.0555
22866SOL    HW270040   1.312   4.574   1.950  1.2567  1.5739  0.0634
22867SOL     OW70041   7.862   0.681   8.483 -0.5191 -0.1274  0.2837
22867SOL    HW170042   7.938   0.666   8.427  0.5366  1.1320  1.3159
22867SOL    HW270043   7.834   0.770   8.462  0.4678  0.7324  2.3262
22868SOL     OW70044   1.977   7.365  11.561 -0.1364 -0.1413 -0.5346
22868SOL    HW170045   2.012   7.330  11.643  0.6565  0.7007 -0.4943
22868SOL    HW270046   2.055   7.380  11.507 -0.7000 -1.6653 -1.8610
22869SOL     OW70047   0.751   4.576   3.762  0.4811  0.1136  0.6344
22869SOL    HW170048   0.714   4.633   3.828  0.0468 -0.3215  0.7704
22869SOL    HW270049   0.731   4.618   3.678 -0.8695 -0.4206  0.6684
22870SOL     OW70050   0.519   5.977   5.853 -0.2822 -0.0954 -0.2115
22870SOL    HW170051   0.537   5.958   5.760 -1.8546 -2.0061 -0.1992
22870SOL    HW270052   0.423   5.981   5.858 -0.2777 -1.2691  1.5271
22871SOL     OW70053   4.025   0.305   4.976  0.3078 -0.3620  0.3976
22871SOL    HW170054   4.029   0.362   4.899 -1.3900  0.4993  0.9183
22871SOL    HW270055   3.937   0.267   4.974  0.5997 -1.1355  1.3602
22872SOL     OW70056   2.807   2.526   0.767 -0.9873  0.4219 -0.3971
22872SOL    HW170057   2.837   2.589   0.832 -1.6292 -0.8017  1.1682
22872SOL    HW270058   2.808   2.573   0.684  1.7236  1.4881  0.1536
22873SOL     OW70059   5.407   0.041   1.993 -0.0496 -0.4217  0.5414
22873SOL    HW170060   5.321   0.031   1.952 -1.0929  1.7646  1.9736
22873SOL    HW270061   5.411   0.134   2.016  2.9635 -0.3544  0.0408
22874SOL     OW70062   2.059   6.810  11.324  0.4615 -0.4246 -0.6195
22874SOL    HW170063   2.032   6.744  11.389  0.0081  1.4409  1.1719
22874SOL    HW270064   1.978   6.857  11.302  0.9513  0.2100 -1.0969
22875SOL     OW70065   6.187   3.878  12.155  0.6190 -0.1798 -0.2601
22875SOL    HW170066   6.177   3.908  12.065  2.0775  0.0226 -0.3634
22875SOL    HW270067   6.262   3.926  12.189  0.3601 -0.5748  0.9345
22876SOL     OW70068   4.267   6.791   2.113 -0.3164  0.5429 -0.0944
22876SOL    HW170069   4.185   6.815   2.156  0.9213  2.2931  1.4819
22876SOL    HW270070   4.279   6.858   2.045  1.9334  3.3042  2.7041
22877SOL     OW70071   5.110   6.593   3.657 -1.0044  0.5955 -0.4136
22877SOL    HW170072   5.083   6.502   3.669 -1.9077  0.9924  0.8619
22877SOL    HW270073   5.174   6.609   3.728 -0.4341  0.8026 -0.9641
22878SOL     OW70074   3.080   2.368   4.780 -0.2318  0.0193 -0.4427
22878SOL    HW170075   3.095   2.274   4.789 -0.9688 -0.1868 -1.2292
22878SOL    HW270076   3.160   2.409   4.812 -0.4516 -0.8216  1.2851
22879SOL     OW70077   7.320   4.805   3.797 -0.0028 -0.5631 -0.3170
22879SOL    HW170078   7.320   4.824   3.891 -1.6136 -0.2216 -0.3581
22879SOL    HW270079   7.378   4.871   3.759  1.2987 -1.1871  0.4891
22880SOL     OW70080   2.816   1.945   2.070 -0.6471 -0.4127 -0.2512
22880SOL    HW170081   2.828   2.037   2.045  0.0017 -0.3669  0.2079
22880SOL    HW270082   2.875   1.897   2.012  1.0875 -0.2813  1.3062
22881SOL     OW70083   2.005   3.557   8.298 -0.1257  0.4753 -0.2925
22881SOL    HW170084   1.972   3.476   8.337  1.0267 -0.7947 -1.8280
22881SOL    HW270085   2.076   3.584   8.356  0.0071 -0.0691 -0.1890
22882SOL     OW70086   3.886   0.860  12.031 -0.0179 -0.1744  0.5500
22882SOL    HW170087   3.957   0.924  12.024  1.4459 -1.7671 -0.1102
22882SOL    HW270088   3.931   0.775  12.034 -1.8911 -1.2137  0.8635
22883SOL     OW70089   5.410   6.268   9.193 -0.2854  0.3089 -0.3484
22883SOL    HW170090   5.464   6.219   9.256  0.0789  2.0895  0.8129
22883SOL    HW270091   5.330   6.217   9.184 -1.1342  0.8153  3.0178
22884SOL     OW70092   3.560   0.637   5.515 -0.0962 -0.0519  0.0577
22884SOL    HW170093   3.518   0.551   5.515  0.1221 -0.1781 -0.9622
22884SOL    HW270094   3.622   0.634   5.587 -0.2649 -0.6692  0.1809
22885SOL     OW70095   2.123   5.459   8.950 -0.1839  0.5847  0.4466
22885SOL    HW170096   2.082   5.386   8.904 -1.3564  1.4927  0.0122
22885SOL    HW270097   2.065   5.476   9.024 -0.0171  1.2029  0.4398
22886SOL     OW70098   2.668   3.619   9.397  0.3533 -0.4626 -0.1076
22886SOL    HW170099   2.653   3.706   9.433  0.1118 -1.3833  2.2438
22886SOL    HW270100   2.763   3.609   9.396  0.3663 -0.7541  1.3144
22887SOL     OW70101   2.965   1.273   1.596  0.0298  0.7177 -0.3307
22887SOL    HW170102   2.897   1.264   1.529 -1.9315 -1.1543  1.7364
22887SOL    HW270103   2.949   1.201   1.657  0.6605  3.0798  2.9737
22888SOL     OW70104   1.569   2.343   5.591 -0.2347  0.3097 -0.2004
22888SOL    HW170105   1.549   2.339   5.498  1.1145  0.0100 -0.4903
22888SOL    HW270106   1.535   2.429   5.619 -0.0556  0.6860 -1.1125
22889SOL     OW70107   2.005   1.032   6.400  0.1335 -0.1219 -0.0798
22889SOL    HW170108   2.085   1.085   6.411 -0.6889  0.9338  1.1527
22889SOL    HW270109   1.934   1.095   6.407 -0.8345 -0.9638 -1.7676
22890SOL     OW70110   0.909   0.520   8.965 -0.1353 -0.3044 -0.5860
22890SOL    HW170111   0.871   0.608   8.971 -3.0409 -1.5178  1.3234
22890SOL    HW270112   0.919   0.504   8.872 -0.0500  1.8414 -0.9967
22891SOL     OW70113   2.522   3.074   8.900  0.1274 -0.1675  0.1089
22891SOL    HW170114   2.470   3.019   8.958  0.2865  1.0631  1.4720
22891SOL    HW270115   2.575   3.012   8.849  0.3902 -1.2706  1.6633
22892SOL     OW70116   3.238   5.527   8.252 -0.1817 -0.3950  0.1307
22892SOL    HW170117   3.155   5.509   8.297  0.1462 -1.5203  0.3151
22892SOL    HW270118   3.281   5.442   8.246  0.8988  0.1491 -0.1018
22893SOL     OW70119   6.391   1.887   9.156  0.7494  0.0590  0.1120
22893SOL    HW170120   6.376   1.973   9.117 -2.8121  0.5727  2.1826
22893SOL    HW270121   6.470   1.899   9.209 -0.3781  2.5667  1.4173
22894SOL     OW70122   5.324   4.041  11.600  0.0542  0.0071 -0.0274
22894SOL    HW170123   5.299   3.991  11.677 -2.7086  1.8329  0.4404
22894SOL    HW270124   5.419   4.040  11.600  0.1444 -0.7885  2.9191
22895SOL     OW70125   4.137   0.889   3.401 -0.0224  0.2510  0.3208
22895SOL    HW170126   4.114   0.798   3.420  1.8200 -0.0765  1.2007
22895SOL    HW270127   4.053   0.934   3.398 -0.9484 -1.3844  0.3386
22896SOL     OW70128   6.386   4.704  11.512  0.2403  0.5322  0.3881
22896SOL    HW170129   6.446   4.774  11.485  0.2006 -0.0511 -1.3395
22896SOL    HW270130   6.319   4.749  11.564 -1.5051  2.4527 -3.1168
22897SOL     OW70131   1.119   7.178   6.728  0.1698 -0.0693 -0.2929
22897SOL    HW170132   1.124   7.110   6.661 -0.5948 -0.4678  0.0374
22897SOL    HW270133   1.029   7.212   6.721  0.8044  1.5715 -1.0861
22898SOL     OW70134   2.643   2.838   1.973  0.1710 -0.4329 -0.0795
22898SOL    HW170135   2.664   2.914   1.918  2.2562 -1.5079 -0.9035
22898SOL    HW270136   2.548   2.833   1.973  0.0626  0.6033 -2.2414
22899SOL     OW70137   2.632   4.260   2.621 -0.4477  0.2898  0.1878
22899SOL    HW170138   2.661   4.329   2.681 -1.3420 -0.2761  1.3117
22899SOL    HW270139   2.710   4.235   2.573  0.0721  1.4746  0.3908
22900SOL     OW70140   5.141   1.347   5.008  0.3848 -0.7191  0.3457
22900SOL    HW170141   5.115   1.391   4.927 -0.3629  0.5690  1.2485
22900SOL    HW270142   5.094   1.264   5.006 -2.1478  0.6002  0.8587
22901SOL     OW70143   4.603   7.243  10.550  0.0628 -0.1887 -0.0308
22901SOL    HW170144   4.604   7.222  10.457  0.1855  1.8287 -0.5265
22901SOL    HW270145   4.693   7.268  10.571  0.0530 -0.6834  0.6580
22902SOL     OW70146   4.944   5.725   5.794  0.0972 -0.1500 -1.2265
22902SOL    HW170147   4.974   5.658   5.856  0.7678  0.8400 -0.4447
22902SOL    HW270148   4.851   5.734   5.813 -0.1890 -1.4283 -1.9082
22903SOL     OW70149   0.010   3.951  11.714  0.8300  0.0933 -0.2772
22903SOL    HW170150   0.050   3.880  11.664  0.3421 -0.7327  0.4833
22903SOL    HW270151  -0.067   3.977  11.662 -1.6060 -2.9560  1.4696
22904SOL     OW70152   1.450   0.158   6.242  0.0044 -0.3793 -0.6373
22904SOL    HW170153   1.360   0.184   6.222 -0.1553  0.2520  0.7798
22904SOL    HW270154   1.504   0.225   6.200 -0.2952  0.5000  0.3232
22905SOL     OW70155   7.438   4.768   3.422  0.3292 -0.3375  0.1835
22905SOL    HW170156   7.466   4.799   3.336  0.6482 -2.2610 -0.4629
22905SOL    HW270157   7.453   4.842   3.481  1.4840  0.5409 -1.1578
22906SOL     OW70158   7.227   1.017   0.865  0.3643 -0.2062  0.7578
22906SOL    HW170159   7.236   1.009   0.770 -1.0010 -2.0704  0.7339
22906SOL    HW270160   7.178   0.939   0.891 -0.6365  1.0286  2.8081
22907SOL     OW70161   2.416   6.206   9.728 -0.8143  0.2918  0.6598
22907SOL    HW170162   2.356   6.181   9.799  0.9152 -0.1198  2.0259
22907SOL    HW270163   2.498   6.228   9.771 -0.3915  2.4016 -1.0282
22908SOL     OW70164   0.450   2.821   4.424 -0.2367 -0.1346 -0.0669
22908SOL    HW170165   0.540   2.791   4.416 -0.4595 -0.7744 -0.2332
22908SOL    HW270166   0.404   2.782   4.350 -1.1914 -1.8510  1.3555
22909SOL     OW70167   0.174   1.907   4.692  0.2529  0.2007  0.0198
22909SOL    HW170168   0.096   1.852   4.704 -0.6005  1.5725  1.0930
22909SOL    HW270169   0.192   1.901   4.598  0.1391 -1.7856  0.0647
22910SOL     OW70170   1.996   1.744   0.858  0.0862  0.9257  0.8601
22910SOL    HW170171   1.985   1.773   0.767 -0.2420  0.7702  0.8466
22910SOL    HW270172   1.954   1.658   0.861  1.5627  0.1753  0.7575
22911SOL     OW70173   4.896   6.418   6.123  0.2606  0.1076  0.7609
22911SOL    HW170174   4.850   6.499   6.097  0.6527  0.0293 -0.2061
22911SOL    HW270175   4.855   6.350   6.070 -0.1402 -0.3596  1.6533
22912SOL     OW70176   2.389   5.995   2.749  0.1474  0.0877 -0.6836
22912SOL    HW170177   2.312   5.972   2.697  1.1206  2.5883 -3.5466
22912SOL    HW270178   2.461   5.996   2.685  1.8434  1.3757  1.1314
22913SOL     OW70179   6.193   6.538   5.111 -0.2796 -0.0087  0.2800
22913SOL    HW170180   6.194   6.570   5.021 -1.9235 -1.3406 -0.2604
22913SOL    HW270181   6.274   6.488   5.120 -0.2380 -0.1019 -0.5521
22914SOL     OW70182   6.522   7.958   2.230 -0.0724 -0.8216  0.0027
22914SOL    HW170183   6.472   7.969   2.311 -1.3988  0.8346 -0.9818
22914SOL    HW270184   6.573   8.039   2.222  1.2578 -1.6272 -0.0618
22915SOL     OW70185   5.491   0.135   1.369  0.4989  0.1896  0.3489
22915SOL    HW170186   5.545   0.106   1.443  1.9895 -0.2585 -0.8545
22915SOL    HW270187   5.405   0.096   1.385  0.5807  0.6794  2.1769
22916SOL     OW70188   3.090   5.972   1.303  0.5424 -0.6854 -0.1079
22916SOL    HW170189   3.087   5.926   1.219 -1.8724  0.8682 -0.9731
22916SOL    HW270190   3.136   6.054   1.284 -0.0211 -0.3221  0.0537
22917SOL     OW70191   3.263   6.158   8.690  0.2322 -0.3896 -0.0181
22917SOL    HW170192   3.171   6.135   8.690  0.3830 -1.0131 -0.2482
22917SOL    HW270193   3.303   6.099   8.626  0.8381 -0.3248  0.2892
22918SOL     OW70194   3.046   7.845   5.677  0.2754  0.0834 -0.1736
22918SOL    HW170195   3.117   7.817   5.620  0.2292  0.3569 -0.3660
22918SOL    HW270196   2.999   7.911   5.627 -0.2382 -0.2392 -0.1322
22919SOL     OW70197   1.011   0.750   5.717  0.2161 -0.2570  0.0639
22919SOL    HW170198   1.031   0.815   5.650  2.8191 -0.9537  0.0651
22919SOL    HW270199   0.989   0.671   5.668 -0.5233 -0.0608  0.0651
22920SOL     OW70200   4.915   7.837  12.282 -0.1657 -0.4867  0.1889
22920SOL    HW170201   4.887   7.792  12.203  1.9922 -0.4493 -0.6683
22920SOL    HW270202   4.972   7.907  12.251  1.0836 -0.7288  1.7832
22921SOL     OW70203   1.661   1.466   6.920  0.1819  0.4810  0.2933
22921SOL    HW170204   1.756   1.476   6.909 -0.1138  1.8856 -1.2568
22921SOL    HW270205   1.638   1.391   6.866  0.6966 -1.5149  2.6437
22922SOL     OW70206   5.853   6.839  11.567 -0.0918 -0.4627 -0.6824
22922SOL    HW170207   5.889   6.852  11.480 -0.1286  2.3272 -0.3643
22922SOL    HW270208   5.762   6.812  11.552  0.7456 -3.2712 -1.4299
22923SOL     OW70209   1.035   7.979   6.400  0.2444 -0.6932  0.6626
22923SOL    HW170210   1.013   7.936   6.317  1.4254  0.3301 -0.2176
22923SOL    HW270211   0.967   7.950   6.460 -2.2162  0.5385 -1.3141
22924SOL     OW70212   5.601   2.459   7.703  0.1547 -0.1119 -0.1482
22924SOL    HW170213   5.657   2.430   7.630 -0.5898  0.4468 -0.9620
22924SOL    HW270214   5.556   2.380   7.732 -0.0351 -0.2263 -0.7420
22925SOL     OW70215   2.532   1.279   4.525 -0.1513 -0.0266 -0.3615
22925SOL    HW170216   2.476   1.281   4.448 -0.5933  0.1261 -0.0418
22925SOL    HW270217   2.581   1.196   4.518 -1.7625 -1.0933  0.2866
22926SOL     OW70218   0.206   1.186  11.801 -0.5394 -0.1617 -0.1087
22926SOL    HW170219   0.205   1.154  11.711 -0.8296  0.5398 -0.3624
22926SOL    HW270220   0.166   1.273  11.797  1.7459  1.0045  0.2426
22927SOL     OW70221   4.485   4.116   6.814 -0.5456  0.4850  1.1927
22927SOL    HW170222   4.496   4.025   6.842 -1.9112  0.6514  2.4160
22927SOL    HW270223   4.550   4.164   6.864  0.6618  0.1183  0.0194
22928SOL     OW70224   6.840   4.187   4.739 -0.5779  0.7536  0.2706
22928SOL    HW170225   6.860   4.121   4.806 -0.4737  0.0203 -0.4706
22928SOL    HW270226   6.824   4.267   4.789 -1.0618  0.0890  1.2177
22929SOL     OW70227   2.403   1.400   4.716 -0.0162  0.1788 -0.9371
22929SOL    HW170228   2.355   1.320   4.736  0.0983  0.1633 -0.7187
22929SOL    HW270229   2.475   1.371   4.660 -0.3770  0.2318 -1.4330
22930SOL     OW70230   4.195   2.383   3.547 -0.2693  0.0515  0.2170
22930SOL    HW170231   4.213   2.326   3.473 -1.5217  1.6633 -1.4200
22930SOL    HW270232   4.261   2.452   3.542 -1.7245  1.4265 -0.8402
22931SOL     OW70233   6.412   6.730  10.830 -0.2223 -0.0009  0.1485
22931SOL    HW170234   6.442   6.643  10.804  2.5110  0.7492  0.3755
22931SOL    HW270235   6.386   6.721  10.922  0.5508 -0.5157  0.3270
22932SOL     OW70236   5.640   1.273   5.416 -0.5369 -0.3977 -0.1354
22932SOL    HW170237   5.568   1.252   5.475 -0.2691 -0.3279  0.2223
22932SOL    HW270238   5.683   1.348   5.457  1.2683 -1.9632  1.0234
22933SOL     OW70239   4.173   3.823   9.652 -0.1239  0.2175  0.3420
22933SOL    HW170240   4.142   3.891   9.712 -1.1442 -1.1039  1.3738
22933SOL    HW270241   4.250   3.787   9.695  0.7342  1.0262 -0.4588
22934SOL     OW70242   4.025   6.887   9.986 -0.4836 -0.6575  0.3742
22934SOL    HW170243   3.975   6.847   9.915 -0.5959  0.7992 -0.4143
22934SOL    HW270244   4.059   6.968   9.948 -1.0033  0.4441  2.1448
22935SOL     OW70245   3.326   3.791   1.893 -0.6168 -0.0810  0.4426
22935SOL    HW170246   3.328   3.701   1.926  0.3398 -0.6243 -0.9991
22935SOL    HW270247   3.339   3.782   1.798  1.1974  1.6458  0.4530
22936SOL     OW70248   4.221   1.957   4.782  0.2735 -0.0907  0.4186
22936SOL    HW170249   4.150   2.020   4.777  1.0588  0.7362 -0.9224
22936SOL    HW270250   4.187   1.887   4.838 -1.7087  0.1307 -0.4277
22937SOL     OW70251   1.157   6.642   0.392  0.7722 -0.0734 -0.1186
22937SOL    HW170252   1.229   6.685   0.345 -0.4464  1.1635 -0.9161
22937SOL    HW270253   1.081   6.654   0.335 -0.6241  0.9132  1.8508
22938SOL     OW70254   7.285   3.409   5.652 -0.1498 -0.0041 -0.1614
22938SOL    HW170255   7.238   3.327   5.663  0.0087 -0.1925 -0.8571
22938SOL    HW270256   7.377   3.387   5.670 -0.3022  0.3665  1.2156
22939SOL     OW70257   7.314   2.390   5.874  0.1513 -0.4544 -0.2340
22939SOL    HW170258   7.222   2.383   5.845 -0.2853  0.5107  0.8336
22939SOL    HW270259   7.343   2.300   5.884 -1.3650 -0.8076  1.4301
22940SOL     OW70260   4.739   5.171   0.277 -0.7275  0.7124  0.2709
22940SOL    HW170261   4.737   5.084   0.318 -1.3262  1.3193  1.5674
22940SOL    HW270262   4.826   5.205   0.295 -0.6716  0.6019  0.2113
22941SOL     OW70263   4.974   7.706   6.149  0.2782  0.2783 -0.5310
22941SOL    HW170264   5.030   7.682   6.222  0.1108  0.5410 -0.3135
22941SOL    HW270265   5.034   7.714   6.074  0.4642  0.1155 -0.4002
22942SOL     OW70266   6.345   7.108  10.677 -0.3884  0.3817 -0.4630
22942SOL    HW170267   6.266   7.155  10.704 -1.0492  0.1343 -1.8968
22942SOL    HW270268   6.328   7.081  10.587 -0.3568 -3.2095  0.4356
22943SOL     OW70269   2.981   3.870   3.076 -0.0680  0.1235  0.2491
22943SOL    HW170270   3.045   3.812   3.034 -0.0129 -0.1158  0.6667
22943SOL    HW270271   2.949   3.925   3.004  0.2251 -0.1033 -0.0600
22944SOL     OW70272   2.491   3.561   0.862  0.2561  0.0016  0.0781
22944SOL    HW170273   2.544   3.636   0.836  0.9318 -0.3186  0.4913
22944SOL    HW270274   2.507   3.552   0.956  0.3403 -0.7695  0.0021
22945SOL     OW70275   6.702   6.773   1.484  0.2540 -0.2633  0.4025
22945SOL    HW170276   6.714   6.689   1.440  1.9800  0.2627 -0.2225
22945SOL    HW270277   6.640   6.820   1.429  1.3222 -0.1470 -0.7408
22946SOL     OW70278   6.473   7.127   1.108 -0.5128 -0.5710 -0.6593
22946SOL    HW170279   6.443   7.098   1.022 -1.1723 -0.4105 -0.4851
22946SOL    HW270280   6.430   7.212   1.121  0.1739 -0.2391 -0.4909
22947SOL     OW70281   4.571   1.061   7.186  0.0360  0.4809 -0.4406
22947SOL    HW170282   4.506   1.125   7.157 -0.6405 -0.3801 -0.8767
22947SOL    HW270283   4.588   1.085   7.278 -1.2571  0.4544 -0.1702
22948SOL     OW70284   6.016   4.402   6.642  0.0193  0.2848  0.0677
22948SOL    HW170285   5.991   4.348   6.567 -1.5315  0.1985  0.6023
22948SOL    HW270286   6.064   4.344   6.700 -2.4522 -0.8588  1.0870
22949SOL     OW70287   4.618   1.180  11.472 -0.0691 -0.3705  0.5735
22949SOL    HW170288   4.577   1.152  11.554  0.4765  0.0840  1.0099
22949SOL    HW270289   4.570   1.133  11.404 -0.5238 -0.7593  1.1529
22950SOL     OW70290   7.660   1.240   6.841  0.4422 -0.1138 -0.3819
22950SOL    HW170291   7.726   1.252   6.908  1.4895  0.8537 -1.5418
22950SOL    HW270292   7.697   1.281   6.762 -1.1207 -0.3905 -1.3144
22951SOL     OW70293   6.349   3.127   7.483  0.7126 -0.3194 -0.5374
22951SOL    HW170294   6.339   3.193   7.552  2.6469 -0.5626  0.0430
22951SOL    HW270295   6.430   3.151   7.438 -0.9251  0.3425 -3.3712
22952SOL     OW70296   5.229   2.630   5.030 -0.0534  0.5037 -0.2375
22952SOL    HW170297   5.272   2.664   4.952 -0.6631  1.7438 -0.0605
22952SOL    HW270298   5.136   2.638   5.012 -0.2171 -0.8455 -0.0632
22953SOL     OW70299   1.635   7.619   6.482 -0.4613 -1.0701  0.7104
22953SOL    HW170300   1.665   7.561   6.552  0.7557 -1.0787  0.2082
22953SOL    HW270301   1.714   7.639   6.432 -1.3467 -1.2607 -0.8242
22954SOL     OW70302   6.768   6.441   3.490  0.4377 -0.6782 -0.4339
22954SOL    HW170303   6.673   6.437   3.479  0.1511  1.7996  0.6003
22954SOL    HW270304   6.795   6.349   3.488 -2.0981 -1.5536  0.3328
22955SOL     OW70305   3.593   5.765   3.732 -0.2772  0.2606  0.5064
22955SOL    HW170306   3.503   5.789   3.755 -0.3565  0.3931  0.0579
22955SOL    HW270307   3.585   5.682   3.684 -0.3215  1.0902 -0.9782
22956SOL     OW70308   2.131   1.214   9.855 -0.0305 -0.4862  0.0593
22956SOL    HW170309   2.082   1.288   9.819 -0.0061 -0.9790 -1.0461
22956SOL    HW270310   2.174   1.175   9.779  2.9452  0.5048  1.0649
22957SOL     OW70311   2.929   7.784   2.902 -0.2678  0.2057 -0.5086
22957SOL    HW170312   2.942   7.706   2.848 -2.1006 -0.1685 -0.4976
22957SOL    HW270313   3.000   7.782   2.966  0.7408 -0.4657 -1.6155
22958SOL     OW70314   4.588   1.527   9.339  0.4201 -0.3586  0.2477
22958SOL    HW170315   4.633   1.483   9.267  1.2798 -0.6851  0.9674
22958SOL    HW270316   4.593   1.620   9.317 -1.9363 -0.5665 -1.5942
22959SOL     OW70317   0.026   1.790   1.200  0.0396 -0.3857  0.1940
22959SOL    HW170318   0.087   1.823   1.134 -0.0886  0.4411  0.4840
22959SOL    HW270319   0.074   1.792   1.282  0.1000 -1.1327  0.1824
22960SOL     OW70320   5.554   3.259   6.770 -0.2061 -0.6206  0.5907
22960SOL    HW170321   5.581   3.194   6.705 -0.0089  1.1037 -1.1480
22960SOL    HW270322   5.515   3.329   6.718 -0.9878  0.3784  2.4488
22961SOL     OW70323   6.084   4.289   1.819  0.0100 -0.0854  0.1730
22961SOL    HW170324   6.149   4.263   1.885 -0.0875  2.4932  1.4054
22961SOL    HW270325   6.001   4.256   1.853 -0.1496  1.7511  1.8397
22962SOL     OW70326   2.260   6.707  12.237 -0.4899  0.0683 -0.3823
22962SOL    HW170327   2.268   6.774  12.305 -0.8967  0.2071 -0.4683
22962SOL    HW270328   2.335   6.649  12.251  1.4009  1.9809 -1.9432
22963SOL     OW70329   2.158   3.126  11.622 -0.5163  0.1340  0.0571
22963SOL    HW170330   2.065   3.130  11.644 -0.6891  0.7378 -0.7647
22963SOL    HW270331   2.199   3.189  11.681 -0.9427  1.5545 -1.1237
22964SOL     OW70332   0.855   6.865   2.921 -0.2784  0.2746  0.3330
22964SOL    HW170333   0.811   6.805   2.982  1.8543  0.6216  2.3421
22964SOL    HW270334   0.914   6.916   2.976  1.9446  0.4943 -2.0573
22965SOL     OW70335   1.360   5.599  10.827  0.0604  0.4978 -0.2414
22965SOL    HW170336   1.452   5.625  10.837  0.8131 -2.1359  0.4966
22965SOL    HW270337   1.328   5.590  10.917 -0.8789  1.1329 -0.4922
22966SOL     OW70338   3.421   0.789   9.591 -0.4268 -0.0367 -0.3271
22966SOL    HW170339   3.408   0.785   9.686 -0.8706 -1.7019 -0.4307
22966SOL    HW270340   3.425   0.698   9.563  0.1313  0.4256 -1.8656
22967SOL     OW70341   4.911   2.766  10.079  0.2255 -0.7315 -0.6133
22967SOL    HW170342   4.958   2.735  10.002 -1.2296 -1.2345 -1.3267
22967SOL    HW270343   4.932   2.859  10.084 -0.3938 -0.4824 -2.1770
22968SOL     OW70344   1.955   0.715   3.124 -0.0704 -0.1290 -0.0614
22968SOL    HW170345   2.013   0.638   3.123  2.4557  1.6692 -1.1686
22968SOL    HW270346   1.871   0.681   3.095  1.3512 -2.2417 -2.0728
22969SOL     OW70347   6.970   3.911  12.235 -0.0638 -1.0170 -0.5908
22969SOL    HW170348   7.043   3.850  12.244  0.0667 -0.8230 -0.2941
22969SOL    HW270349   6.968   3.933  12.142  1.2515  0.1842 -0.3727
22970SOL     OW70350   6.115   7.384   5.464  0.1954 -0.1299 -0.2351
22970SOL    HW170351   6.061   7.308   5.484 -1.3789  1.2739  1.1435
22970SOL    HW270352   6.196   7.370   5.514 -0.6306 -0.2880  1.0948
22971SOL     OW70353   7.768   6.072   9.014 -0.1502 -0.2746 -0.4570
22971SOL    HW170354   7.688   6.099   9.059  0.6515 -1.3630  1.8266
22971SOL    HW270355   7.780   6.137   8.945 -3.4464 -0.6121 -1.5062
22972SOL     OW70356   0.491   3.507   0.292 -0.3712  0.2517 -0.3332
22972SOL    HW170357   0.534   3.556   0.362  1.2079 -0.9475 -0.3880
22972SOL    HW270358   0.441   3.439   0.338 -0.2038  0.1290 -0.3305
22973SOL     OW70359   1.325   1.696   5.020  0.4559 -0.7139  0.2497
22973SOL    HW170360   1.380   1.721   4.945 -0.5993  0.2097 -0.2456
22973SOL    HW270361   1.259   1.638   4.983 -1.4434  1.4918 -0.0626
22974SOL     OW70362   4.425   0.016  10.646  0.2230 -0.1949 -0.7293
22974SOL    HW170363   4.348  -0.040  10.647  0.1965 -0.1569  0.0930
22974SOL    HW270364   4.479  -0.018  10.575 -0.7043 -0.0009 -1.5546
22975SOL     OW70365   0.315   7.689   3.095 -0.1918 -0.2271 -0.2470
22975SOL    HW170366   0.386   7.729   3.146  0.0445  0.9547 -1.4381
22975SOL    HW270367   0.242   7.683   3.156  0.6769 -0.7196  0.7779
22976SOL     OW70368   0.622   0.641   0.958  0.3268  0.9974  0.0241
22976SOL    HW170369   0.572   0.560   0.964  0.5820  0.7369 -1.1874
22976SOL    HW270370   0.588   0.695   1.029 -0.8972  0.4165 -0.0971
22977SOL     OW70371   0.774   6.602  12.369 -0.1336  0.3219  0.6787
22977SOL    HW170372   0.777   6.634  12.279  1.8195 -0.2647  0.4786
22977SOL    HW270373   0.811   6.673  12.421 -1.6185  0.8124  1.0951
22978SOL     OW70374   2.174   6.923   7.149 -0.2507 -0.3143 -0.0195
22978SOL    HW170375   2.238   6.854   7.132 -0.9500 -1.8057  2.7308
22978SOL    HW270376   2.227   6.999   7.174  0.4859 -0.6661 -0.4755
22979SOL     OW70377   4.483   7.432   6.965 -0.2198 -0.2317  0.4773
22979SOL    HW170378   4.471   7.352   7.016 -0.4015  0.1023  0.9674
22979SOL    HW270379   4.553   7.411   6.904 -1.5912 -1.4137 -0.7550
22980SOL     OW70380   3.693   2.889   3.375 -0.4292 -0.2704 -0.2209
22980SOL    HW170381   3.754   2.914   3.306  0.7564  0.9223  1.1841
22980SOL    HW270382   3.749   2.854   3.445 -1.6090 -1.6364  0.0931
22981SOL     OW70383   5.081   4.335   6.783  0.3972 -0.2943 -0.0801
22981SOL    HW170384   5.102   4.429   6.783 -1.7196  0.2407 -1.4760
22981SOL    HW270385   5.116   4.302   6.701 -1.1349 -0.1213 -0.8308
22982SOL     OW70386   1.290   0.084  12.039  0.5981 -0.1713 -0.0222
22982SOL    HW170387   1.290   0.117  11.949  0.5490 -1.0927 -0.3760
22982SOL    HW270388   1.199   0.063  12.057  0.5171  0.5605  0.4661
22983SOL     OW70389   6.283   1.305   6.552  0.2144  0.4182 -0.0680
22983SOL    HW170390   6.371   1.269   6.541  0.4330  1.1719 -0.8802
22983SOL    HW270391   6.252   1.268   6.635  0.1669 -2.1640 -1.1565
22984SOL     OW70392   7.743   4.766   0.701 -0.2380  0.1080 -0.5003
22984SOL    HW170393   7.663   4.751   0.651  0.1140 -1.5969 -0.6236
22984SOL    HW270394   7.772   4.678   0.726  0.2387  0.8320  1.6879
22985SOL     OW70395   3.271   0.429   4.245 -0.8777  0.7226  0.1278
22985SOL    HW170396   3.284   0.336   4.232 -0.0818  0.5100  2.0342
22985SOL    HW270397   3.219   0.435   4.326 -0.2232  1.9348  0.4891
22986SOL     OW70398   5.525   7.797  10.316 -0.2698  0.2741 -0.2179
22986SOL    HW170399   5.453   7.851  10.283  0.1844  1.9902  1.4118
22986SOL    HW270400   5.577   7.857  10.369  1.4162 -1.3366  0.0547
22987SOL     OW70401   2.715   3.737   1.224 -0.1499 -0.3607 -0.3197
22987SOL    HW170402   2.667   3.803   1.275 -0.8419  0.5164 -2.0122
22987SOL    HW270403   2.783   3.788   1.178 -0.2472 -0.9247 -1.1102
22988SOL     OW70404   0.033   6.929   7.918 -0.7350 -0.1448  0.1230
22988SOL    HW170405   0.111   6.979   7.891 -1.7678  2.1137  1.0496
22988SOL    HW270406  -0.027   6.937   7.844 -1.0213  0.2728  0.3973
22989SOL     OW70407   4.322   6.585   7.611 -0.3919  0.1133  0.3226
22989SOL    HW170408   4.339   6.678   7.623  0.5273 -0.1848  1.6055
22989SOL    HW270409   4.303   6.552   7.699 -1.1943 -0.8313 -0.1761
22990SOL     OW70410   4.304   5.646  12.415 -0.6339 -0.2468 -0.4887
22990SOL    HW170411   4.347   5.585  12.355  0.5985  1.1331 -1.0740
22990SOL    HW270412   4.270   5.590  12.486 -1.2064 -1.7935 -1.9113
22991SOL     OW70413   2.953   4.376   1.231 -0.2539  0.5318 -0.0639
22991SOL    HW170414   2.877   4.420   1.270 -1.1934  1.1035 -2.3717
22991SOL    HW270415   3.020   4.444   1.224  0.3342  0.1451  1.5354
22992SOL     OW70416   2.597   4.867   0.790  0.0343  0.0783 -0.0049
22992SOL    HW170417   2.569   4.776   0.789  1.5392 -0.4018 -0.3140
22992SOL    HW270418   2.564   4.903   0.707 -0.2272 -0.2845 -0.0592
22993SOL     OW70419   4.190   7.505   8.171  0.1566  0.2060 -0.8124
22993SOL    HW170420   4.244   7.579   8.198 -0.4741 -0.0516  1.2947
22993SOL    HW270421   4.102   7.541   8.162  0.0409 -0.0734 -0.8221
22994SOL     OW70422   1.304   6.391   0.765 -0.0488  0.1628 -0.4170
22994SOL    HW170423   1.222   6.345   0.747  0.0465 -0.3149  0.3477
22994SOL    HW270424   1.320   6.443   0.685 -0.6262 -0.4149 -0.9202
22995SOL     OW70425   3.297   5.819  12.147 -0.4292 -0.9173  0.2254
22995SOL    HW170426   3.241   5.759  12.097  1.8593 -0.5052 -3.2099
22995SOL    HW270427   3.293   5.901  12.098  0.7300  0.0508  1.6881
22996SOL     OW70428   2.385   6.318   8.939  0.2302 -0.0450 -0.5445
22996SOL    HW170429   2.331   6.388   8.902 -0.0097  0.4061  0.5961
22996SOL    HW270430   2.407   6.349   9.027 -0.9093 -1.8961  0.4880
22997SOL     OW70431   4.331   6.715   1.650 -0.1235  0.3015 -0.1027
22997SOL    HW170432   4.244   6.754   1.638  0.5935  2.2053  0.4009
22997SOL    HW270433   4.337   6.696   1.743  0.2173  0.8060 -0.0130
22998SOL     OW70434   5.785   0.458  12.067  0.2812 -0.2141  0.4237
22998SOL    HW170435   5.751   0.543  12.094  1.2747 -0.7647  3.9131
22998SOL    HW270436   5.814   0.416  12.149 -1.3714 -4.4848 -0.8787
22999SOL     OW70437   3.972   3.516   6.498 -0.1991  0.4888  0.1658
22999SOL    HW170438   3.885   3.512   6.460 -0.1614 -2.1360  0.1753
22999SOL    HW270439   4.030   3.534   6.424 -0.6081  0.7481 -0.0940
23000SOL     OW70440   0.793   1.202   0.136 -0.7583  0.0880 -0.3316
23000SOL    HW170441   0.736   1.162   0.202 -1.2220 -1.1491 -1.4232
23000SOL    HW270442   0.880   1.204   0.176 -1.2759  0.6553  0.8167
23001SOL     OW70443   4.960   2.746   8.289 -0.3257 -0.2621  0.4387
23001SOL    HW170444   4.909   2.827   8.291  0.0581 -0.0235  0.9211
23001SOL    HW270445   4.983   2.734   8.197 -2.3959 -1.1178 -0.0349
23002SOL     OW70446   6.561   4.920  11.494 -0.1127 -0.0224 -0.4010
23002SOL    HW170447   6.552   5.011  11.464  2.2016  0.1697 -0.7491
23002SOL    HW270448   6.589   4.928  11.585 -0.3059 -0.3981 -0.3099
23003SOL     OW70449   7.868   2.720   2.583 -0.6277 -0.1110  0.1082
23003SOL    HW170450   7.889   2.746   2.493  0.7412  1.4008  0.8000
23003SOL    HW270451   7.775   2.739   2.593 -0.2233  2.3714 -0.2054
23004SOL     OW70452   4.535   1.783   8.568  0.3673  0.0841  0.6675
23004SOL    HW170453   4.560   1.875   8.575  1.0128 -0.1034  1.0030
23004SOL    HW270454   4.484   1.766   8.647  1.3441 -0.1567  1.2740
23005SOL     OW70455   0.258   4.003   1.095 -0.5623 -0.4715 -0.3281
23005SOL    HW170456   0.195   4.043   1.155 -0.0951 -1.3614  0.8090
23005SOL    HW270457   0.327   4.068   1.084 -1.6861  0.5489 -1.6578
23006SOL     OW70458   0.058   1.110   0.319 -0.3438 -0.3882 -0.4757
23006SOL    HW170459   0.107   1.190   0.338 -0.7063 -0.6272  1.7782
23006SOL    HW270460  -0.016   1.139   0.266 -0.7705  0.8943  0.7690
23007SOL     OW70461   7.302   0.800   3.729 -0.3428  0.2612 -0.4138
23007SOL    HW170462   7.393   0.822   3.752 -0.1825  0.4574 -1.2031
23007SOL    HW270463   7.295   0.823   3.636 -1.1443  0.0549 -0.4070
23008SOL     OW70464   1.002   0.007  10.329 -0.0669  0.5485  0.7097
23008SOL    HW170465   0.985   0.094  10.365  0.9277  2.5452 -3.0972
23008SOL    HW270466   0.944  -0.001  10.254  1.1076 -1.3245 -0.0937
23009SOL     OW70467   7.258   4.656   7.740 -0.0929 -0.2355 -0.1646
23009SOL    HW170468   7.313   4.701   7.804 -0.6222  2.1434 -1.2512
23009SOL    HW270469   7.222   4.581   7.787  2.2306 -0.5764  1.2415
23010SOL     OW70470   4.337   5.073   8.852  0.7021  0.4085 -0.2270
23010SOL    HW170471   4.296   5.062   8.766  1.9174 -0.7743 -0.6952
23010SOL    HW270472   4.389   4.994   8.863 -0.2290  0.0423  2.0696
23011SOL     OW70473   0.063   6.274   4.664 -0.2078  0.3700  0.5611
23011SOL    HW170474   0.074   6.179   4.653  1.8895  0.5624  0.6496
23011SOL    HW270475   0.151   6.310   4.653 -0.5756  2.1086  2.7236
23012SOL     OW70476   6.642   1.366   0.047  0.0933 -0.2934 -0.1656
23012SOL    HW170477   6.565   1.395  -0.001 -0.5655 -2.1948 -0.3503
23012SOL    HW270478   6.699   1.328  -0.020  1.1181  0.9122 -0.0029
23013SOL     OW70479   5.699   7.946   1.838 -0.0352  0.6158 -0.6049
23013SOL    HW170480   5.715   7.939   1.932 -0.7181 -2.5141 -0.6353
23013SOL    HW270481   5.608   7.919   1.827  0.3899 -0.2605 -2.2767
23014SOL     OW70482   5.809   3.583  12.314 -0.1649 -0.2535 -0.2438
23014SOL    HW170483   5.754   3.652  12.351 -0.7003  0.0174 -1.5119
23014SOL    HW270484   5.896   3.622  12.306 -0.1870 -0.1183  0.1422
23015SOL     OW70485   1.709   6.212   6.336 -0.0000 -0.5924 -0.1706
23015SOL    HW170486   1.676   6.215   6.426 -1.2231 -1.0889 -0.5943
23015SOL    HW270487   1.703   6.303   6.306  2.4316  0.0101  0.9206
23016SOL     OW70488   4.824   7.428   6.394 -0.1309  0.5791 -0.2898
23016SOL    HW170489   4.760   7.447   6.326 -1.8748  0.1056  1.1519
23016SOL    HW270490   4.803   7.339   6.423  2.3174 -0.3195 -0.9483
23017SOL     OW70491   6.825   0.580   3.881 -0.3523 -0.2862 -0.2990
23017SOL    HW170492   6.802   0.526   3.956  1.3498 -0.1582  0.3608
23017SOL    HW270493   6.829   0.670   3.915 -2.2554  0.1876 -1.1812
23018SOL     OW70494   0.561   1.924   5.306 -0.1316  0.3678  0.3870
23018SOL    HW170495   0.650   1.956   5.290  0.4329 -0.4922  1.7080
23018SOL    HW270496   0.559   1.839   5.262 -0.6746  0.8557 -0.5690
23019SOL     OW70497   2.197   3.578   3.834 -0.1188  0.4794 -0.7998
23019SOL    HW170498   2.190   3.483   3.843 -0.4598  0.5163 -0.6716
23019SOL    HW270499   2.169   3.595   3.744 -0.4462  0.4979 -0.6953
23020SOL     OW70500   7.396   4.736   1.159  0.5888 -0.6093  0.0335
23020SOL    HW170501   7.304   4.762   1.162  0.1912 -2.0118  0.2282
23020SOL    HW270502   7.439   4.794   1.222 -0.3004 -0.4989  0.5517
23021SOL     OW70503   3.740   3.690   2.051  0.5154  0.0225 -0.5994
23021SOL    HW170504   3.780   3.771   2.082 -0.2043 -0.3214  1.3850
23021SOL    HW270505   3.701   3.713   1.967  1.4742  1.3624 -0.7107
23022SOL     OW70506   0.067   2.033   5.402 -0.1469 -0.7405  0.3265
23022SOL    HW170507  -0.014   2.071   5.369  0.5327  0.0045 -0.5360
23022SOL    HW270508   0.114   2.106   5.443  0.5169 -0.9423 -0.0479
23023SOL     OW70509   1.701   7.901   0.506 -0.1000  0.9328  0.0545
23023SOL    HW170510   1.779   7.943   0.470  0.2317 -1.5387 -2.4864
23023SOL    HW270511   1.725   7.808   0.514 -1.3397  0.7665  3.7256
23024SOL     OW70512   2.141   0.697  11.946  0.2651 -0.4217 -0.0635
23024SOL    HW170513   2.085   0.622  11.969  0.7870 -0.8566 -0.1805
23024SOL    HW270514   2.229   0.670  11.974  0.3050  0.5730  0.8512
23025SOL     OW70515   1.338   0.118   0.421 -0.3863  0.1831  0.4778
23025SOL    HW170516   1.254   0.160   0.436 -0.2503  0.8745 -0.6494
23025SOL    HW270517   1.386   0.178   0.364  0.1231 -1.1112 -0.4967
23026SOL     OW70518   3.541   7.924  10.403 -0.1263 -0.0256  0.4219
23026SOL    HW170519   3.545   7.986  10.330  0.2129  1.3505  1.5715
23026SOL    HW270520   3.481   7.856  10.373  0.1239  0.4248 -1.1965
23027SOL     OW70521   2.595   5.477   3.931  0.4375 -0.5447 -0.2947
23027SOL    HW170522   2.641   5.445   3.853 -1.8840 -0.8424 -1.6294
23027SOL    HW270523   2.637   5.431   4.004  2.3609 -0.6125 -1.3910
23028SOL     OW70524   6.057   3.249   3.120 -0.0542 -0.2000  0.2945
23028SOL    HW170525   6.042   3.322   3.060 -0.0375 -0.9690 -0.6563
23028SOL    HW270526   6.049   3.171   3.066  0.5611 -0.8899  1.1680
23029SOL     OW70527   3.756   5.939   3.857 -0.6094  0.0048 -0.0205
23029SOL    HW170528   3.713   5.854   3.842 -1.1948  0.3736 -0.4751
23029SOL    HW270529   3.849   5.917   3.867 -0.3926 -0.4918 -2.4599
23030SOL     OW70530   0.809   1.097   7.990  0.4118 -0.0296 -0.1535
23030SOL    HW170531   0.757   1.039   8.046  2.2067 -2.2465 -0.6043
23030SOL    HW270532   0.760   1.101   7.907 -0.0258 -0.4477  0.0792
23031SOL     OW70533   0.984   7.528  11.947 -0.5244  0.2217  0.4158
23031SOL    HW170534   1.071   7.569  11.939 -0.8093  0.9708  1.0345
23031SOL    HW270535   0.923   7.595  11.916 -0.9190 -0.1246  0.4450
23032SOL     OW70536   5.223   7.497   8.033 -0.2666 -0.3696 -0.0839
23032SOL    HW170537   5.195   7.405   8.027 -1.5191 -0.2632  2.8076
23032SOL    HW270538   5.291   7.497   8.100  0.3916  0.7028 -0.7338
23033SOL     OW70539   4.242   3.037   1.715  0.2050 -0.5194  0.0425
23033SOL    HW170540   4.334   3.055   1.696  0.4293 -0.9029  0.7297
23033SOL    HW270541   4.203   3.124   1.726  0.8359 -0.3662  1.3181
23034SOL     OW70542   6.058   1.613   4.943  0.2392  0.1862  0.2443
23034SOL    HW170543   6.040   1.520   4.933 -0.4467  0.1251  1.6792
23034SOL    HW270544   5.998   1.656   4.882  0.6926 -0.3049 -0.5618
23035SOL     OW70545   6.148   2.402   6.799  0.0589  0.0314 -0.2900
23035SOL    HW170546   6.182   2.491   6.794 -1.6988  0.8026  0.6353
23035SOL    HW270547   6.054   2.413   6.813 -0.2170 -1.9745 -0.2985
23036SOL     OW70548   5.980   5.261   6.404 -0.5074 -0.3741  0.3213
23036SOL    HW170549   5.961   5.167   6.412  0.2468 -0.4334  1.6264
23036SOL    HW270550   5.914   5.303   6.460  1.6652 -0.4467  3.1727
23037SOL     OW70551   6.132   0.605  10.369  0.2352  0.2586 -0.4569
23037SOL    HW170552   6.175   0.539  10.423  1.4254  0.4534 -1.1163
23037SOL    HW270553   6.192   0.680  10.370  0.2816  0.2865 -1.9718
23038SOL     OW70554   5.806   0.572   8.015  0.2261  0.6405 -0.5514
23038SOL    HW170555   5.821   0.663   7.992 -0.2082  0.8993  0.1572
23038SOL    HW270556   5.838   0.522   7.940 -0.5355  1.4233 -1.4162
23039SOL     OW70557   3.816   3.482  10.248 -0.3564 -0.0143  0.5247
23039SOL    HW170558   3.745   3.522  10.199  0.8583  2.5145  0.6401
23039SOL    HW270559   3.860   3.425  10.186  0.8759  2.7595 -1.3313
23040SOL     OW70560   2.455   7.864   3.023 -0.3563 -0.1148  0.3328
23040SOL    HW170561   2.535   7.812   3.016 -0.4728 -0.4252  1.1563
23040SOL    HW270562   2.446   7.906   2.938  0.8307  0.1466  0.3142
23041SOL     OW70563   5.342   1.144   7.025  0.0685  0.5722  0.2701
23041SOL    HW170564   5.433   1.163   7.046 -0.6985  2.2470  2.5303
23041SOL    HW270565   5.294   1.220   7.059 -2.5301 -1.9267  2.7271
23042SOL     OW70566   0.728   3.078   0.863  0.3236  0.1764  0.1808
23042SOL    HW170567   0.640   3.099   0.896 -0.2457  0.4113 -1.3729
23042SOL    HW270568   0.766   3.022   0.930 -1.4677 -0.9056  0.3639
23043SOL     OW70569   0.093   0.597   5.653  0.0782 -0.2446  0.1674
23043SOL    HW170570   0.158   0.655   5.615  0.5823 -1.4292 -0.8262
23043SOL    HW270571   0.129   0.573   5.738  0.7291 -0.5231 -0.1804
23044SOL     OW70572   4.036   4.782   1.283 -0.5190  0.3377 -0.1004
23044SOL    HW170573   3.992   4.818   1.206  0.8836  0.2580 -0.9774
23044SOL    HW270574   3.993   4.698   1.298  0.2035 -0.3779 -1.7751
23045SOL     OW70575   7.021   1.513   3.743  0.0772 -0.3716 -0.4180
23045SOL    HW170576   6.937   1.478   3.713 -0.1107 -1.6469  1.4780
23045SOL    HW270577   7.058   1.445   3.798  1.6928  0.7667 -0.0129
23046SOL     OW70578   5.317   4.071   7.021  0.3091 -0.0585 -0.0462
23046SOL    HW170579   5.397   4.123   7.029 -0.3253  0.9755 -0.2249
23046SOL    HW270580   5.328   4.023   6.939  1.0084 -0.3832  0.2381
23047SOL     OW70581   3.995   4.800   4.106 -0.3064 -0.1256  0.5536
23047SOL    HW170582   4.030   4.785   4.194 -0.3020 -0.0475  0.5654
23047SOL    HW270583   3.984   4.713   4.069 -2.5114 -0.3231  1.4788
23048SOL     OW70584   7.297   2.444   0.438 -0.4120 -0.0204 -0.4063
23048SOL    HW170585   7.241   2.408   0.506 -0.7249  0.6077 -0.3205
23048SOL    HW270586   7.308   2.373   0.375  0.8627 -1.0158  0.8658
23049SOL     OW70587   3.053   0.045   4.213 -0.0480  0.1187  0.2025
23049SOL    HW170588   3.064  -0.037   4.262 -1.2056  0.5097  1.1751
23049SOL    HW270589   2.972   0.033   4.164  0.2827  0.3248 -0.3947
23050SOL     OW70590   4.583   7.344   0.098 -0.1976 -0.3802 -0.0833
23050SOL    HW170591   4.650   7.411   0.089 -1.6814  1.3805  1.2848
23050SOL    HW270592   4.600   7.304   0.183  0.1095 -1.1500 -0.4874
23051SOL     OW70593   5.031   4.329   1.093 -0.2612 -0.6877  0.1334
23051SOL    HW170594   5.034   4.308   1.186  1.4546  0.2033  0.3152
23051SOL    HW270595   4.978   4.408   1.088 -1.3175 -1.3748  0.1973
23052SOL     OW70596   0.944   0.121  12.228  0.3487  0.1194  0.3098
23052SOL    HW170597   0.969   0.130  12.320 -1.3028 -0.3396  0.8368
23052SOL    HW270598   0.861   0.169  12.221 -0.6683 -1.6739 -0.4016
23053SOL     OW70599   0.335   5.615   1.621 -0.1047 -0.1076  0.1089
23053SOL    HW170600   0.383   5.539   1.588 -0.3991  0.7076 -2.4345
23053SOL    HW270601   0.256   5.578   1.660  0.5579 -1.1962  0.4607
23054SOL     OW70602   0.319   4.317   2.062 -0.2917 -0.3124 -0.2151
23054SOL    HW170603   0.402   4.291   2.103 -0.3066 -1.2965 -0.7872
23054SOL    HW270604   0.301   4.404   2.097  1.7855  0.6007 -1.2726
23055SOL     OW70605   2.607   1.316   6.344  0.1826  0.0961  0.3247
23055SOL    HW170606   2.577   1.337   6.432 -1.3529 -0.0436 -0.1461
23055SOL    HW270607   2.643   1.228   6.351  0.9282  0.4443  0.9945
23056SOL     OW70608   3.879   7.305   0.268  0.2611  0.0010  0.4477
23056SOL    HW170609   3.865   7.322   0.175  0.2703 -0.7181  0.3081
23056SOL    HW270610   3.792   7.310   0.307 -0.0570 -1.7565  0.0389
23057SOL     OW70611   6.511   5.960   6.428 -0.1380  0.7426 -0.1856
23057SOL    HW170612   6.550   5.997   6.349 -2.4837  0.7854 -1.4082
23057SOL    HW270613   6.488   5.871   6.404 -0.5600  0.6338  0.5787
23058SOL     OW70614   4.376   6.583   2.284  0.1781  0.6801  0.2292
23058SOL    HW170615   4.375   6.618   2.195 -0.7548 -0.3064 -0.1623
23058SOL    HW270616   4.300   6.622   2.326 -0.7269 -0.6323 -0.1363
23059SOL     OW70617   2.374   5.732   7.080  0.3600  0.2428  0.5699
23059SOL    HW170618   2.450   5.674   7.079 -0.1912 -0.6033 -2.5407
23059SOL    HW270619   2.299   5.672   7.081 -0.2235  0.8596 -1.5860
23060SOL     OW70620   6.551   0.012   0.894 -0.6575 -0.4882 -0.5901
23060SOL    HW170621   6.479   0.007   0.832 -1.1269 -2.8029  0.0465
23060SOL    HW270622   6.627  -0.019   0.845 -0.1868  1.2253 -1.0326
23061SOL     OW70623   3.946   6.882  12.083  0.2988 -0.1596 -0.1196
23061SOL    HW170624   3.976   6.902  11.995  0.4833 -1.4248 -0.3614
23061SOL    HW270625   4.026   6.883  12.136  0.3892 -0.8187 -0.2418
23062SOL     OW70626   4.632   2.766   8.071  0.5815  0.2116 -0.1388
23062SOL    HW170627   4.707   2.821   8.094  1.0461 -0.5902  0.3426
23062SOL    HW270628   4.570   2.779   8.142  0.3490  0.7013 -0.4232
23063SOL     OW70629   5.266   6.657   3.867 -0.6413 -0.9369  0.6601
23063SOL    HW170630   5.318   6.584   3.899 -1.4304 -1.2899  1.1578
23063SOL    HW270631   5.316   6.735   3.892  0.1272 -1.2842  0.2534
23064SOL     OW70632   6.158   6.501   3.908 -0.8569  0.1552  0.0047
23064SOL    HW170633   6.207   6.455   3.840 -0.9626 -1.2844  0.8651
23064SOL    HW270634   6.069   6.467   3.900 -0.5995 -1.0717  1.6763
23065SOL     OW70635   1.972   0.081   4.616 -1.3470 -0.0502 -0.1377
23065SOL    HW170636   2.010   0.045   4.696 -1.5274  0.4846  0.1951
23065SOL    HW270637   2.036   0.144   4.585 -1.1442 -0.4692 -0.5811
23066SOL     OW70638   4.678   1.423  10.051 -0.6873  0.1140 -0.2918
23066SOL    HW170639   4.620   1.499  10.047  0.0933  0.7222 -0.2433
23066SOL    HW270640   4.653   1.370   9.975 -0.1539  1.2241 -1.2708
23067SOL     OW70641   0.697   7.055   9.911  0.3214 -0.0376  0.0088
23067SOL    HW170642   0.676   7.118   9.981  2.1365  1.5641 -0.8003
23067SOL    HW270643   0.706   7.109   9.832  0.1244 -1.5760 -1.1185
23068SOL     OW70644   6.901   3.740   7.489 -0.1463 -0.3648 -0.3535
23068SOL    HW170645   6.908   3.834   7.475  0.8097 -0.0304  2.0080
23068SOL    HW270646   6.840   3.730   7.562 -0.5154 -1.6314 -0.7919
23069SOL     OW70647   0.966   0.181   5.545  1.0884  0.4649 -0.4029
23069SOL    HW170648   0.957   0.101   5.494  1.7735 -0.4110  0.8127
23069SOL    HW270649   0.878   0.218   5.546  0.6663 -0.5046 -0.5987
23070SOL     OW70650   4.764   0.969   3.221 -0.0966  0.0808 -0.5929
23070SOL    HW170651   4.858   0.961   3.237 -0.6244 -1.9360  2.2819
23070SOL    HW270652   4.751   0.926   3.136  1.3506 -1.4171 -0.1140
23071SOL     OW70653   0.427   5.020   3.135  0.0302  0.1763  0.2005
23071SOL    HW170654   0.353   4.980   3.180 -0.5937  1.4937  0.3966
23071SOL    HW270655   0.500   5.012   3.196 -0.1474 -0.3802  0.3497
23072SOL     OW70656   2.847   2.727   0.204 -0.2556  0.3770 -0.0453
23072SOL    HW170657   2.896   2.704   0.125 -0.8957 -0.3666 -0.2448
23072SOL    HW270658   2.757   2.699   0.185 -0.4411  0.3100  0.8986
23073SOL     OW70659   7.495   7.148   6.181 -0.8758  0.5067  0.5776
23073SOL    HW170660   7.499   7.215   6.113  0.7267  1.2441  1.3396
23073SOL    HW270661   7.521   7.067   6.136  2.8127  1.4189  0.7005
23074SOL     OW70662   0.187   6.360   3.231 -0.4493  0.4821  0.4586
23074SOL    HW170663   0.112   6.314   3.268  0.1058  1.1282  2.4906
23074SOL    HW270664   0.263   6.311   3.262  0.0218 -0.0087 -1.3549
23075SOL     OW70665   0.767   2.997   9.923  0.3070 -0.4309 -0.3378
23075SOL    HW170666   0.779   2.904   9.904 -1.3297 -0.7864  0.1813
23075SOL    HW270667   0.763   3.002  10.019  1.0750  0.2810 -0.3309
23076SOL     OW70668   6.515   0.659   0.372  0.0348  0.0988  0.2070
23076SOL    HW170669   6.572   0.665   0.449  0.0687  0.6997  0.1349
23076SOL    HW270670   6.490   0.566   0.369 -0.3732  0.1622  1.2309
23077SOL     OW70671   7.886   6.892  11.958 -0.4792 -0.1757  0.6975
23077SOL    HW170672   7.928   6.974  11.931 -0.2575 -0.2400  0.8447
23077SOL    HW270673   7.865   6.848  11.876 -4.5644  1.9659  0.3602
23078SOL     OW70674   7.843   2.254   5.472 -0.3413 -0.1147 -0.0117
23078SOL    HW170675   7.841   2.336   5.521  1.2302  0.5328 -0.9561
23078SOL    HW270676   7.845   2.186   5.539  1.2717  0.7315  0.8402
23079SOL     OW70677   2.137   1.917   8.930 -0.3248 -0.0535  0.4159
23079SOL    HW170678   2.137   1.966   8.848  2.0368  0.7364  0.8248
23079SOL    HW270679   2.092   1.974   8.992 -0.4544  0.1639  0.1258
23080SOL     OW70680   5.157   5.535  10.703  0.1589 -0.0887 -0.1266
23080SOL    HW170681   5.065   5.556  10.687  0.6551  0.3167 -2.9274
23080SOL    HW270682   5.166   5.445  10.669  0.6217 -0.4656  0.9668
23081SOL     OW70683   6.633   2.417  12.193  0.4170  0.0110  0.0871
23081SOL    HW170684   6.661   2.325  12.185 -0.9274 -0.4426  0.3493
23081SOL    HW270685   6.659   2.457  12.110 -0.1555 -0.9418 -0.5659
23082SOL     OW70686   4.766   4.223  12.246 -0.1757 -0.3177 -0.2884
23082SOL    HW170687   4.745   4.282  12.318  0.2612  1.0545 -1.2504
23082SOL    HW270688   4.688   4.225  12.190  0.2029  0.0974 -0.8064
23083SOL     OW70689   7.831   4.222  12.319 -0.1178 -0.0612 -0.2020
23083SOL    HW170690   7.750   4.247  12.363  1.0605  1.0955  1.4419
23083SOL    HW270691   7.882   4.303  12.315  1.1360 -0.8447 -0.8417
23084SOL     OW70692   7.666   3.563   1.748  0.3556  0.0274 -0.9102
23084SOL    HW170693   7.629   3.559   1.660  1.3843  0.9328 -1.4058
23084SOL    HW270694   7.717   3.644   1.750 -0.9881  0.9156  1.0722
23085SOL     OW70695   3.143   2.840   5.238  0.0728 -0.2082 -0.2333
23085SOL    HW170696   3.213   2.775   5.234  1.0642  0.7091  1.1824
23085SOL    HW270697   3.063   2.789   5.252  0.8452 -1.1396  1.0011
23086SOL     OW70698   3.556   7.827   2.103  0.1227  0.4538 -0.4029
23086SOL    HW170699   3.482   7.887   2.102 -0.0108  0.3310  0.6553
23086SOL    HW270700   3.591   7.834   2.192 -0.1805 -1.3470 -0.0941
23087SOL     OW70701   6.673   7.376   3.358  0.1107  0.6991  0.0110
23087SOL    HW170702   6.740   7.307   3.358 -2.1171 -1.7229 -2.1474
23087SOL    HW270703   6.593   7.331   3.385 -1.7323  1.9827 -2.8141
23088SOL     OW70704   7.940   2.234   5.223 -0.1118 -0.4366  0.1104
23088SOL    HW170705   7.925   2.265   5.312  0.0394  0.2612 -0.0996
23088SOL    HW270706   7.854   2.204   5.194 -0.2677 -0.1987  0.3183
23089SOL     OW70707   4.425   2.711  12.301 -0.2469  0.3221 -0.3143
23089SOL    HW170708   4.439   2.802  12.278  2.6848 -0.2654 -1.2466
23089SOL    HW270709   4.481   2.696  12.377  1.9608 -1.4276 -2.1642
23090SOL     OW70710   2.691   3.945   2.638  0.5166 -0.2442 -0.4518
23090SOL    HW170711   2.661   3.914   2.553 -3.3464 -0.1871  0.6985
23090SOL    HW270712   2.629   4.014   2.662 -0.2760 -2.0376  3.4683
23091SOL     OW70713   4.594   1.088  11.787 -0.1020 -0.2283 -0.7375
23091SOL    HW170714   4.508   1.063  11.820 -0.4009  0.7394 -0.7401
23091SOL    HW270715   4.605   1.178  11.818  0.7796 -0.2450 -0.9915
23092SOL     OW70716   3.283   2.431   7.835  0.3462 -0.5844  0.4262
23092SOL    HW170717   3.292   2.489   7.760 -2.0549  0.5389  0.8921
23092SOL    HW270718   3.302   2.486   7.911 -1.7077 -0.3684  0.8570
23093SOL     OW70719   6.697   0.270  10.953  0.0073 -0.0071  0.3616
23093SOL    HW170720   6.718   0.342  11.013  1.0550  0.1770 -0.2019
23093SOL    HW270721   6.719   0.305  10.867  1.3020 -1.2763  0.1508
23094SOL     OW70722   5.689   1.710   4.317  0.4903  0.0468 -0.0240
23094SOL    HW170723   5.706   1.704   4.411 -0.2843 -1.5045  0.0498
23094SOL    HW270724   5.624   1.780   4.309 -0.3182 -0.5983  0.7394
23095SOL     OW70725   2.477   0.564   5.740 -0.3440  0.0407  0.1143
23095SOL    HW170726   2.542   0.617   5.787 -0.9444  1.3172 -0.4627
23095SOL    HW270727   2.493   0.474   5.770  0.8705  0.5047  0.9098
23096SOL     OW70728   2.951   6.202   6.740 -0.3558 -0.1656 -0.0044
23096SOL    HW170729   2.921   6.140   6.674 -1.5075  0.3210  0.0522
23096SOL    HW270730   3.038   6.169   6.765 -0.0691 -0.5726 -1.4575
23097SOL     OW70731   5.724   1.128   0.128  0.0562 -0.5608  0.3501
23097SOL    HW170732   5.696   1.107   0.039  0.4799 -2.0068  0.5360
23097SOL    HW270733   5.642   1.147   0.175 -0.2175 -0.4052 -0.1766
23098SOL     OW70734   3.665   2.251   1.688 -0.0049  0.3723 -0.3434
23098SOL    HW170735   3.572   2.262   1.708 -0.5182  0.7918 -2.6172
23098SOL    HW270736   3.666   2.192   1.613  1.4898  1.0381 -0.8921
23099SOL     OW70737   0.261   5.760   2.139 -0.2744 -0.6854 -0.8969
23099SOL    HW170738   0.316   5.756   2.060  0.5630 -0.2970 -0.3576
23099SOL    HW270739   0.213   5.842   2.130  0.0126 -0.5118 -0.8929
23100SOL     OW70740   5.118   1.267   4.033 -0.0572 -0.4638 -0.8616
23100SOL    HW170741   5.048   1.229   3.980 -0.7910  1.5042 -1.3973
23100SOL    HW270742   5.082   1.350   4.065  1.0986 -0.6530  1.0909
23101SOL     OW70743   3.744   0.300   1.870  0.2985 -0.0381 -0.3323
23101SOL    HW170744   3.673   0.284   1.931 -2.5861  3.3194 -2.3679
23101SOL    HW270745   3.745   0.224   1.813 -1.7885 -0.1794 -0.2561
23102SOL     OW70746   7.194   7.104   3.686  0.0149  0.3499  0.3442
23102SOL    HW170747   7.211   7.070   3.598  1.3578 -0.0612  0.7366
23102SOL    HW270748   7.193   7.026   3.742  1.9392  0.7814  1.0790
23103SOL     OW70749   2.549   7.957   9.622 -0.0718 -0.5593 -0.2270
23103SOL    HW170750   2.529   7.913   9.539 -1.8317 -0.8833  0.3265
23103SOL    HW270751   2.644   7.970   9.620 -0.0485 -0.7107 -2.2053
23104SOL     OW70752   0.375   2.419   8.591  0.1697 -0.3951  0.1067
23104SOL    HW170753   0.380   2.356   8.663  1.4749 -0.3814  0.0691
23104SOL    HW270754   0.369   2.365   8.512 -0.7512 -0.4185  0.1822
23105SOL     OW70755   5.275   3.919   7.801 -0.7870  0.3768  0.3115
23105SOL    HW170756   5.236   3.973   7.870  1.8156  1.5714  0.9672
23105SOL    HW270757   5.333   3.858   7.847 -1.1448 -0.7539 -0.6654
23106SOL     OW70758   5.320   3.111   1.951  0.2283 -0.5018 -0.4187
23106SOL    HW170759   5.352   3.021   1.952 -1.1964 -1.0241 -0.4261
23106SOL    HW270760   5.307   3.133   2.043 -0.3080 -0.6364 -0.4594
23107SOL     OW70761   1.306   3.587  11.445  0.0425  0.9876 -0.0025
23107SOL    HW170762   1.334   3.560  11.358  2.1683  1.7316  0.3907
23107SOL    HW270763   1.256   3.667  11.431 -0.6054  0.5001 -0.5919
23108SOL     OW70764   3.627   2.421   0.266  0.2145  0.1922 -0.6404
23108SOL    HW170765   3.598   2.509   0.291 -0.4268 -0.2204  0.0977
23108SOL    HW270766   3.547   2.378   0.235  0.3578 -0.4240 -0.1589
23109SOL     OW70767   3.914   2.168  11.539 -0.5960 -0.3585  0.0410
23109SOL    HW170768   3.959   2.201  11.461  0.1505 -0.5991  0.3584
23109SOL    HW270769   3.899   2.245  11.594 -1.8562 -0.0616 -0.6871
23110SOL     OW70770   2.580   3.540   5.055 -0.4551 -0.0420  0.1088
23110SOL    HW170771   2.646   3.473   5.041 -1.5541 -1.6682  2.1804
23110SOL    HW270772   2.630   3.619   5.078  0.7993 -0.9467  0.5854
23111SOL     OW70773   4.939   3.232   2.127 -0.2947  0.5164  0.2022
23111SOL    HW170774   5.019   3.274   2.161 -1.0760  1.1154  1.3758
23111SOL    HW270775   4.962   3.140   2.120  1.0940  0.9316 -1.3239
23112SOL     OW70776   1.123   3.642   2.091  0.0602  0.8181  0.7223
23112SOL    HW170777   1.197   3.650   2.151  0.6708  2.5117 -0.1995
23112SOL    HW270778   1.081   3.728   2.091  0.0700  0.8778 -1.2383
23113SOL     OW70779   3.215   6.242   8.298  0.3216  0.0156  0.4420
23113SOL    HW170780   3.181   6.154   8.278  0.3091 -0.3052  1.7411
23113SOL    HW270781   3.309   6.228   8.314  0.1124 -0.0080  1.8349
23114SOL     OW70782   2.655   4.352   8.711  0.1183  0.0730 -0.3764
23114SOL    HW170783   2.705   4.273   8.734  0.2310  0.1930 -0.2104
23114SOL    HW270784   2.712   4.424   8.736  0.3474  0.2103 -1.2356
23115SOL     OW70785   2.480   7.831   6.027 -0.5485 -0.5762  0.1430
23115SOL    HW170786   2.411   7.765   6.032 -1.7505  0.6723  0.5492
23115SOL    HW270787   2.495   7.856   6.118 -0.5491  0.1586 -0.0559
23116SOL     OW70788   4.452   6.106   0.504 -0.1136  0.0652 -0.3154
23116SOL    HW170789   4.371   6.055   0.503 -0.6867  0.8647  1.4240
23116SOL    HW270790   4.496   6.081   0.585  0.7608  0.5763 -0.6140
23117SOL     OW70791   7.450   1.726   2.959  0.2393 -1.1801  0.0048
23117SOL    HW170792   7.484   1.793   2.901  0.0297 -1.2150 -0.1595
23117SOL    HW270793   7.418   1.657   2.901  0.9454 -1.6657  0.1841
23118SOL     OW70794   7.517   3.574   6.865 -0.9480 -0.4705 -0.0281
23118SOL    HW170795   7.471   3.653   6.892 -0.1582  0.1431 -0.4328
23118SOL    HW270796   7.536   3.528   6.947 -1.1044 -0.0685  0.2375
23119SOL     OW70797   0.772   6.219   9.463  0.1015  0.3559  0.3743
23119SOL    HW170798   0.861   6.246   9.486  0.3292  0.3785 -0.5180
23119SOL    HW270799   0.718   6.294   9.488  0.4666  0.7736 -0.0694
23120SOL     OW70800   4.724   0.813   4.160 -0.1980  0.7996 -0.0763
23120SOL    HW170801   4.771   0.890   4.191  0.8327 -1.1517  3.7256
23120SOL    HW270802   4.782   0.774   4.094 -0.3815  2.6952 -1.4669
23121SOL     OW70803   6.623   0.513   2.917  0.5143  0.1239  0.8341
23121SOL    HW170804   6.607   0.421   2.940 -0.1700 -0.1313 -0.5388
23121SOL    HW270805   6.546   0.539   2.867  1.8639  0.6133 -1.1143
23122SOL     OW70806   0.629   4.170   6.661 -0.3053  0.8782  0.3469
23122SOL    HW170807   0.600   4.085   6.629 -0.9271  0.4101  2.0203
23122SOL    HW270808   0.563   4.232   6.630 -2.5665  0.0164  2.9989
23123SOL     OW70809   6.819   4.679   7.950  0.2252  0.3418  0.1276
23123SOL    HW170810   6.759   4.727   7.892 -0.7685 -0.7730  0.1996
23123SOL    HW270811   6.807   4.587   7.926  1.2816  0.0272  0.7498
23124SOL     OW70812   1.582   2.001  11.108 -0.1506  0.3397 -0.0511
23124SOL    HW170813   1.524   1.940  11.062  0.7802  0.7391 -1.8277
23124SOL    HW270814   1.524   2.065  11.148 -0.9577  0.7046 -1.7491
23125SOL     OW70815   7.327   5.331  11.489 -0.3813  0.4487  0.0788
23125SOL    HW170816   7.243   5.348  11.532 -0.7389 -0.3655 -0.2848
23125SOL    HW270817   7.358   5.250  11.529  0.1607  0.6515  0.0858
23126SOL     OW70818   4.440   6.386  11.101 -0.2041 -0.4727  0.1825
23126SOL    HW170819   4.406   6.362  11.015  1.1172  1.4621 -0.9694
23126SOL    HW270820   4.534   6.398  11.087 -0.3269  2.4538  1.1918
23127SOL     OW70821   3.514   5.964   7.843  0.3902 -0.2488  0.2601
23127SOL    HW170822   3.474   5.883   7.873  0.3089  0.3359  1.8025
23127SOL    HW270823   3.488   5.971   7.751 -0.1970 -1.5952  0.3092
23128SOL     OW70824   4.014   6.930   3.876  0.6961 -0.1084  0.5307
23128SOL    HW170825   3.923   6.942   3.849  0.6776 -0.9034  0.1923
23128SOL    HW270826   4.031   6.837   3.860  1.2238 -0.2236  1.6553
23129SOL     OW70827   3.521   3.892   2.867 -0.1934 -0.0490  0.6377
23129SOL    HW170828   3.507   3.948   2.944  1.0597 -0.3054  1.0683
23129SOL    HW270829   3.453   3.920   2.805 -0.8489  0.5719  1.5978
23130SOL     OW70830   2.259   7.752  11.328 -0.1627  0.2264  0.3581
23130SOL    HW170831   2.285   7.838  11.362  0.2449 -0.0064  0.6442
23130SOL    HW270832   2.218   7.771  11.243 -2.0925  0.9141  1.3919
23131SOL     OW70833   7.451   0.095   9.484  0.6798 -0.1187 -0.3036
23131SOL    HW170834   7.509   0.048   9.424 -0.9329 -0.1834 -1.9156
23131SOL    HW270835   7.399   0.152   9.427  0.6859  1.6052  1.3118
23132SOL     OW70836   6.153   7.633   2.914 -0.0572  0.4276  0.5930
23132SOL    HW170837   6.156   7.651   2.820 -1.7952 -1.4104  0.1292
23132SOL    HW270838   6.174   7.717   2.955 -0.4323  1.5634 -1.4090
23133SOL     OW70839   7.969   7.393   9.560  0.0529 -0.3977  0.5907
23133SOL    HW170840   7.950   7.459   9.493 -0.3225  0.0243  1.1048
23133SOL    HW270841   7.914   7.418   9.635 -0.8529 -1.8432  0.4645
23134SOL     OW70842   4.825   0.861   1.382 -0.2026  0.2604  0.0677
23134SOL    HW170843   4.746   0.837   1.431  0.2265 -0.5436  0.3914
23134SOL    HW270844   4.896   0.844   1.444  0.2959 -0.0526 -0.5809
23135SOL     OW70845   7.913   5.974   6.269  0.1600 -0.0592 -0.2792
23135SOL    HW170846   7.838   5.990   6.326  1.1526 -1.1699  1.4284
23135SOL    HW270847   7.883   5.906   6.208  0.2962 -2.0049  1.6822
23136SOL     OW70848   0.565   4.031   4.504 -0.1482 -0.2395 -0.0136
23136SOL    HW170849   0.545   4.081   4.583 -0.7717 -1.6732  0.7663
23136SOL    HW270850   0.635   3.971   4.531  0.1656 -0.2272 -0.7662
23137SOL     OW70851   4.683   4.398   3.247  0.2144  0.4684 -0.1843
23137SOL    HW170852   4.736   4.397   3.327 -0.3491 -0.0967  0.1938
23137SOL    HW270853   4.743   4.428   3.179  0.2816  2.5242  0.7269
23138SOL     OW70854   0.566   5.706   5.719 -0.0748  0.6233  0.4750
23138SOL    HW170855   0.523   5.700   5.804  0.3588 -1.2687  0.6142
23138SOL    HW270856   0.500   5.675   5.657  0.0283  0.7859  0.2827
23139SOL     OW70857   0.568   6.299   4.161  0.4269  0.2240 -0.4912
23139SOL    HW170858   0.516   6.223   4.190 -0.4716  0.7252 -0.7447
23139SOL    HW270859   0.519   6.333   4.086  2.0467 -0.3186 -1.8548
23140SOL     OW70860   4.295   4.409   3.412  0.3732  0.4346  0.1684
23140SOL    HW170861   4.309   4.496   3.374 -1.7077  0.3821 -0.8635
23140SOL    HW270862   4.305   4.422   3.506  0.2275  1.7787  0.0193
23141SOL     OW70863   5.251   2.914   1.639  0.0249 -0.4038 -0.1325
23141SOL    HW170864   5.255   2.852   1.566 -0.4901  0.0417 -0.5355
23141SOL    HW270865   5.204   2.989   1.605  1.7031  0.7475 -0.0308
23142SOL     OW70866   7.845   2.209   9.263 -0.0733  0.0704  0.0298
23142SOL    HW170867   7.918   2.153   9.290 -1.0985 -0.6609  1.4140
23142SOL    HW270868   7.778   2.148   9.231 -0.3965  0.6666 -0.4422
23143SOL     OW70869   6.969   4.706  11.217 -0.4650  0.4769 -0.2293
23143SOL    HW170870   6.888   4.697  11.267 -1.1226  0.8669 -1.1851
23143SOL    HW270871   7.039   4.693  11.281 -1.2776  0.5024  0.6869
23144SOL     OW70872   7.442   4.496   8.439  0.3773 -0.2571 -0.2520
23144SOL    HW170873   7.483   4.568   8.392  0.7256  0.9391  1.7767
23144SOL    HW270874   7.358   4.530   8.469  0.4190 -0.7712  0.4957
23145SOL     OW70875   5.228   1.897   7.899  0.5384 -0.3554 -0.2025
23145SOL    HW170876   5.168   1.942   7.840 -0.0867 -0.4614  0.3387
23145SOL    HW270877   5.172   1.861   7.968  1.2924  0.2758  0.7778
23146SOL     OW70878   7.027   2.302   2.694 -0.5710 -0.4926 -0.0954
23146SOL    HW170879   6.985   2.216   2.688  2.3815 -2.1192  0.5952
23146SOL    HW270880   7.024   2.323   2.787  0.2379 -0.7149 -0.0114
23147SOL     OW70881   7.777   6.288   8.388 -0.0685  0.2566 -0.3532
23147SOL    HW170882   7.760   6.213   8.446  0.1319  0.5551  0.0948
23147SOL    HW270883   7.868   6.312   8.407 -0.2246  0.7974 -0.2802
23148SOL     OW70884   4.612   3.719   4.406 -0.0904  1.2686  0.1857
23148SOL    HW170885   4.690   3.665   4.392 -1.5614 -1.1139  0.5180
23148SOL    HW270886   4.644   3.809   4.405  2.5911  0.3976 -0.0211
23149SOL     OW70887   2.319   6.126   0.448  0.0667 -0.3976 -0.4911
23149SOL    HW170888   2.356   6.073   0.519 -1.5384 -0.4454  0.3749
23149SOL    HW270889   2.234   6.085   0.430 -0.5723  0.9995 -0.7990
23150SOL     OW70890   0.215   6.934  11.075  0.6058  0.5189 -0.3040
23150SOL    HW170891   0.271   6.977  11.139  1.0649 -0.1177 -0.2636
23150SOL    HW270892   0.270   6.925  10.997 -0.0322  1.5235 -0.8910
23151SOL     OW70893   4.331   6.493   1.080 -0.7890  0.5150 -0.3244
23151SOL    HW170894   4.369   6.572   1.119  1.7387 -1.0741  0.6775
23151SOL    HW270895   4.303   6.441   1.155 -0.6400 -0.3593 -0.8669
23152SOL     OW70896   4.346   0.675   6.101 -0.1021  0.0428 -0.0079
23152SOL    HW170897   4.280   0.707   6.040 -0.0441  0.9164  0.3738
23152SOL    HW270898   4.297   0.655   6.181  0.1265  0.9917  0.3819
23153SOL     OW70899   5.845   3.207   6.246 -0.1381  0.4100  0.5384
23153SOL    HW170900   5.940   3.216   6.239 -0.0549 -0.7887 -0.0740
23153SOL    HW270901   5.820   3.273   6.311  0.9764  1.4452 -0.0307
23154SOL     OW70902   0.654   1.111   8.967  0.3815  0.6462  0.5401
23154SOL    HW170903   0.704   1.127   8.886  0.4227  0.4830  0.5337
23154SOL    HW270904   0.688   1.176   9.028  1.1417  0.0467  0.7665
23155SOL     OW70905   1.410   6.010   0.364  0.2637  0.1700  0.3625
23155SOL    HW170906   1.448   6.089   0.326  0.1823 -0.2811 -0.6751
23155SOL    HW270907   1.430   6.016   0.458  0.0147  1.5438  0.3337
23156SOL     OW70908   5.719   4.989   1.914 -0.3306 -0.3785 -0.2784
23156SOL    HW170909   5.663   5.067   1.917 -0.4373 -0.4820  0.9905
23156SOL    HW270910   5.721   4.958   2.004  1.1035 -0.8575 -0.4488
23157SOL     OW70911   3.466   7.279   2.097  0.6292  0.7741  0.4266
23157SOL    HW170912   3.540   7.270   2.158  1.6898 -1.4572 -1.0435
23157SOL    HW270913   3.507   7.287   2.011 -0.8328  0.0389 -0.3767
23158SOL     OW70914   1.914   6.370   1.053 -0.0040 -0.1265 -0.2955
23158SOL    HW170915   1.867   6.287   1.055 -0.3440  0.0688  2.0605
23158SOL    HW270916   1.961   6.373   1.136 -0.4729  2.2968 -0.0619
23159SOL     OW70917   1.946   4.922   3.682 -0.5305 -0.2227 -0.3373
23159SOL    HW170918   1.954   4.908   3.777  0.9231 -0.6048 -0.4957
23159SOL    HW270919   1.851   4.922   3.666 -0.8506  1.0468  1.2815
23160SOL     OW70920   1.426   3.895   1.979  0.2577 -0.0212 -0.0183
23160SOL    HW170921   1.506   3.853   2.010  0.1914  0.1864  0.4464
23160SOL    HW270922   1.367   3.823   1.957 -0.4790 -0.2304  2.3691
23161SOL     OW70923   7.155   6.846   7.277 -0.3415  0.2032 -0.1362
23161SOL    HW170924   7.153   6.788   7.353 -0.6333  0.3692 -0.0135
23161SOL    HW270925   7.065   6.843   7.242 -0.3818  0.6465 -0.0756
23162SOL     OW70926   7.401   0.747   6.625 -0.3649  0.3491 -0.3161
23162SOL    HW170927   7.310   0.763   6.650 -0.4754  1.3123 -1.2500
23162SOL    HW270928   7.401   0.658   6.590 -1.0886  0.5597 -0.8796
23163SOL     OW70929   5.086   6.314   9.819  0.0734  0.8132  0.7560
23163SOL    HW170930   5.112   6.330   9.728  1.6054  1.8330  1.3189
23163SOL    HW270931   5.006   6.364   9.830  0.0640  0.9626  0.0595
23164SOL     OW70932   2.330   2.220   0.385  0.1087 -0.2522 -0.2802
23164SOL    HW170933   2.255   2.214   0.327  0.5961  1.6007 -1.1790
23164SOL    HW270934   2.293   2.228   0.473 -0.7353  0.0628 -0.6573
23165SOL     OW70935   4.221   7.255   4.407  0.0789 -0.5773  0.1686
23165SOL    HW170936   4.146   7.262   4.348  0.6712  0.2925 -0.4979
23165SOL    HW270937   4.237   7.345   4.437  2.2584 -0.3268 -1.4859
23166SOL     OW70938   7.055   5.006   0.777  0.9433  0.2598 -0.1201
23166SOL    HW170939   7.085   5.032   0.864  0.8210 -0.3098  0.0969
23166SOL    HW270940   7.041   4.911   0.784 -0.2141  0.3938 -0.4245
23167SOL     OW70941   3.369   7.248  11.007  0.1393 -0.3495 -0.1442
23167SOL    HW170942   3.439   7.244  11.072  0.9570  0.1228 -0.9722
23167SOL    HW270943   3.339   7.339  11.010  0.6921 -0.1241 -0.9214
23168SOL     OW70944   5.962   4.007   0.484  0.0523 -0.6836  0.0878
23168SOL    HW170945   6.019   4.073   0.523  1.0650 -0.2956 -1.9380
23168SOL    HW270946   6.010   3.925   0.492 -0.0018 -0.7049  0.1908
23169SOL     OW70947   2.253   3.796   6.850  0.0200  0.1534 -0.2844
23169SOL    HW170948   2.160   3.777   6.836 -0.1388 -0.5798  1.4211
23169SOL    HW270949   2.254   3.848   6.931  1.1980 -1.8383  1.0759
23170SOL     OW70950   6.933   2.326  11.271 -0.2146  0.2384 -0.3807
23170SOL    HW170951   6.995   2.254  11.276 -0.9418 -0.4435 -0.8020
23170SOL    HW270952   6.981   2.397  11.228  0.2223 -0.3391 -0.8670
23171SOL     OW70953   4.411   2.985   3.669  0.8242  0.5648  0.3123
23171SOL    HW170954   4.458   2.941   3.740  3.4850  0.4006 -1.3940
23171SOL    HW270955   4.359   2.915   3.629  1.4894  0.0014  0.4011
23172SOL     OW70956   5.797   1.488   2.949  0.5168  0.1069  0.0920
23172SOL    HW170957   5.829   1.561   2.896  0.9189 -0.3759 -0.3379
23172SOL    HW270958   5.864   1.475   3.016  0.4390  0.1378  0.1766
23173SOL     OW70959   4.705   5.436   5.875  0.0166 -0.0610 -0.2318
23173SOL    HW170960   4.617   5.438   5.837  0.7020 -0.6560 -1.9756
23173SOL    HW270961   4.753   5.375   5.820  0.8229 -1.9496  2.3977
23174SOL     OW70962   5.317   6.605   7.340  0.2928  0.0276 -0.2749
23174SOL    HW170963   5.388   6.540   7.332  0.2221 -0.0341 -0.3945
23174SOL    HW270964   5.353   6.685   7.303  0.7012  0.3086  0.6747
23175SOL     OW70965   4.713   0.493   4.463 -0.3473 -0.2029  0.2968
23175SOL    HW170966   4.736   0.499   4.370 -0.4899  0.5352  0.3022
23175SOL    HW270967   4.618   0.503   4.465 -0.6311 -2.5391  0.3390
23176SOL     OW70968   4.340   6.663  10.443 -0.2430  0.1525  0.5768
23176SOL    HW170969   4.318   6.572  10.462  1.2765 -0.3536  0.0709
23176SOL    HW270970   4.412   6.683  10.503 -1.1757  1.3498  1.3413
23177SOL     OW70971   3.214   0.784   0.253 -0.2014  0.6437  0.2381
23177SOL    HW170972   3.243   0.860   0.202  1.3494 -0.6470 -0.9089
23177SOL    HW270973   3.215   0.712   0.191 -0.5155 -0.5523  1.5803
23178SOL     OW70974   0.346   4.260   1.505  0.0676  0.1112  0.6315
23178SOL    HW170975   0.400   4.278   1.581 -0.3403 -3.3908  1.9104
23178SOL    HW270976   0.275   4.205   1.538 -0.8006 -0.5364 -2.0530
23179SOL     OW70977   5.727   2.065   1.078  0.1253 -0.8005  0.4406
23179SOL    HW170978   5.741   2.060   0.983 -0.6649 -1.2723  0.3354
23179SOL    HW270979   5.795   2.008   1.115  0.3390 -0.7400  0.1507
23180SOL     OW70980   3.778   7.937   7.292  0.8679  0.5145 -0.2907
23180SOL    HW170981   3.872   7.927   7.308  0.7219  0.1382  0.3591
23180SOL    HW270982   3.747   7.849   7.271  0.6053  0.5866 -0.2052
23181SOL     OW70983   6.972   1.743   8.316  0.2800  0.5721 -0.4411
23181SOL    HW170984   6.912   1.679   8.354  0.1515  0.6546 -0.5008
23181SOL    HW270985   6.935   1.828   8.341  0.7914  0.6229  0.1605
23182SOL     OW70986   1.039   4.560   4.037 -0.1327  0.3340  0.0789
23182SOL    HW170987   1.039   4.524   3.948  1.0816  0.3918  0.0417
23182SOL    HW270988   1.002   4.491   4.091 -0.0001 -0.0654 -0.3335
23183SOL     OW70989   4.775   3.018   2.813  0.1926 -0.1392 -0.0231
23183SOL    HW170990   4.764   2.961   2.889 -0.1447 -2.8653 -1.9648
23183SOL    HW270991   4.696   3.072   2.811  0.0359 -0.2986  1.3076
23184SOL     OW70992   2.238   1.921   1.745  0.2451  0.5475 -0.3473
23184SOL    HW170993   2.262   1.932   1.837  1.1459 -0.4262 -0.4488
23184SOL    HW270994   2.237   2.010   1.710 -0.1404  0.9347  0.5998
23185SOL     OW70995   6.434   6.551   2.056 -0.2609  0.3575  0.0265
23185SOL    HW170996   6.360   6.601   2.090  0.7065  0.4749  2.1096
23185SOL    HW270997   6.511   6.601   2.082  0.6194 -0.5080 -0.8199
23186SOL     OW70998   7.980   0.358   0.343 -0.2541  0.4287 -0.1356
23186SOL    HW170999   8.010   0.346   0.252  0.9832 -2.0193  0.5080
23186SOL    HW271000   8.060   0.357   0.395 -1.0730 -0.5109  1.1684
23187SOL     OW71001   2.075   4.680   9.396 -0.2843 -0.1527  0.6031
23187SOL    HW171002   2.059   4.766   9.435  0.0586  0.3821 -0.4032
23187SOL    HW271003   2.117   4.699   9.312 -0.1786 -1.3058  0.3791
23188SOL     OW71004   1.819   5.563   9.391  0.0806 -0.0908 -0.2031
23188SOL    HW171005   1.865   5.563   9.475 -0.2979  2.7177  0.1115
23188SOL    HW271006   1.758   5.637   9.397 -1.5246 -1.1369 -2.1674
23189SOL     OW71007   2.847   6.409   5.891  0.1870  0.0396 -0.1355
23189SOL    HW171008   2.880   6.341   5.832 -0.7981  0.4226 -1.1627
23189SOL    HW271009   2.858   6.491   5.842  2.0647  0.7773  1.3676
23190SOL     OW71010   0.827   1.472   1.482 -0.1097  0.3073  0.2826
23190SOL    HW171011   0.786   1.498   1.564 -1.4167 -0.9273  0.0502
23190SOL    HW271012   0.800   1.381   1.469  1.8291 -0.2298 -0.4468
23191SOL     OW71013   0.487   4.262  11.606  0.2999  0.7183 -0.3558
23191SOL    HW171014   0.517   4.266  11.697 -1.4163 -0.0907  0.2950
23191SOL    HW271015   0.404   4.309  11.607 -0.4550 -0.5436 -1.1720
23192SOL     OW71016   5.372   3.290  11.654  0.5113  0.6034  0.4927
23192SOL    HW171017   5.366   3.201  11.689 -2.1104 -0.0685 -1.3209
23192SOL    HW271018   5.287   3.329  11.671  0.6745  1.7861 -1.1222
23193SOL     OW71019   7.570   5.549   0.922 -0.2748  0.0016  0.5660
23193SOL    HW171020   7.549   5.599   1.001 -1.5816  0.1194  0.1690
23193SOL    HW271021   7.619   5.609   0.867 -2.5533  1.1972 -0.2701
23194SOL     OW71022   4.257   5.217   7.423  0.2818  0.6766  0.9392
23194SOL    HW171023   4.296   5.191   7.506  0.6208  0.4178  0.6990
23194SOL    HW271024   4.300   5.163   7.357  0.2393  1.0981  0.5546
23195SOL     OW71025   7.953   6.576   4.102  0.0449 -0.1500  0.1461
23195SOL    HW171026   7.911   6.652   4.142 -0.3221 -0.5450  0.5289
23195SOL    HW271027   7.887   6.542   4.042  0.6943  0.6056 -1.0262
23196SOL     OW71028   6.959   0.788   9.282 -0.3135  0.1306 -0.3523
23196SOL    HW171029   6.973   0.708   9.231 -1.7641  0.8128 -1.9372
23196SOL    HW271030   7.038   0.797   9.335 -0.0427 -2.2481 -0.2468
23197SOL     OW71031   6.923   7.823   9.960  0.0271  0.5618 -0.8542
23197SOL    HW171032   6.981   7.844  10.033 -2.4406  1.0277  1.0668
23197SOL    HW271033   6.888   7.907   9.931 -0.1587  0.2352 -1.6142
23198SOL     OW71034   6.421   3.990   7.513  0.3972  0.0736 -0.0169
23198SOL    HW171035   6.449   3.956   7.428  0.0557 -1.6606  0.5268
23198SOL    HW271036   6.501   3.989   7.566 -0.0185 -2.0460  0.6473
23199SOL     OW71037   4.124   0.497  11.376 -0.4650 -0.4831  0.0694
23199SOL    HW171038   4.036   0.532  11.371 -1.1264 -2.0880 -0.0957
23199SOL    HW271039   4.130   0.460  11.464  0.2106  0.0107  0.2396
23200SOL     OW71040   6.136   1.026   5.778  0.3555 -0.1846  0.4376
23200SOL    HW171041   6.155   0.932   5.774 -0.6645 -0.3923  0.1511
23200SOL    HW271042   6.081   1.036   5.855 -3.1537 -0.5647 -1.7799
23201SOL     OW71043   4.043   0.923  10.922 -0.1626 -0.1133 -0.3470
23201SOL    HW171044   4.054   1.012  10.954 -1.0347  0.1441 -0.7269
23201SOL    HW271045   3.974   0.929  10.856 -0.3005 -1.0836 -0.3151
23202SOL     OW71046   2.370   1.578   2.688  0.2251  0.0445  0.6821
23202SOL    HW171047   2.296   1.521   2.666  2.2903 -1.2539 -4.3586
23202SOL    HW271048   2.430   1.522   2.737 -0.2217 -0.2783  0.8620
23203SOL     OW71049   0.818   4.104   3.749 -0.8940 -0.4201 -0.1120
23203SOL    HW171050   0.907   4.107   3.716 -1.0634  0.0689 -0.5399
23203SOL    HW271051   0.814   4.023   3.800 -0.1162 -0.2811  0.1844
23204SOL     OW71052   6.512   2.501   7.935  0.1629 -0.5294 -0.0402
23204SOL    HW171053   6.470   2.447   8.001  0.6239 -1.0509 -0.1643
23204SOL    HW271054   6.461   2.486   7.855 -0.2937 -0.0270  0.1565
23205SOL     OW71055   4.157   5.681   1.045 -0.0351 -0.4392 -0.6887
23205SOL    HW171056   4.109   5.612   1.090  3.2230 -4.0797 -2.2277
23205SOL    HW271057   4.199   5.732   1.114 -0.1080 -1.9221  0.4737
23206SOL     OW71058   2.067   6.525   3.288 -0.0060 -0.3150 -0.5955
23206SOL    HW171059   2.068   6.610   3.243  2.1075  0.6365  1.0615
23206SOL    HW271060   2.025   6.466   3.226  0.5189  1.4355 -2.7768
23207SOL     OW71061   2.760   6.681   1.057 -0.4267  0.2720 -0.0777
23207SOL    HW171062   2.816   6.715   0.987  0.8451  0.5719  1.0410
23207SOL    HW271063   2.795   6.594   1.076 -0.3569  0.4397  0.5950
23208SOL     OW71064   1.523   3.102   6.039  0.0920  0.3098 -0.6535
23208SOL    HW171065   1.454   3.167   6.046 -1.1767 -1.0995  0.6522
23208SOL    HW271066   1.489   3.036   5.978 -0.3683 -1.0936  1.0470
23209SOL     OW71067   5.561   2.647   6.979 -0.1112  0.0733  0.0303
23209SOL    HW171068   5.567   2.647   6.884  3.4117 -0.1728  0.1129
23209SOL    HW271069   5.541   2.738   7.002  0.9237  0.5719 -0.9508
23210SOL     OW71070   7.252   7.375   9.780 -0.8220 -0.8767  0.3866
23210SOL    HW171071   7.176   7.321   9.758 -1.2359 -0.7775  1.5222
23210SOL    HW271072   7.291   7.333   9.857 -1.2442  0.4859  1.3877
23211SOL     OW71073   5.133   1.540   3.148  0.2862 -0.1546 -0.2883
23211SOL    HW171074   5.037   1.549   3.147  0.2790 -0.2166 -0.9199
23211SOL    HW271075   5.148   1.454   3.186  0.1563  0.4573  1.1919
23212SOL     OW71076   1.373   6.852   1.955  0.0671  0.0443  0.0564
23212SOL    HW171077   1.369   6.786   2.024 -0.1409  1.2377  1.2231
23212SOL    HW271078   1.290   6.843   1.908 -1.6199  1.8244  2.4858
23213SOL     OW71079   5.400   6.004   8.700  0.0054  0.0450  0.5619
23213SOL    HW171080   5.431   5.924   8.742 -0.2016 -0.5033 -0.3179
23213SOL    HW271081   5.448   6.074   8.746  0.9304 -0.6387  0.6775
23214SOL     OW71082   0.112   1.466   1.536 -0.2062  0.1572 -0.6472
23214SOL    HW171083   0.029   1.487   1.579 -0.4071  0.2029 -1.0497
23214SOL    HW271084   0.102   1.499   1.447  0.4427  0.6363 -0.5581
23215SOL     OW71085   5.428   6.637  10.912  0.5945 -0.0287  0.1321
23215SOL    HW171086   5.454   6.552  10.877  0.2263  0.5980 -1.7354
23215SOL    HW271087   5.390   6.617  10.998  0.0360 -1.8082 -0.5014
23216SOL     OW71088   6.291   0.661   2.152  0.0281 -0.3543  0.3953
23216SOL    HW171089   6.268   0.688   2.063 -1.3028 -1.8044  0.2560
23216SOL    HW271090   6.384   0.638   2.147  0.1705  0.3865 -0.4133
23217SOL     OW71091   4.214   3.950   7.135  0.6149  0.1484  0.1718
23217SOL    HW171092   4.141   3.888   7.135  0.8208 -0.1313 -1.1999
23217SOL    HW271093   4.172   4.036   7.127  0.3954  0.0642  0.4114
23218SOL     OW71094   2.248   3.077  10.182  0.4880 -0.1993  0.2296
23218SOL    HW171095   2.254   3.026  10.101  0.9351  1.6459 -0.9717
23218SOL    HW271096   2.319   3.043  10.237  1.8278  0.1789 -1.1864
23219SOL     OW71097   3.555   1.353   1.319 -0.0884 -0.3297 -0.2388
23219SOL    HW171098   3.495   1.382   1.388 -0.1263  1.9898 -1.1370
23219SOL    HW271099   3.637   1.334   1.365 -1.1457 -2.5700  0.8754
23220SOL     OW71100   1.895   2.420   1.166  0.4403  0.0463 -0.1762
23220SOL    HW171101   1.911   2.354   1.099  0.2917 -0.1532 -0.0173
23220SOL    HW271102   1.801   2.412   1.186 -0.2392  2.1054 -2.0578
23221SOL     OW71103   5.641   3.966   8.205 -0.5213 -0.3955  0.1470
23221SOL    HW171104   5.637   4.054   8.167  2.2327 -0.5013 -0.5893
23221SOL    HW271105   5.632   3.980   8.299  2.2684  1.0367  0.2909
23222SOL     OW71106   0.313   1.309   8.799 -0.2021  0.2534 -0.1982
23222SOL    HW171107   0.346   1.220   8.790 -0.0175  0.2317  0.6278
23222SOL    HW271108   0.378   1.363   8.755 -1.1200 -0.1357 -2.1497
23223SOL     OW71109   7.281   4.498  11.580  0.3909 -0.3008  0.0070
23223SOL    HW171110   7.266   4.507  11.674 -0.8675  0.2196 -0.2256
23223SOL    HW271111   7.322   4.412  11.570 -0.6061 -0.9051  0.9241
23224SOL     OW71112   3.142   6.986   9.132  0.4240  1.0060  0.0873
23224SOL    HW171113   3.234   6.990   9.158  0.7102 -0.7756 -0.4885
23224SOL    HW271114   3.145   6.967   9.038 -0.5493  1.6582 -0.0873
23225SOL     OW71115   6.192   3.781   6.030  0.0912 -0.2774 -0.0053
23225SOL    HW171116   6.177   3.823   5.945 -0.8042 -1.5849 -0.5122
23225SOL    HW271117   6.137   3.830   6.091  0.4858  0.4566 -0.2241
23226SOL     OW71118   5.276   2.491   5.740 -0.4166 -0.4413  0.6911
23226SOL    HW171119   5.246   2.580   5.757  0.3025 -0.1519  0.4608
23226SOL    HW271120   5.195   2.442   5.725 -0.7818  0.3342  0.0403
23227SOL     OW71121   5.408   6.028   4.538  0.3752  0.1150  0.2076
23227SOL    HW171122   5.441   5.990   4.619  0.1462  1.2719  0.8741
23227SOL    HW271123   5.455   5.983   4.469  1.9223  0.3497  1.0617
23228SOL     OW71124   1.284   1.520  11.001 -0.2922  0.1841  0.0258
23228SOL    HW171125   1.208   1.562  11.041 -1.9442 -2.1569 -0.4398
23228SOL    HW271126   1.330   1.478  11.075 -1.0277 -0.6900  0.0017
23229SOL     OW71127   1.226   0.066   3.445 -0.0885 -0.3540 -0.4947
23229SOL    HW171128   1.148   0.121   3.437  0.7245  0.6276 -2.3081
23229SOL    HW271129   1.267   0.095   3.526 -0.9711 -0.0450 -0.1363
23230SOL     OW71130   0.392   0.376  10.836  0.6659 -0.1225  0.1741
23230SOL    HW171131   0.306   0.392  10.873  0.3031 -0.1799 -0.6243
23230SOL    HW271132   0.416   0.288  10.865 -0.1513 -0.6607 -0.7312
23231SOL     OW71133   4.222   7.577   2.111 -0.8236 -0.4062  0.0225
23231SOL    HW171134   4.198   7.584   2.203 -0.8987 -1.5854  0.1018
23231SOL    HW271135   4.302   7.524   2.111  0.3149  1.2133 -0.4509
23232SOL     OW71136   6.245   2.913   9.460  0.0153  0.6616  0.4332
23232SOL    HW171137   6.226   2.823   9.486  1.0356  0.2346 -0.2289
23232SOL    HW271138   6.307   2.904   9.388 -1.7440  1.8329 -1.3145
23233SOL     OW71139   0.978   3.262   7.311  0.0540 -0.2192 -0.0666
23233SOL    HW171140   0.943   3.296   7.394 -1.0393 -2.1152  0.2862
23233SOL    HW271141   0.917   3.195   7.284 -0.6135  1.5071 -3.3969
23234SOL     OW71142   7.611   7.299  10.893  0.0864 -0.7333  0.0629
23234SOL    HW171143   7.620   7.280  10.987 -0.6019  2.4901  0.8956
23234SOL    HW271144   7.701   7.310  10.863  0.2702 -0.4018  0.7053
23235SOL     OW71145   0.688   2.521   0.519 -0.3219  0.0523  0.4333
23235SOL    HW171146   0.642   2.554   0.442 -2.3616  2.0275  2.3560
23235SOL    HW271147   0.781   2.530   0.497 -0.7932 -0.4091 -2.1221
23236SOL     OW71148   4.175   0.826   8.587  0.0435 -0.0825  1.0246
23236SOL    HW171149   4.084   0.854   8.575 -0.0088 -1.1090 -1.5230
23236SOL    HW271150   4.173   0.731   8.575  1.2393 -0.3755  2.7282
23237SOL     OW71151   7.630   7.967  11.831 -0.2085 -0.2022 -0.7409
23237SOL    HW171152   7.615   8.062  11.823 -0.2750 -0.0707  0.7273
23237SOL    HW271153   7.664   7.956  11.920 -0.0592 -1.5520 -0.9534
23238SOL     OW71154   7.141   2.273   1.628 -0.2813 -0.9565 -0.0555
23238SOL    HW171155   7.209   2.297   1.565 -1.0382  0.3167 -0.4381
23238SOL    HW271156   7.189   2.250   1.708  0.6876 -2.4947 -1.0322
23239SOL     OW71157   1.625   2.369  12.243  0.4136  0.0050  0.5637
23239SOL    HW171158   1.706   2.367  12.193  0.6470 -1.2626  0.9716
23239SOL    HW271159   1.636   2.444  12.302  1.3803 -0.2779  0.7599
23240SOL     OW71160   5.125   0.156   0.243 -0.3946 -0.1223 -0.2625
23240SOL    HW171161   5.157   0.196   0.324  0.6904 -1.6509  0.1087
23240SOL    HW271162   5.043   0.113   0.267 -1.7239  2.0137 -0.7291
23241SOL     OW71163   6.998   6.961   5.642  0.2022  0.1371  0.2990
23241SOL    HW171164   6.935   6.964   5.571  1.4169  1.3599 -0.7944
23241SOL    HW271165   7.045   6.878   5.628 -0.5832 -0.3787  0.6326
23242SOL     OW71166   2.399   4.215   7.148 -0.8976 -0.2829  0.0408
23242SOL    HW171167   2.403   4.270   7.070  0.7239  0.6547  0.7393
23242SOL    HW271168   2.305   4.204   7.164 -1.2586  0.7092 -1.2005
23243SOL     OW71169   4.859   7.759   4.745 -0.0338 -0.6860  0.4140
23243SOL    HW171170   4.824   7.802   4.668  1.1421  0.2196  0.3513
23243SOL    HW271171   4.783   7.719   4.787 -1.1112  1.0616  0.2199
23244SOL     OW71172   6.185   0.752   5.792  0.3801  0.1143  0.2299
23244SOL    HW171173   6.217   0.662   5.791 -1.4801 -0.5928 -0.8270
23244SOL    HW271174   6.142   0.762   5.877 -0.1831 -0.3173  0.0044
23245SOL     OW71175   1.308   3.843   6.797 -0.2697 -0.1184 -0.1066
23245SOL    HW171176   1.301   3.903   6.723 -0.9388  1.0787  0.9001
23245SOL    HW271177   1.246   3.773   6.776 -1.4012  0.8550 -0.0990
23246SOL     OW71178   3.934   4.356   1.186  0.0362  0.0384  0.0597
23246SOL    HW171179   3.864   4.291   1.185 -1.3221  1.4323 -1.2788
23246SOL    HW271180   3.998   4.324   1.122 -1.1203  0.4526 -1.3772
23247SOL     OW71181   2.529   1.375   5.031 -0.2251 -0.1218  0.3625
23247SOL    HW171182   2.529   1.299   4.973 -1.8088 -0.7173  1.0809
23247SOL    HW271183   2.525   1.337   5.119 -1.5459  0.7651  0.7199
23248SOL     OW71184   2.635   5.553   0.174 -0.1219 -0.3053 -0.1198
23248SOL    HW171185   2.586   5.620   0.223 -1.6857 -1.4991  0.0398
23248SOL    HW271186   2.606   5.470   0.212  0.5880 -1.1533 -1.3532
23249SOL     OW71187   1.704   2.012   3.263 -0.0668 -0.1557 -0.2619
23249SOL    HW171188   1.782   2.035   3.213  0.7034  0.7161  1.2892
23249SOL    HW271189   1.642   1.982   3.196  1.6737 -1.2029 -1.5008
23250SOL     OW71190   7.416   2.786   3.320 -0.5241  0.2016  0.3246
23250SOL    HW171191   7.475   2.721   3.359 -0.8068  1.0192  2.2372
23250SOL    HW271192   7.474   2.849   3.277 -0.0569  0.3247  1.1161
23251SOL     OW71193   7.527   2.729  10.420  1.0731 -0.3064  0.1718
23251SOL    HW171194   7.433   2.716  10.404  0.9427 -0.1564  0.8060
23251SOL    HW271195   7.561   2.642  10.439  1.0625 -0.3595 -0.0496
23252SOL     OW71196   6.320   3.075   4.665  0.1852 -0.2923  0.4548
23252SOL    HW171197   6.307   2.999   4.722 -1.9842 -0.7791 -0.5598
23252SOL    HW271198   6.276   3.050   4.583  0.2760  1.6767 -0.2319
23253SOL     OW71199   1.004   2.759   9.444  0.2000  0.2596  0.6296
23253SOL    HW171200   0.963   2.831   9.396  0.2467 -1.4038 -2.1322
23253SOL    HW271201   0.944   2.685   9.432  1.4633 -0.8765  1.0505
23254SOL     OW71202   7.137   1.805   3.944  0.5074  0.0537  0.4493
23254SOL    HW171203   7.170   1.738   4.003  1.7263  0.0779 -0.1681
23254SOL    HW271204   7.171   1.887   3.979  0.9859  0.0982 -0.0937
23255SOL     OW71205   6.843   6.529   9.793  0.4659  0.1970 -0.0995
23255SOL    HW171206   6.766   6.491   9.749  1.3735 -3.5209  1.1366
23255SOL    HW271207   6.809   6.563   9.876 -0.1100  0.2026 -0.3324
23256SOL     OW71208   4.259   5.745   3.430 -0.0144  0.0777 -0.2751
23256SOL    HW171209   4.330   5.808   3.416 -0.6476  0.8660  0.0217
23256SOL    HW271210   4.298   5.661   3.406  0.8216  0.5787 -0.7479
23257SOL     OW71211   2.635   2.555   1.213 -0.2274 -0.4807 -0.0270
23257SOL    HW171212   2.724   2.589   1.212 -0.8735  1.3896  1.2121
23257SOL    HW271213   2.643   2.469   1.255  0.7483  0.6040  2.1906
23258SOL     OW71214   3.085   2.067   5.199  0.0152  0.1210 -0.0914
23258SOL    HW171215   3.028   2.084   5.123  1.0867  0.4500 -0.8486
23258SOL    HW271216   3.147   2.001   5.168  0.0314 -0.2525  0.7286
23259SOL     OW71217   5.644   3.982   0.925  0.1926 -0.0137  0.2801
23259SOL    HW171218   5.572   3.939   0.971  0.0449 -0.8472 -0.7099
23259SOL    HW271219   5.661   4.062   0.976 -2.1549  0.7973 -0.0858
23260SOL     OW71220   4.703   4.576   0.626 -0.5997  0.3706 -0.5023
23260SOL    HW171221   4.653   4.646   0.670 -0.8957  0.2694 -0.6717
23260SOL    HW271222   4.638   4.531   0.572 -0.3738  0.0714 -0.5279
23261SOL     OW71223   2.967   1.742  12.381  0.0743 -0.1342 -0.6497
23261SOL    HW171224   2.957   1.835  12.365 -0.4077 -0.0132  0.2665
23261SOL    HW271225   2.880   1.712  12.407 -0.1339 -1.1579 -2.3951
23262SOL     OW71226   6.445   0.178  10.906 -0.2602  0.0434  0.0946
23262SOL    HW171227   6.468   0.154  10.816  0.1852 -1.7825  0.6550
23262SOL    HW271228   6.527   0.212  10.943 -0.5727  1.2871 -0.3223
23263SOL     OW71229   1.031   2.871   2.624  0.9648 -0.4313 -0.5403
23263SOL    HW171230   1.009   2.864   2.531  2.1766 -0.1761 -0.8611
23263SOL    HW271231   1.076   2.789   2.644  0.2871 -0.6922 -0.0414
23264SOL     OW71232   3.648   7.339  11.386  0.5399 -0.0050 -0.1649
23264SOL    HW171233   3.573   7.389  11.351 -0.5339 -1.3359  0.1581
23264SOL    HW271234   3.697   7.403  11.437 -0.2718  0.9493 -0.5391
23265SOL     OW71235   4.259   5.091   4.643  0.3516  0.3488 -0.1308
23265SOL    HW171236   4.253   5.005   4.601  0.4874 -0.0889  0.7113
23265SOL    HW271237   4.193   5.144   4.599  0.4325 -0.1093 -0.8291
23266SOL     OW71238   7.494   2.487   9.227 -0.4790  0.1641 -0.6831
23266SOL    HW171239   7.544   2.490   9.145 -1.0348 -0.8426 -1.0828
23266SOL    HW271240   7.427   2.554   9.216 -0.5390  0.0507 -1.0608
23267SOL     OW71241   0.650   2.325   4.729  0.3097 -0.3200 -0.3071
23267SOL    HW171242   0.572   2.308   4.677  0.5957 -1.7530 -0.3114
23267SOL    HW271243   0.647   2.419   4.747 -2.0665 -0.5277  0.7571
23268SOL     OW71244   4.080   6.102   3.787 -0.4580  0.4950  0.3911
23268SOL    HW171245   4.171   6.081   3.763 -1.0094 -1.1458 -0.4293
23268SOL    HW271246   4.039   6.016   3.801 -2.5789  1.0101 -1.9211
23269SOL     OW71247   7.910   7.487   1.520  0.5189  0.5187  0.2753
23269SOL    HW171248   7.898   7.409   1.467  0.3062  0.8927 -0.2337
23269SOL    HW271249   7.926   7.454   1.608 -0.2746 -0.0819  0.2054
23270SOL     OW71250   1.068   6.132   5.482 -0.5034 -0.1300 -0.0577
23270SOL    HW171251   0.992   6.102   5.432 -1.0495 -2.0597  1.7511
23270SOL    HW271252   1.038   6.133   5.573  1.8057 -1.9066  0.8554
23271SOL     OW71253   7.283   0.798  11.432 -0.2812  0.9040  0.3554
23271SOL    HW171254   7.231   0.721  11.408  1.2844  0.3301 -1.4280
23271SOL    HW271255   7.219   0.868  11.439 -1.3566  0.2299 -1.7780
23272SOL     OW71256   4.492   0.986   4.505  0.6708 -0.5998  0.3254
23272SOL    HW171257   4.422   1.035   4.461  0.3051 -0.8089  0.6685
23272SOL    HW271258   4.499   0.904   4.456  1.6556  0.0042 -0.5869
23273SOL     OW71259   1.176   7.089  10.655  0.1241  0.0527 -0.2934
23273SOL    HW171260   1.126   7.126  10.582 -0.8382  0.2938  0.4687
23273SOL    HW271261   1.124   7.014  10.684  0.4487  0.0151  0.2103
23274SOL     OW71262   2.034   2.894   1.668  0.5234 -0.4749  0.0299
23274SOL    HW171263   2.050   2.883   1.574  3.7085 -1.8572  0.5885
23274SOL    HW271264   1.946   2.930   1.674  0.1875 -0.4173 -3.4696
23275SOL     OW71265   5.853   7.413   6.433  0.4863 -0.1969 -0.2827
23275SOL    HW171266   5.901   7.330   6.431 -1.2396 -1.2549  0.1083
23275SOL    HW271267   5.795   7.409   6.356 -0.8244 -0.1418  0.6621
23276SOL     OW71268   5.697   7.021  11.959  0.3634 -0.4967  0.0833
23276SOL    HW171269   5.675   7.098  12.012 -0.5809 -0.4204 -0.4181
23276SOL    HW271270   5.762   6.974  12.012  1.1433  0.7627  0.2841
23277SOL     OW71271   6.042   1.755  10.122  0.0998  0.1749  0.3829
23277SOL    HW171272   6.054   1.801  10.205  0.7063  0.5507  0.0872
23277SOL    HW271273   6.102   1.681  10.127  0.0885  0.1605  0.3019
23278SOL     OW71274   7.127   2.792   3.294  0.4848 -0.6642 -0.8277
23278SOL    HW171275   7.091   2.713   3.254 -0.6291  0.1301 -1.4437
23278SOL    HW271276   7.214   2.766   3.324  0.4603 -1.8991 -1.7447
23279SOL     OW71277   0.518   3.432  10.286 -0.0389  0.0232  0.4067
23279SOL    HW171278   0.487   3.520  10.308 -1.4349 -0.0072 -1.2555
23279SOL    HW271279   0.442   3.376  10.301  1.3646 -1.3181  3.3608
23280SOL     OW71280   4.136   7.389   9.153 -0.0740 -0.7165  0.2775
23280SOL    HW171281   4.088   7.306   9.157 -0.2254 -0.7237 -1.1479
23280SOL    HW271282   4.205   7.380   9.218 -1.5128 -1.0162  1.8296
23281SOL     OW71283   5.429   5.599   3.307 -0.9356 -0.0115 -0.6757
23281SOL    HW171284   5.453   5.666   3.242 -3.0226  1.1553 -0.3406
23281SOL    HW271285   5.344   5.627   3.340  0.2411 -0.2109  3.0323
23282SOL     OW71286   6.792   2.796   9.544 -0.2467  0.2127  0.7759
23282SOL    HW171287   6.878   2.781   9.505  0.5193  1.4825  1.9037
23282SOL    HW271288   6.760   2.709   9.567 -0.3175 -0.5187 -1.7224
23283SOL     OW71289   7.326   0.225   0.074 -0.7304  0.0075 -0.4099
23283SOL    HW171290   7.290   0.291   0.014  0.2655  0.4029 -0.5927
23283SOL    HW271291   7.410   0.262   0.102  0.0146 -1.3444 -0.7879
23284SOL     OW71292   2.484   0.625   6.705  0.1126 -0.3119 -0.1473
23284SOL    HW171293   2.523   0.637   6.792  0.8521  1.0495 -0.6146
23284SOL    HW271294   2.475   0.531   6.695 -0.1483 -0.4878  1.4692
23285SOL     OW71295   2.341   7.205   9.597  0.0190  0.1485 -0.1607
23285SOL    HW171296   2.290   7.146   9.542  0.4027  1.1917 -1.6866
23285SOL    HW271297   2.427   7.164   9.605 -0.2482 -0.3384  0.2438
23286SOL     OW71298   7.189   2.872  10.772  0.0152  0.0433  0.1402
23286SOL    HW171299   7.187   2.966  10.751 -0.7972 -0.0231 -0.1461
23286SOL    HW271300   7.121   2.862  10.839  1.6460  0.0210  1.8477
23287SOL     OW71301   1.162   7.480   5.955  0.0416 -0.3458  0.3463
23287SOL    HW171302   1.189   7.390   5.936  0.5358 -0.2568  0.6253
23287SOL    HW271303   1.096   7.471   6.024  1.0428 -0.4143  1.3152
23288SOL     OW71304   4.776   1.016   3.671 -0.5428  0.4098 -0.0574
23288SOL    HW171305   4.779   0.939   3.615 -0.0612  1.4265 -1.4961
23288SOL    HW271306   4.689   1.014   3.711 -0.2228 -1.3260  0.6367
23289SOL     OW71307   2.158   5.716   2.012 -0.4647  0.3779 -0.1574
23289SOL    HW171308   2.069   5.745   1.989 -0.1345  1.4733 -0.1048
23289SOL    HW271309   2.145   5.648   2.078 -1.2143  3.0212  2.6278
23290SOL     OW71310   4.615   5.846   9.735 -0.4474 -0.2722  0.2271
23290SOL    HW171311   4.612   5.822   9.827  0.7612  0.1186  0.3839
23290SOL    HW271312   4.690   5.904   9.728 -1.8337  1.5389 -0.5742
23291SOL     OW71313   6.932   0.185  11.520  0.0335  0.0776  0.0868
23291SOL    HW171314   6.846   0.208  11.484  0.4970  0.8961 -0.5443
23291SOL    HW271315   6.971   0.127  11.455 -0.9981 -2.3724  1.5262
23292SOL     OW71316   7.663   2.027   4.357 -0.0099 -0.3019  0.5640
23292SOL    HW171317   7.596   2.057   4.419 -0.7298 -1.5487  0.4142
23292SOL    HW271318   7.618   1.966   4.300  0.6230  0.9171 -1.3163
23293SOL     OW71319   1.895   6.659  12.014 -0.5310  0.4071  0.3437
23293SOL    HW171320   1.817   6.622  11.972  0.2108 -0.9630  0.1211
23293SOL    HW271321   1.968   6.624  11.963  0.3236 -0.0470  1.8276
23294SOL     OW71322   7.736   2.488   9.366  0.0894  0.6875  0.1914
23294SOL    HW171323   7.651   2.496   9.322 -0.8132  0.6692  1.8699
23294SOL    HW271324   7.782   2.421   9.315 -1.4073 -0.2366 -0.0186
23295SOL     OW71325   2.731   7.070   8.350 -0.2844  0.3455  0.0665
23295SOL    HW171326   2.783   7.120   8.413 -2.0855 -0.6541  2.5543
23295SOL    HW271327   2.672   7.135   8.311  0.8798  0.9883 -0.6810
23296SOL     OW71328   5.779   7.320   7.790 -0.3279 -0.0420 -0.1197
23296SOL    HW171329   5.689   7.312   7.821 -0.4756 -0.4418 -0.6307
23296SOL    HW271330   5.834   7.304   7.867 -0.6813  1.8865  0.5986
23297SOL     OW71331   0.741   4.680   3.495 -0.1260  0.6713  0.1063
23297SOL    HW171332   0.670   4.689   3.432  0.6692  0.4214 -0.8584
23297SOL    HW271333   0.789   4.602   3.466  1.7705  2.0056 -0.5570
23298SOL     OW71334   6.348   5.868   8.816 -0.3303 -0.5275 -0.6862
23298SOL    HW171335   6.292   5.792   8.801 -1.0859  0.0434 -0.8017
23298SOL    HW271336   6.318   5.932   8.751 -1.9418  1.0894  1.5161
23299SOL     OW71337   6.146   3.265  10.857 -0.1180 -0.2274  0.1829
23299SOL    HW171338   6.166   3.279  10.764 -2.2653  1.5263 -0.0955
23299SOL    HW271339   6.128   3.352  10.891 -0.3128 -0.9518  2.0366
23300SOL     OW71340   0.065   3.281   7.051 -1.0172 -0.7256 -0.3136
23300SOL    HW171341   0.051   3.375   7.035  1.9929  0.0011  0.6514
23300SOL    HW271342   0.144   3.260   7.000 -0.2888 -2.1269  1.2815
23301SOL     OW71343   1.020   4.478  12.253  0.1436 -0.2183  0.4221
23301SOL    HW171344   0.925   4.487  12.250  0.0785  0.0945  2.3070
23301SOL    HW271345   1.053   4.566  12.235  0.0236 -0.0210  1.1428
23302SOL     OW71346   4.750   2.053   4.306  0.0837  0.1944 -0.1878
23302SOL    HW171347   4.758   2.087   4.217 -0.8393 -0.8746 -0.7056
23302SOL    HW271348   4.757   1.958   4.296  0.5976  0.0988  0.9642
23303SOL     OW71349   3.304   4.270  11.960  0.1951  0.3174 -0.2499
23303SOL    HW171350   3.227   4.306  12.003  0.7935 -0.2820  1.4251
23303SOL    HW271351   3.270   4.222  11.885 -0.8808  1.5416 -0.5803
23304SOL     OW71352   3.238   0.276   1.801 -0.0691  0.7402 -0.1870
23304SOL    HW171353   3.168   0.339   1.785  0.4441  1.9133  1.8679
23304SOL    HW271354   3.242   0.268   1.896  1.3974 -0.6814 -0.3317
23305SOL     OW71355   1.904   3.179   9.406  0.0744 -0.0805  0.2764
23305SOL    HW171356   1.880   3.093   9.440  1.2724  0.2095  2.0063
23305SOL    HW271357   1.987   3.199   9.449 -0.6796  2.3772  0.7483
23306SOL     OW71358   3.847   0.805   5.231 -0.1611  0.2994 -0.1216
23306SOL    HW171359   3.761   0.793   5.270 -0.1639  2.1007  0.5266
23306SOL    HW271360   3.907   0.758   5.289 -0.2625  2.3220  1.7608
23307SOL     OW71361   6.761   5.728   1.941  0.1437  0.2063  0.0265
23307SOL    HW171362   6.737   5.775   1.862 -2.0563  0.2228  0.6405
23307SOL    HW271363   6.747   5.790   2.012  2.0162  0.1685  0.4832
23308SOL     OW71364   4.590   6.273   6.258 -0.4055 -0.4996  0.3297
23308SOL    HW171365   4.661   6.225   6.300 -0.3577 -1.2457 -0.5721
23308SOL    HW271366   4.528   6.291   6.329  0.0195 -1.0792  0.8560
23309SOL     OW71367   3.303   2.536   1.357  0.1629 -0.2815 -0.6743
23309SOL    HW171368   3.334   2.617   1.318 -0.5326  0.3030 -0.0301
23309SOL    HW271369   3.383   2.491   1.385  0.5725 -0.0075 -1.3762
23310SOL     OW71370   7.661   1.057   5.460  0.3838  0.5515 -0.0323
23310SOL    HW171371   7.691   0.975   5.499  0.9669  0.7526 -0.0601
23310SOL    HW271372   7.713   1.067   5.380 -0.8171  0.1269 -0.9017
23311SOL     OW71373   3.838   2.942   1.141 -0.3185  0.2947 -0.0421
23311SOL    HW171374   3.809   2.925   1.230  0.6623 -2.3391 -0.1470
23311SOL    HW271375   3.764   2.917   1.086  0.2601 -1.4393 -0.0789
23312SOL     OW71376   0.257   4.444   7.458  0.4957 -0.4917  0.1073
23312SOL    HW171377   0.310   4.524   7.464 -2.6884  1.7545  1.2552
23312SOL    HW271378   0.307   4.387   7.400  3.6805  1.7017  0.4051
23313SOL     OW71379   3.007   0.935   8.737  0.0080 -0.3270 -0.2321
23313SOL    HW171380   2.945   0.903   8.671 -1.2841  1.8754 -0.1855
23313SOL    HW271381   3.025   1.025   8.711 -0.1706  0.4578  2.1117
23314SOL     OW71382   5.607   1.103   8.569  0.1643 -0.6705 -0.5770
23314SOL    HW171383   5.599   1.015   8.533  0.2280 -0.0098 -2.2782
23314SOL    HW271384   5.695   1.105   8.607 -0.2130 -1.6414  0.4035
23315SOL     OW71385   5.428   7.228   3.733 -1.0570 -0.3850 -0.1885
23315SOL    HW171386   5.502   7.252   3.788 -0.3125  0.1916 -1.3992
23315SOL    HW271387   5.361   7.198   3.794 -0.9268  1.9465  1.2086
23316SOL     OW71388   7.183   6.057   8.759 -0.1794 -0.4632  0.2415
23316SOL    HW171389   7.237   6.039   8.836  3.6144 -0.4467 -2.1599
23316SOL    HW271390   7.158   5.971   8.726  0.1126 -0.5420  0.2309
23317SOL     OW71391   3.863   2.281   6.903 -0.2705 -0.1364  0.3182
23317SOL    HW171392   3.942   2.289   6.956  0.2093  0.2199 -0.4481
23317SOL    HW271393   3.791   2.278   6.967  0.2055  1.4472  0.9491
23318SOL     OW71394   7.656   5.844   0.141 -0.5250  0.3147 -0.3760
23318SOL    HW171395   7.648   5.813   0.051  2.3268 -1.1555 -0.2307
23318SOL    HW271396   7.711   5.923   0.135  0.7558 -0.5112  0.1421
23319SOL     OW71397   3.155   2.182   6.839  0.2118 -0.3272 -0.8489
23319SOL    HW171398   3.241   2.207   6.872  0.0825 -0.5592 -0.3232
23319SOL    HW271399   3.138   2.242   6.767  0.7135 -0.1314 -0.8065
23320SOL     OW71400   5.175   5.659   7.931  0.0298  0.5695 -0.6549
23320SOL    HW171401   5.245   5.722   7.913 -0.8892  1.3442 -1.6797
23320SOL    HW271402   5.122   5.660   7.851 -0.2680 -1.1874 -0.5054
23321SOL     OW71403   5.949   6.989  10.517 -0.0178  0.0459  0.1040
23321SOL    HW171404   5.882   6.927  10.487  0.5270 -0.4648 -0.0879
23321SOL    HW271405   5.985   7.026  10.436 -0.8864  1.2287  0.2351
23322SOL     OW71406   5.377   6.889   2.021 -0.0224  0.0510  0.3543
23322SOL    HW171407   5.441   6.935   1.966 -2.0320  2.2119 -0.3554
23322SOL    HW271408   5.430   6.834   2.079  2.4377  1.4719 -0.3951
23323SOL     OW71409   0.502   2.275  10.416 -0.0338 -0.4759 -0.0901
23323SOL    HW171410   0.416   2.312  10.436  0.2079  0.2649 -0.3771
23323SOL    HW271411   0.562   2.322  10.475  0.0343 -1.8561  1.0050
23324SOL     OW71412   6.897   5.323   7.221  0.3045 -0.1717  0.0286
23324SOL    HW171413   6.817   5.347   7.269  0.6729 -0.7387  0.9262
23324SOL    HW271414   6.902   5.228   7.229  0.5630 -0.2371 -0.8460
23325SOL     OW71415   7.038   5.413   7.851  0.0079  0.5237 -0.0597
23325SOL    HW171416   7.046   5.465   7.771  1.0549 -2.1116 -1.7752
23325SOL    HW271417   6.956   5.366   7.840 -0.1794  0.6448  0.7691
23326SOL     OW71418   1.015   0.443   6.835 -0.2774  0.4662 -0.1416
23326SOL    HW171419   0.978   0.529   6.855  2.2597  2.4910 -3.1286
23326SOL    HW271420   1.067   0.421   6.913 -0.4497  1.9435  0.4246
23327SOL     OW71421   3.165   3.101   6.772 -0.3783  0.1226  0.4201
23327SOL    HW171422   3.105   3.175   6.780  0.6450  0.8585  1.6846
23327SOL    HW271423   3.252   3.141   6.765  0.2522 -0.9481  1.7194
23328SOL     OW71424   6.774   2.669   5.321  0.3399 -0.0679  0.1634
23328SOL    HW171425   6.702   2.675   5.257  0.1177  2.0837  0.5423
23328SOL    HW271426   6.848   2.636   5.270 -0.2854 -0.0484 -0.7953
23329SOL     OW71427   4.588   3.176   6.455  0.0165  0.4451 -0.3114
23329SOL    HW171428   4.666   3.207   6.502  0.9837 -0.7007 -1.0899
23329SOL    HW271429   4.515   3.202   6.510  1.0627 -0.2071  1.4898
23330SOL     OW71430   2.228   1.365   7.623  0.0476 -0.8033 -0.1529
23330SOL    HW171431   2.275   1.331   7.699 -0.1983 -1.6833 -0.3851
23330SOL    HW271432   2.154   1.306   7.612 -1.3503  0.7722  0.4319
23331SOL     OW71433   6.607   6.147   8.175 -0.2345 -0.3743  0.2925
23331SOL    HW171434   6.538   6.181   8.232 -1.4483 -0.4654 -1.0609
23331SOL    HW271435   6.682   6.135   8.233 -0.3668  2.5791  1.2575
23332SOL     OW71436   3.001   1.835   7.324  0.4712 -0.0156  0.4632
23332SOL    HW171437   2.949   1.775   7.378  0.6427  0.6324  1.3594
23332SOL    HW271438   2.983   1.922   7.358  1.2551  0.3314  0.0412
23333SOL     OW71439   3.586   2.055   2.238 -0.1676 -0.4166  0.0441
23333SOL    HW171440   3.592   2.079   2.331  0.0193  0.0943 -0.0967
23333SOL    HW271441   3.553   1.965   2.239 -2.8126  0.4859  0.5362
23334SOL     OW71442   1.131   3.894   4.475 -0.6198 -0.3238  0.0977
23334SOL    HW171443   1.181   3.971   4.503  0.6198 -0.9118 -0.4040
23334SOL    HW271444   1.054   3.894   4.531  0.0334  0.5152  1.0402
23335SOL     OW71445   3.494   4.318   9.369  0.4076  0.1510 -0.5010
23335SOL    HW171446   3.456   4.405   9.353 -0.6215 -0.2987 -0.5639
23335SOL    HW271447   3.540   4.297   9.287 -0.3490  0.1323 -0.9256
23336SOL     OW71448   5.028   1.688   7.751  0.0945 -0.3347  0.3535
23336SOL    HW171449   4.965   1.760   7.741 -0.2754 -0.5047  1.3872
23336SOL    HW271450   4.990   1.617   7.699  0.3615  0.1289 -0.5081
23337SOL     OW71451   2.410   4.535   8.288  0.0393 -0.2373  0.3216
23337SOL    HW171452   2.472   4.537   8.362 -0.7475  3.1299  1.0971
23337SOL    HW271453   2.446   4.598   8.226 -0.3087 -1.6395 -1.3532
23338SOL     OW71454   7.760   3.979   4.712 -0.3052 -0.8021 -0.3658
23338SOL    HW171455   7.794   4.065   4.736  0.4631 -0.0575 -3.6480
23338SOL    HW271456   7.667   3.984   4.734  0.2631 -0.3279  2.2907
23339SOL     OW71457   0.595   3.761   3.324  0.0306 -0.1062  0.2256
23339SOL    HW171458   0.604   3.836   3.266  0.2725  0.1977  0.6532
23339SOL    HW271459   0.518   3.781   3.377  2.0320  1.5118  2.7529
23340SOL     OW71460   2.708   4.519   6.014 -0.3677  0.6472 -0.7257
23340SOL    HW171461   2.697   4.429   5.982 -1.5173  0.7249 -0.5903
23340SOL    HW271462   2.764   4.510   6.091 -1.2105 -0.0764 -0.1759
23341SOL     OW71463   2.661   0.027   2.871 -0.0301  0.1819  0.4935
23341SOL    HW171464   2.625   0.097   2.817  1.7567  0.9462  0.2032
23341SOL    HW271465   2.718  -0.022   2.812  0.8625  0.1809  1.3302
23342SOL     OW71466   7.145   7.186   7.188 -0.5550 -0.2511 -0.0601
23342SOL    HW171467   7.221   7.128   7.177  0.6617  1.3505 -0.5469
23342SOL    HW271468   7.153   7.250   7.116 -0.7358  1.6527  1.5284
23343SOL     OW71469   7.586   5.157  11.343 -0.3219  0.3767  0.5209
23343SOL    HW171470   7.528   5.210  11.287 -0.1416  0.0407  0.0163
23343SOL    HW271471   7.672   5.198  11.333 -0.1494 -0.1139  0.0011
23344SOL     OW71472   1.452   5.544   1.788  0.2093 -0.5883 -0.3508
23344SOL    HW171473   1.409   5.613   1.736 -1.2420 -0.3628  1.0474
23344SOL    HW271474   1.511   5.592   1.846  1.5268 -0.8097 -1.4553
23345SOL     OW71475   4.640   4.576   9.767 -0.1323 -0.2859  0.0040
23345SOL    HW171476   4.642   4.590   9.862  2.1604  0.5515 -0.1156
23345SOL    HW271477   4.661   4.483   9.757 -0.8310 -0.4831  0.3206
23346SOL     OW71478   7.621   5.285   0.726  0.2683  0.3813 -0.2447
23346SOL    HW171479   7.597   5.311   0.815  0.2509 -0.6721  0.0686
23346SOL    HW271480   7.673   5.358   0.693 -0.6819  1.3017  0.2095
23347SOL     OW71481   0.313   3.270   6.910 -0.5205  0.4279  0.0761
23347SOL    HW171482   0.332   3.361   6.888 -0.9119  0.9700  1.8140
23347SOL    HW271483   0.400   3.231   6.923 -0.3676  0.7692  0.1090
23348SOL     OW71484   3.218   1.504   6.048 -0.2264 -0.0497 -0.1017
23348SOL    HW171485   3.288   1.551   6.093 -0.0755 -0.3759  0.0118
23348SOL    HW271486   3.263   1.441   5.992 -0.4247 -0.9398  0.6981
23349SOL     OW71487   2.550   0.317  10.946  0.7482 -0.5799 -0.6676
23349SOL    HW171488   2.568   0.371  10.869  0.1200 -1.9865 -1.8428
23349SOL    HW271489   2.479   0.363  10.991  0.2282 -0.4150 -1.6367
23350SOL     OW71490   7.717   1.346   4.636  0.4565  0.2174  0.0896
23350SOL    HW171491   7.780   1.295   4.586  0.0165 -1.3738  1.0770
23350SOL    HW271492   7.665   1.280   4.683  0.1601  1.5956  1.7790
23351SOL     OW71493   6.118   2.933   2.684  0.4937 -0.2036  0.2778
23351SOL    HW171494   6.144   2.850   2.723 -0.3420 -0.0426  1.2223
23351SOL    HW271495   6.134   2.922   2.590  2.1292 -0.7583  0.5954
23352SOL     OW71496   3.403   6.154   1.421  0.2956  0.0752 -0.5838
23352SOL    HW171497   3.396   6.080   1.481  1.3475  2.1150  2.3150
23352SOL    HW271498   3.487   6.141   1.377  0.4500 -0.4629 -0.1442
23353SOL     OW71499   5.007   4.400   3.776  0.0540  0.2749  0.3554
23353SOL    HW171500   4.976   4.490   3.774  1.5568  0.8266  1.0599
23353SOL    HW271501   4.944   4.355   3.833  0.2671  1.2841  1.4353
23354SOL     OW71502   7.357   2.426  10.312  0.5622  0.2665  0.4313
23354SOL    HW171503   7.327   2.342  10.279 -2.0824  1.5052 -0.6358
23354SOL    HW271504   7.448   2.432  10.284  0.7658 -2.1534  0.4435
23355SOL     OW71505   1.694   1.835   8.050 -0.5751  0.3046 -0.1518
23355SOL    HW171506   1.688   1.893   7.974 -1.2936  0.2506 -0.1409
23355SOL    HW271507   1.716   1.749   8.013 -2.3873 -0.0626 -0.4678
23356SOL     OW71508   6.479   3.275   3.918 -0.5776  0.3806 -0.1245
23356SOL    HW171509   6.572   3.289   3.935 -0.7459  0.0358  1.1924
23356SOL    HW271510   6.468   3.180   3.921 -1.1248  0.4533  0.7333
23357SOL     OW71511   0.177   0.905   5.214  0.1728 -0.6429 -0.3260
23357SOL    HW171512   0.121   0.855   5.274  0.0864 -0.3386 -0.1487
23357SOL    HW271513   0.204   0.841   5.148 -1.4387 -0.5272 -1.1572
23358SOL     OW71514   1.720   0.711   6.812  0.0002  0.2004 -0.4023
23358SOL    HW171515   1.719   0.649   6.739 -0.1767 -1.9667  1.3343
23358SOL    HW271516   1.635   0.700   6.853  0.9555 -0.4755  1.5327
23359SOL     OW71517   4.618   1.714   1.386 -0.2834  0.0050  0.0184
23359SOL    HW171518   4.583   1.726   1.474  2.1000 -0.4857  1.1071
23359SOL    HW271519   4.543   1.685   1.334 -2.0877  1.6951  1.4990
23360SOL     OW71520   2.643   2.078   0.378  0.2090 -0.2529  0.2252
23360SOL    HW171521   2.570   2.137   0.391 -0.5690 -1.2870  0.7022
23360SOL    HW271522   2.603   1.992   0.366  1.2155 -0.4940 -2.0158
23361SOL     OW71523   4.080   0.010   3.501  0.2084 -0.5955  0.0933
23361SOL    HW171524   4.137  -0.025   3.432  0.2804  0.3392 -0.3343
23361SOL    HW271525   3.995  -0.031   3.485  1.1473 -3.5427  1.9066
23362SOL     OW71526   0.072   0.810   3.535 -0.3983 -0.3989  0.0510
23362SOL    HW171527   0.013   0.737   3.552 -0.0081 -0.7029  0.1233
23362SOL    HW271528   0.052   0.838   3.446 -0.8920 -0.2703  0.2019
23363SOL     OW71529   0.736   2.021  10.974 -0.4253  0.2525  0.0066
23363SOL    HW171530   0.717   2.064  10.890 -1.8365 -0.4263 -0.0594
23363SOL    HW271531   0.683   2.069  11.038  0.9772  1.0462  0.6132
23364SOL     OW71532   7.739   1.908   2.372  0.0934  0.0602 -0.9397
23364SOL    HW171533   7.818   1.960   2.390  0.0761  0.6175 -2.3688
23364SOL    HW271534   7.742   1.838   2.437  0.7323  1.1674  0.2906
23365SOL     OW71535   7.258   1.747   3.703 -0.0351  0.7040  0.0909
23365SOL    HW171536   7.238   1.654   3.691 -0.5759  0.7860  0.3072
23365SOL    HW271537   7.233   1.765   3.794  2.7169  0.4104  0.9804
23366SOL     OW71538   6.276   7.318   5.714  0.2244  0.0674 -0.3068
23366SOL    HW171539   6.247   7.235   5.675  0.0713 -0.5478  1.0414
23366SOL    HW271540   6.258   7.308   5.808 -1.8743  2.4992 -0.3511
23367SOL     OW71541   7.864   4.309   6.832 -0.1397 -0.2650  0.2529
23367SOL    HW171542   7.854   4.342   6.742 -1.0594  1.3302  0.8857
23367SOL    HW271543   7.896   4.220   6.821 -1.2011 -0.4792 -1.6961
23368SOL     OW71544   1.912   5.465   6.122  0.2168  0.1430  0.1829
23368SOL    HW171545   1.827   5.439   6.088 -0.5447  0.8226  1.5084
23368SOL    HW271546   1.893   5.519   6.199  1.8083  1.1043 -0.0254
23369SOL     OW71547   2.151   2.186   6.673 -0.8968 -0.1764  0.0212
23369SOL    HW171548   2.207   2.261   6.652 -0.7557  0.2726  1.8459
23369SOL    HW271549   2.068   2.225   6.702 -1.5534 -0.7979 -0.9491
23370SOL     OW71550   2.984   3.301   2.883 -0.1338 -0.5269 -0.3145
23370SOL    HW171551   3.022   3.320   2.797  0.1620 -1.4524 -0.4026
23370SOL    HW271552   3.007   3.209   2.899 -2.4811 -1.1975 -0.4457
23371SOL     OW71553   3.125   1.231   9.469 -0.0666  0.5017  0.7695
23371SOL    HW171554   3.161   1.319   9.463  0.4311  0.5374  3.1693
23371SOL    HW271555   3.187   1.183   9.524 -1.1846 -0.8477  0.9244
23372SOL     OW71556   1.060   3.293   7.900  0.6212 -0.2692  0.5240
23372SOL    HW171557   1.150   3.319   7.879  1.2148 -1.1712  1.8141
23372SOL    HW271558   1.070   3.213   7.953 -0.9163 -0.1064  1.1034
23373SOL     OW71559   7.933   1.456   0.372  0.0576 -0.1144  0.3935
23373SOL    HW171560   7.903   1.541   0.340  0.8455 -0.6090 -1.8281
23373SOL    HW271561   7.867   1.394   0.341 -0.0092 -0.4587  1.1835
23374SOL     OW71562   4.953   6.148  10.966  0.5644  0.1065 -0.2900
23374SOL    HW171563   4.912   6.086  11.027 -0.1208 -0.1206 -0.9647
23374SOL    HW271564   5.038   6.167  11.005  0.7291 -1.1502  0.0010
23375SOL     OW71565   3.634   0.246   9.151 -0.2662 -0.3747 -0.0445
23375SOL    HW171566   3.668   0.291   9.074  1.1331 -1.3385 -0.0189
23375SOL    HW271567   3.673   0.292   9.225 -2.1462  0.9940  0.1845
23376SOL     OW71568   0.256   0.281  11.506 -0.2436  0.0814 -0.1753
23376SOL    HW171569   0.281   0.195  11.474  0.8485  0.5893 -0.7121
23376SOL    HW271570   0.166   0.293  11.474 -0.6790 -1.1245  0.4948
23377SOL     OW71571   6.482   7.545  11.779  0.8273  0.4090 -0.1994
23377SOL    HW171572   6.520   7.625  11.817 -0.7690  0.4815  1.3827
23377SOL    HW271573   6.472   7.486  11.853 -0.0758 -0.4289 -0.9646
23378SOL     OW71574   3.790   4.262  12.174 -0.0506 -0.1346  0.5692
23378SOL    HW171575   3.879   4.280  12.145 -0.8988 -0.3224 -2.5514
23378SOL    HW271576   3.782   4.307  12.258  1.9734  2.7318 -0.6229
23379SOL     OW71577   7.540   0.822   1.490  0.0684  0.4000  0.3541
23379SOL    HW171578   7.449   0.835   1.514  0.7614  0.1995  3.4599
23379SOL    HW271579   7.540   0.743   1.436 -1.5402  0.1561  0.6643
23380SOL     OW71580   5.006   0.982   2.506 -0.0752 -0.2425 -0.1093
23380SOL    HW171581   5.024   0.918   2.438  1.2995  0.9576 -0.9226
23380SOL    HW271582   4.915   1.009   2.491 -0.4714 -1.5285 -0.1189
23381SOL     OW71583   2.980   7.217   5.189  0.0776 -0.4497  0.4437
23381SOL    HW171584   3.061   7.265   5.172 -1.8638  2.7211 -0.7878
23381SOL    HW271585   2.978   7.149   5.123  2.6184 -2.0211  1.8066
23382SOL     OW71586   0.702   0.551   0.381  0.3113  0.5621 -0.3699
23382SOL    HW171587   0.633   0.512   0.435  0.6185  1.2601  0.5476
23382SOL    HW271588   0.656   0.594   0.309 -0.2422  1.2538  0.3829
23383SOL     OW71589   2.290   2.888   6.871  0.5191 -0.1704  0.1641
23383SOL    HW171590   2.340   2.835   6.933  0.7972  0.9314  0.9030
23383SOL    HW271591   2.216   2.922   6.922 -0.0915 -0.4547 -0.5014
23384SOL     OW71592   7.114   3.323   0.328 -0.2607 -0.2670 -0.3455
23384SOL    HW171593   7.066   3.278   0.397  1.1135  0.0429  0.8462
23384SOL    HW271594   7.180   3.260   0.300  1.4167  0.7747  1.0536
23385SOL     OW71595   6.046   7.198   2.280  0.1799 -0.1137  0.0493
23385SOL    HW171596   5.972   7.171   2.333 -0.5567  0.1903 -0.8047
23385SOL    HW271597   6.074   7.281   2.318 -0.0708 -0.1060  0.2161
23386SOL     OW71598   4.298   1.198   1.986  0.5160  0.1420 -0.9712
23386SOL    HW171599   4.208   1.202   1.954 -0.1368  1.1330  0.8709
23386SOL    HW271600   4.337   1.124   1.939 -1.1368 -0.0904 -2.0473
23387SOL     OW71601   0.330   2.374   4.785 -0.0232  0.1558  0.5314
23387SOL    HW171602   0.346   2.318   4.861 -1.2146  1.6540  1.9578
23387SOL    HW271603   0.235   2.375   4.776  0.1165 -0.4309 -1.3716
23388SOL     OW71604   3.424   4.174   1.277 -0.3408 -0.4208 -0.0170
23388SOL    HW171605   3.380   4.213   1.352  1.4055 -0.5298  1.0983
23388SOL    HW271606   3.353   4.156   1.215 -1.4382  3.2150 -0.0759
23389SOL     OW71607   0.918   6.591  12.096 -0.0194  0.2022 -0.0175
23389SOL    HW171608   0.995   6.624  12.142  1.0393 -0.9513 -0.9043
23389SOL    HW271609   0.891   6.664  12.039 -0.0309  0.8522  0.7973
23390SOL     OW71610   2.772   7.829   6.826  0.1940 -0.1839  0.0085
23390SOL    HW171611   2.723   7.748   6.811 -1.7739  0.8581  0.4587
23390SOL    HW271612   2.858   7.799   6.857 -1.4639 -2.1862  3.3463
23391SOL     OW71613   4.658   0.672   2.451  0.2886  0.4082 -0.0553
23391SOL    HW171614   4.624   0.750   2.407  1.5456  1.2245  0.3644
23391SOL    HW271615   4.716   0.633   2.386 -0.2283 -0.1054 -0.2121
23392SOL     OW71616   3.877   2.145   0.349 -0.2420  0.5710 -0.1505
23392SOL    HW171617   3.823   2.165   0.273 -0.4296  0.4023 -0.0613
23392SOL    HW271618   3.846   2.060   0.379 -1.9778  1.7486  1.6755
23393SOL     OW71619   3.321   2.644   7.647 -0.1390 -0.0818 -0.0445
23393SOL    HW171620   3.331   2.719   7.587  3.1856  0.0771  0.5194
23393SOL    HW271621   3.328   2.683   7.734  0.6309 -0.9099  0.2734
23394SOL     OW71622   6.932   4.294   4.269 -0.3765  0.4749 -0.1281
23394SOL    HW171623   6.983   4.287   4.350  0.0428  0.5822 -0.3791
23394SOL    HW271624   6.956   4.380   4.233  1.0960 -0.4428 -1.4645
23395SOL     OW71625   3.102   3.070  11.068  0.1774 -0.0354  0.0837
23395SOL    HW171626   3.056   3.038  11.146  0.4961  1.5506  0.9491
23395SOL    HW271627   3.139   3.154  11.094 -0.1608  0.8015 -1.9342
23396SOL     OW71628   4.558   5.273  11.339  0.2655  0.1617 -0.0206
23396SOL    HW171629   4.476   5.274  11.290 -0.7512  0.3356  1.5993
23396SOL    HW271630   4.623   5.237  11.278 -1.0670 -0.2256 -1.2493
23397SOL     OW71631   5.496   5.629   4.601  0.2938 -0.1969 -0.4745
23397SOL    HW171632   5.409   5.609   4.569 -0.1210 -0.0686  0.5436
23397SOL    HW271633   5.549   5.639   4.521 -0.8696  0.9150 -1.1532
23398SOL     OW71634   5.312   1.073   3.794 -0.2058 -0.2136 -0.7781
23398SOL    HW171635   5.240   1.084   3.731  0.1258 -1.4526 -1.4009
23398SOL    HW271636   5.293   0.990   3.838  0.0349  0.2138  0.1526
23399SOL     OW71637   4.490   5.843  12.351  0.1989 -0.5434 -0.0091
23399SOL    HW171638   4.428   5.771  12.361  0.8118 -1.3774 -1.6654
23399SOL    HW271639   4.569   5.813  12.396  0.1802 -0.5461  0.0217
23400SOL     OW71640   7.346   5.667   7.885 -1.1496  0.2719 -0.7247
23400SOL    HW171641   7.433   5.687   7.851 -0.4262 -1.9741 -0.2907
23400SOL    HW271642   7.298   5.750   7.876  1.2271  1.7976 -0.2509
23401SOL     OW71643   0.454   7.582   4.329  0.5325 -0.7230  0.2821
23401SOL    HW171644   0.472   7.647   4.260  0.6611 -0.5294  0.4971
23401SOL    HW271645   0.539   7.539   4.344  0.3012 -1.4171 -0.3428
23402SOL     OW71646   6.677   2.981   2.867 -0.3100 -0.5107 -0.2203
23402SOL    HW171647   6.764   2.942   2.877 -0.5367 -0.5859  1.9024
23402SOL    HW271648   6.694   3.071   2.839  0.4920 -0.3417  0.7785
23403SOL     OW71649   0.433   3.919  11.988 -0.0161  0.1848 -0.0007
23403SOL    HW171650   0.465   3.976  12.058 -0.6522 -1.6672  1.9199
23403SOL    HW271651   0.340   3.908  12.007  0.0764 -1.4142 -0.3135
23404SOL     OW71652   2.930   6.569   3.851 -0.1730 -0.4473  0.5824
23404SOL    HW171653   3.002   6.569   3.915 -0.5373 -0.0505  0.9925
23404SOL    HW271654   2.957   6.633   3.785  0.8110 -1.7786 -0.3652
23405SOL     OW71655   3.272   2.044   7.902 -0.1221  0.3212  0.0634
23405SOL    HW171656   3.307   2.107   7.839 -0.1921  0.4726  0.1764
23405SOL    HW271657   3.211   2.095   7.956 -0.4356  0.0884 -0.0631
23406SOL     OW71658   2.324   3.936   3.363 -0.0618  0.1065 -0.0461
23406SOL    HW171659   2.381   3.869   3.401 -1.3974 -0.7289  0.5552
23406SOL    HW271660   2.236   3.897   3.366 -0.5179  0.8364 -2.1185
23407SOL     OW71661   6.681   2.611  10.133 -0.4763  0.3225 -0.4411
23407SOL    HW171662   6.762   2.663  10.136  1.4213 -2.4052  2.3095
23407SOL    HW271663   6.625   2.650  10.200  1.7996 -2.0995  3.1891
23408SOL     OW71664   4.036   1.958   1.948  0.5112  0.0301  0.3304
23408SOL    HW171665   4.050   1.988   1.858  1.0390  0.4454  0.5434
23408SOL    HW271666   4.039   2.038   2.000  0.4946 -0.2416  0.7503
23409SOL     OW71667   7.730   5.179   4.534 -0.2628 -0.4687  0.2550
23409SOL    HW171668   7.648   5.183   4.485  0.4529 -0.4041 -0.9813
23409SOL    HW271669   7.795   5.151   4.470  0.8345  0.2401  1.0218
23410SOL     OW71670   4.616   0.597   1.227 -0.8423  0.0666  0.2778
23410SOL    HW171671   4.571   0.647   1.295 -0.4278  0.6598  0.1259
23410SOL    HW271672   4.665   0.663   1.178 -1.2518 -0.3255 -0.6889
23411SOL     OW71673   6.304   2.770  12.293 -0.0972 -0.3037  0.2036
23411SOL    HW171674   6.236   2.828  12.329  1.6021  1.3379  0.9177
23411SOL    HW271675   6.362   2.752  12.367  0.1980 -1.8137 -0.3510
23412SOL     OW71676   7.865   0.840   5.311 -0.1680  0.0656 -0.5820
23412SOL    HW171677   7.837   0.835   5.402  3.4414 -0.3666  0.6689
23412SOL    HW271678   7.836   0.927   5.282  0.8295  1.3273  1.8955
23413SOL     OW71679   3.304   4.663   4.203 -0.5786  0.0682  0.1638
23413SOL    HW171680   3.297   4.634   4.112 -0.7340  0.7526 -0.0476
23413SOL    HW271681   3.214   4.680   4.230 -0.3885  2.6187 -0.4878
23414SOL     OW71682   5.544   3.024   4.267  0.0384 -0.2246 -0.1807
23414SOL    HW171683   5.619   2.969   4.291  0.3038  0.6972  1.2352
23414SOL    HW271684   5.550   3.099   4.326 -1.6976  0.1335 -0.4207
23415SOL     OW71685   2.483   0.428   7.944 -0.5171 -0.2231 -0.2640
23415SOL    HW171686   2.413   0.363   7.942 -0.1216 -0.6484 -0.5044
23415SOL    HW271687   2.562   0.379   7.967 -0.6798  0.6344  2.4448
23416SOL     OW71688   3.945   3.223   6.386 -0.2746 -0.5175 -0.0549
23416SOL    HW171689   3.941   3.319   6.392 -1.1427 -0.6128  1.3212
23416SOL    HW271690   3.975   3.206   6.297  0.2015  1.0405 -0.2234
23417SOL     OW71691   5.475   4.509   6.859 -0.6163  0.3148 -0.1605
23417SOL    HW171692   5.443   4.516   6.949 -0.1920  0.7459 -0.0349
23417SOL    HW271693   5.473   4.599   6.826 -0.3152  0.2290 -0.4181
23418SOL     OW71694   2.097   7.841   9.765 -0.2317 -0.4138 -0.1980
23418SOL    HW171695   2.095   7.756   9.808 -0.7882  0.2199  1.0879
23418SOL    HW271696   2.186   7.874   9.782 -1.2230  1.0178  3.0163
23419SOL     OW71697   5.806   2.703   1.272 -0.6211  0.1339 -0.3107
23419SOL    HW171698   5.761   2.735   1.350 -0.7045 -1.6739  0.4025
23419SOL    HW271699   5.737   2.660   1.221 -0.3221  0.2189 -0.7915
23420SOL     OW71700   6.522   6.738   5.306  0.3762 -0.5464  0.2192
23420SOL    HW171701   6.513   6.698   5.393  0.0657  0.8348  0.8587
23420SOL    HW271702   6.433   6.736   5.270  0.5236 -1.2075 -0.1034
23421SOL     OW71703   6.772   3.300   0.605 -0.4515 -0.5703 -0.0291
23421SOL    HW171704   6.692   3.309   0.658 -0.6571 -0.1719 -0.4016
23421SOL    HW271705   6.810   3.388   0.604 -0.6247 -0.5002 -0.8164
23422SOL     OW71706   4.595   0.299   4.918  0.1377 -0.1681 -0.5456
23422SOL    HW171707   4.527   0.235   4.896  0.6031 -0.4179 -1.3136
23422SOL    HW271708   4.551   0.363   4.974 -0.8625 -0.0492 -1.4424
23423SOL     OW71709   6.450   5.712  10.724  0.2828  0.2613  0.1446
23423SOL    HW171710   6.448   5.735  10.817 -0.7874  0.4021  0.0996
23423SOL    HW271711   6.492   5.626  10.722 -1.1667 -0.5093  0.9519
23424SOL     OW71712   0.858   4.566   6.402  0.0665 -0.3062 -0.0548
23424SOL    HW171713   0.934   4.512   6.426 -1.5725 -2.2096  1.1414
23424SOL    HW271714   0.833   4.534   6.315  0.5560  0.2570 -0.4084
23425SOL     OW71715   0.242   0.399   3.059 -0.4976  0.1213 -0.5644
23425SOL    HW171716   0.332   0.432   3.058 -1.0187  1.6132 -1.5322
23425SOL    HW271717   0.198   0.449   3.127 -1.0371  0.6894 -1.3183
23426SOL     OW71718   0.281   3.400   6.155 -0.2979  0.3682  0.3168
23426SOL    HW171719   0.244   3.425   6.240 -0.7248  0.5737  0.0722
23426SOL    HW271720   0.258   3.472   6.097 -0.5676 -0.0736 -0.1282
23427SOL     OW71721   3.248   5.972   2.083  0.1961 -0.7168  0.2793
23427SOL    HW171722   3.228   6.065   2.069 -0.2701 -1.0632 -1.6854
23427SOL    HW271723   3.344   5.969   2.085  0.2329 -0.2576 -0.3279
23428SOL     OW71724   7.933   5.091   4.367  0.5128 -0.7903 -0.3247
23428SOL    HW171725   7.973   5.023   4.422 -1.0259 -2.3263 -0.9945
23428SOL    HW271726   7.901   5.044   4.290 -1.5883  0.4785 -0.3189
23429SOL     OW71727   4.614   5.265   0.629 -0.8433  0.1530 -0.0841
23429SOL    HW171728   4.622   5.301   0.540  0.9111 -2.1377 -0.9477
23429SOL    HW271729   4.699   5.226   0.647 -2.2757 -2.6985  1.0989
23430SOL     OW71730   4.591   5.542   0.759  0.4373 -0.1396 -0.1326
23430SOL    HW171731   4.610   5.609   0.693  1.1915  1.9087  2.0441
23430SOL    HW271732   4.626   5.461   0.722  1.8971  1.1569 -1.7284
23431SOL     OW71733   6.008   0.507   4.224 -0.0521  0.0621  0.4727
23431SOL    HW171734   6.077   0.475   4.166 -0.0275 -0.9478  1.0374
23431SOL    HW271735   6.038   0.593   4.252  1.4581 -0.7568  1.4660
23432SOL     OW71736   0.451   6.038   2.098  0.0817  0.1868  0.9108
23432SOL    HW171737   0.438   6.007   2.008  1.7510  1.7506  0.0722
23432SOL    HW271738   0.395   6.115   2.106  0.5897  0.5603  0.9100
23433SOL     OW71739   0.954   7.542   3.698  0.1362 -0.5417  0.3431
23433SOL    HW171740   0.883   7.479   3.688  1.2089 -1.6741 -0.4830
23433SOL    HW271741   0.994   7.548   3.611  1.4069 -0.3932  0.9043
23434SOL     OW71742   2.227   4.814   1.245 -0.2947 -0.8659  0.1897
23434SOL    HW171743   2.152   4.832   1.302 -0.7169  0.2231 -0.6762
23434SOL    HW271744   2.193   4.824   1.156  0.7857 -0.7282 -0.2256
23435SOL     OW71745   3.750   0.486   5.634  0.5755  0.4371 -0.0301
23435SOL    HW171746   3.692   0.412   5.653  0.0352  0.8370 -0.0889
23435SOL    HW271747   3.782   0.469   5.545 -0.0529  0.5942 -0.2929
23436SOL     OW71748   4.002   3.496   2.529  0.3176 -0.7972 -0.1213
23436SOL    HW171749   4.023   3.519   2.620 -0.1423 -1.8472  0.2677
23436SOL    HW271750   4.080   3.449   2.498  0.9302  0.5004 -0.6578
23437SOL     OW71751   0.603   4.690   7.254 -0.4675  0.3254 -0.1913
23437SOL    HW171752   0.534   4.694   7.188 -0.6662 -0.3866 -0.0374
23437SOL    HW271753   0.662   4.621   7.222 -0.5480  0.0003  0.3568
23438SOL     OW71754   5.101   7.199  10.284  0.0606 -0.6083  0.0900
23438SOL    HW171755   5.049   7.138  10.232 -0.8493 -2.2308  2.6867
23438SOL    HW271756   5.036   7.257  10.325  0.8300  1.3695 -1.3108
23439SOL     OW71757   0.298   5.633   3.855  0.1573 -0.6767  0.0790
23439SOL    HW171758   0.380   5.586   3.838  0.0624 -0.9943  0.5042
23439SOL    HW271759   0.230   5.568   3.840  0.0153 -0.6121  0.4567
23440SOL     OW71760   3.678   2.829  12.082 -0.2850 -0.1201  0.1679
23440SOL    HW171761   3.675   2.923  12.099 -1.8370  0.2797 -2.0058
23440SOL    HW271762   3.632   2.790  12.156 -0.5091  0.8983  0.5804
23441SOL     OW71763   7.770   5.636   3.100 -0.4954 -0.1833 -0.3161
23441SOL    HW171764   7.806   5.692   3.031 -0.5507 -0.5193 -0.6182
23441SOL    HW271765   7.746   5.555   3.055 -2.3016  0.2938 -0.2626
23442SOL     OW71766   2.351   5.832   4.332  0.2063  0.2305 -0.1774
23442SOL    HW171767   2.360   5.742   4.363 -1.8373 -0.2285 -0.8017
23442SOL    HW271768   2.286   5.827   4.262 -1.1259  2.4172  0.8252
23443SOL     OW71769   5.991   6.000   5.908 -0.0568 -0.2957  0.5337
23443SOL    HW171770   5.937   5.926   5.935  0.2567 -0.8195 -0.2271
23443SOL    HW271771   6.037   6.026   5.988 -0.0789 -1.0102  0.7906
23444SOL     OW71772   4.019   3.051   8.112  0.3862 -0.2054  0.1853
23444SOL    HW171773   4.034   3.141   8.081 -1.6295  0.0643 -0.1067
23444SOL    HW271774   4.106   3.022   8.141  0.9135  2.2231  1.3540
23445SOL     OW71775   6.987   5.859   4.799 -0.2549 -0.2726  0.1061
23445SOL    HW171776   6.999   5.947   4.765 -2.2333  0.8993  2.2090
23445SOL    HW271777   6.967   5.806   4.721  0.5072  1.1577 -1.1287
23446SOL     OW71778   2.233   7.202   9.877  0.1178 -0.2964 -0.2114
23446SOL    HW171779   2.277   7.216   9.793 -2.2597  0.4444 -1.4159
23446SOL    HW271780   2.215   7.108   9.879  2.1601 -0.7270  0.5812
23447SOL     OW71781   1.548   6.326   3.390  0.1016 -0.2647  0.1463
23447SOL    HW171782   1.461   6.360   3.367  0.3113  0.8151  0.8555
23447SOL    HW271783   1.596   6.403   3.420  1.7158 -0.6121 -1.3883
23448SOL     OW71784   0.402   6.881  11.766 -0.1644  0.2704 -0.0955
23448SOL    HW171785   0.423   6.950  11.829 -0.7869  0.4370 -0.0557
23448SOL    HW271786   0.436   6.801  11.806 -0.8114  0.3315  0.6086
23449SOL     OW71787   7.120   0.823   9.938 -0.1215 -0.2070 -0.4583
23449SOL    HW171788   7.150   0.739   9.973 -1.8977 -0.2897  0.9689
23449SOL    HW271789   7.038   0.803   9.894 -0.1735  0.6630 -0.7850
23450SOL     OW71790   0.313   6.085   2.545 -0.1407 -0.0199  0.1372
23450SOL    HW171791   0.275   6.058   2.628 -1.4572 -2.0225 -1.0295
23450SOL    HW271792   0.246   6.140   2.504  0.1801  0.3250  0.0694
23451SOL     OW71793   4.355   4.617   5.278 -0.2223 -0.2037  0.3466
23451SOL    HW171794   4.423   4.675   5.313  0.5955 -1.9446  1.8150
23451SOL    HW271795   4.394   4.577   5.200  0.4393 -1.1436  1.1461
23452SOL     OW71796   0.702   3.047  10.632 -0.1920  0.2361 -0.3752
23452SOL    HW171797   0.646   3.063  10.708  1.0136 -2.8006  1.3265
23452SOL    HW271798   0.646   3.001  10.570 -0.6321  0.8425 -0.4314
23453SOL     OW71799   3.266   4.228   4.931  0.3907 -0.6157  0.1343
23453SOL    HW171800   3.280   4.145   4.886  2.1980  0.5044 -1.4931
23453SOL    HW271801   3.354   4.262   4.947 -0.3158  1.2520  0.2877
23454SOL     OW71802   2.825   0.525  10.705 -0.2259  0.5923  0.6354
23454SOL    HW171803   2.779   0.531  10.789  0.1080  1.3980  0.7652
23454SOL    HW271804   2.875   0.444  10.711 -1.1602  0.0048  0.7238
23455SOL     OW71805   3.996   6.863   6.418  0.0399 -0.3682  0.1304
23455SOL    HW171806   3.984   6.958   6.416  0.9499 -0.1737  1.7055
23455SOL    HW271807   3.922   6.831   6.471  0.3555 -0.3873  0.5719
23456SOL     OW71808   1.965   2.966   6.751  0.7339 -0.2655 -0.2821
23456SOL    HW171809   2.017   3.004   6.822  0.4968 -1.9896  0.8767
23456SOL    HW271810   1.881   2.945   6.791  0.9426 -2.2239 -0.7400
23457SOL     OW71811   3.051   6.399   6.528  0.4010  0.0660  0.3323
23457SOL    HW171812   3.096   6.316   6.514 -1.3033 -0.5041 -2.4732
23457SOL    HW271813   2.959   6.374   6.539  0.1706  1.4641  2.0642
23458SOL     OW71814   5.342   0.940  11.775  0.0205  0.1121  0.8370
23458SOL    HW171815   5.302   1.011  11.725  0.7875  0.3153  0.4898
23458SOL    HW271816   5.424   0.922  11.729 -0.6782 -1.7735  0.2493
23459SOL     OW71817   2.997   6.736  11.203 -0.0887  0.1353  0.4404
23459SOL    HW171818   3.086   6.705  11.193  0.0013  0.7571 -0.9219
23459SOL    HW271819   2.945   6.680  11.145 -0.3497  0.6759  0.1431
23460SOL     OW71820   2.125   0.668  11.506  0.1353 -0.5655 -0.0121
23460SOL    HW171821   2.083   0.583  11.499 -1.4872  0.1400  0.5125
23460SOL    HW271822   2.219   0.651  11.496 -0.2703 -2.2016 -1.3305
23461SOL     OW71823   5.863   1.353   8.321  0.1013 -0.1106 -0.0682
23461SOL    HW171824   5.899   1.442   8.322 -0.5157  0.1783 -1.3690
23461SOL    HW271825   5.889   1.316   8.405  0.1997  1.3665  0.5901
23462SOL     OW71826   0.211   6.791   4.221 -0.0613  0.0469  0.5447
23462SOL    HW171827   0.233   6.876   4.258 -2.0959  1.0433 -0.3918
23462SOL    HW271828   0.126   6.804   4.179  0.4199 -1.9801 -1.2268
23463SOL     OW71829   2.004   7.212   8.787 -0.3891 -0.4830  0.5300
23463SOL    HW171830   2.092   7.243   8.765 -1.0632  0.1688 -1.3664
23463SOL    HW271831   1.972   7.274   8.853  0.4225 -0.5472  1.0027
23464SOL     OW71832   4.950   6.533   2.372 -0.7035 -0.3405 -0.2351
23464SOL    HW171833   4.933   6.439   2.379 -1.2253 -0.1839  0.6050
23464SOL    HW271834   5.042   6.538   2.347  0.5908 -1.0229  3.7393
23465SOL     OW71835   1.691   0.235   4.922 -0.2102 -0.2815 -0.0082
23465SOL    HW171836   1.739   0.315   4.903  2.1714 -1.5549  0.3430
23465SOL    HW271837   1.696   0.183   4.842  0.4857 -1.1185  0.5543
23466SOL     OW71838   5.398   2.336   6.261 -0.7562  0.0191 -0.1622
23466SOL    HW171839   5.336   2.402   6.230 -1.4503 -0.1477  0.8048
23466SOL    HW271840   5.447   2.379   6.330  0.6132  0.3128 -1.2727
23467SOL     OW71841   0.991   6.129   8.319  0.2318 -0.0659 -0.3469
23467SOL    HW171842   0.917   6.068   8.325 -0.9342  1.3689  0.5140
23467SOL    HW271843   1.068   6.072   8.315 -0.7531 -1.5948  1.0166
23468SOL     OW71844   0.842   5.492   5.932 -0.5587  0.5381  0.7625
23468SOL    HW171845   0.761   5.523   5.974 -1.1689  0.2980 -0.2090
23468SOL    HW271846   0.860   5.408   5.973 -1.0290  0.4061  0.6983
23469SOL     OW71847   1.762   5.465   4.469  0.1464 -0.3008  0.2442
23469SOL    HW171848   1.717   5.459   4.554 -0.5381 -0.3595 -0.1105
23469SOL    HW271849   1.710   5.409   4.411 -0.6420  1.3533 -0.7251
23470SOL     OW71850   4.245   0.106   7.741  0.5660 -0.3812  0.1449
23470SOL    HW171851   4.190   0.149   7.807  0.1659  0.8319 -0.9388
23470SOL    HW271852   4.332   0.143   7.756  0.7269 -0.9748  0.7202
23471SOL     OW71853   2.266   6.464   4.573  0.0921 -0.0685 -0.1061
23471SOL    HW171854   2.317   6.410   4.513  1.5751  2.0290 -0.8556
23471SOL    HW271855   2.175   6.448   4.547  0.3787 -2.8148  0.3168
23472SOL     OW71856   5.249   5.047  11.463 -0.3330 -0.8649 -0.4851
23472SOL    HW171857   5.164   5.003  11.472 -0.2559 -1.0487 -0.6601
23472SOL    HW271858   5.252   5.076  11.372  0.0638 -1.4195 -0.6521
23473SOL     OW71859   5.003   5.392   8.353  0.3098 -0.4314  0.4860
23473SOL    HW171860   4.981   5.469   8.404  0.6243 -0.5476  0.8020
23473SOL    HW271861   5.035   5.427   8.270 -0.9405 -0.2633  0.0619
23474SOL     OW71862   3.063   4.370  12.084 -0.3154 -0.2264 -0.5465
23474SOL    HW171863   2.999   4.332  12.145 -1.6806  2.7983  0.0924
23474SOL    HW271864   3.118   4.426  12.139  1.4971 -1.0338 -1.4534
23475SOL     OW71865   4.918   1.762  10.753  0.5077  0.1101  0.2158
23475SOL    HW171866   4.956   1.789  10.670 -0.8682  2.2189  0.2140
23475SOL    HW271867   4.918   1.841  10.807  0.6451 -1.0229  1.9718
23476SOL     OW71868   3.675   6.369  12.172  0.1328  0.1237 -0.1829
23476SOL    HW171869   3.579   6.366  12.176  0.1228  0.5493 -0.0386
23476SOL    HW271870   3.703   6.333  12.256  0.1240 -1.0665 -0.6784
23477SOL     OW71871   6.315   1.460   2.236 -0.1374 -0.3485  0.1960
23477SOL    HW171872   6.407   1.472   2.210 -0.1104 -1.9720 -0.5740
23477SOL    HW271873   6.282   1.392   2.178 -1.8271  0.1491  0.5237
23478SOL     OW71874   4.417   5.318   6.650 -0.1146 -0.1495 -0.2057
23478SOL    HW171875   4.463   5.266   6.584 -0.7964 -3.0775  1.4821
23478SOL    HW271876   4.486   5.365   6.696  0.6905 -0.7333 -0.7976
23479SOL     OW71877   0.123   5.078   1.672 -0.3153  0.0589  0.3674
23479SOL    HW171878   0.196   5.093   1.733 -1.9470  0.0595  2.4292
23479SOL    HW271879   0.152   5.004   1.619  0.9208 -0.4189  1.6118
23480SOL     OW71880   0.138   2.639   8.226 -1.0795  0.8707  0.7109
23480SOL    HW171881   0.105   2.677   8.307 -1.0588 -0.8860  1.5799
23480SOL    HW271882   0.083   2.562   8.210  0.2991 -0.0642  0.2591
23481SOL     OW71883   1.299   2.815   1.818  0.2524 -0.0711 -0.5493
23481SOL    HW171884   1.354   2.754   1.771 -0.4332 -0.5163 -0.7854
23481SOL    HW271885   1.219   2.766   1.838  0.5181  0.1021  1.0644
23482SOL     OW71886   4.823   4.225   8.444  0.9162  0.2577  0.6854
23482SOL    HW171887   4.916   4.247   8.441  0.5119  2.0036 -0.9331
23482SOL    HW271888   4.778   4.307   8.427 -0.8755 -0.8755 -0.3933
23483SOL     OW71889   0.973   4.882   4.582  0.3281  0.3921  0.0737
23483SOL    HW171890   0.981   4.977   4.596  0.6840  0.6102 -1.4206
23483SOL    HW271891   0.919   4.852   4.655 -0.3169  1.8427  0.2399
23484SOL     OW71892   6.464   4.343   4.539  0.0577  0.2633 -0.1222
23484SOL    HW171893   6.488   4.254   4.565 -2.0834  0.0372  1.3842
23484SOL    HW271894   6.527   4.366   4.472  1.3067 -2.0106  0.1555
23485SOL     OW71895   4.501   5.139   8.296 -0.1510  0.2398  0.0742
23485SOL    HW171896   4.475   5.231   8.304  2.2102  0.7998  2.9085
23485SOL    HW271897   4.427   5.090   8.332 -0.0902  1.3324  1.8076
23486SOL     OW71898   0.332   0.684   4.586 -0.1167 -0.3663  0.0313
23486SOL    HW171899   0.238   0.705   4.578 -0.7456 -2.7778  0.4456
23486SOL    HW271900   0.341   0.644   4.672  1.6777  1.3452  0.7232
23487SOL     OW71901   4.273   3.566   1.499 -0.2842  0.0258  0.1700
23487SOL    HW171902   4.219   3.591   1.425  0.4505  1.9599  0.2019
23487SOL    HW271903   4.348   3.520   1.461 -0.1311  0.6228 -0.2637
23488SOL     OW71904   3.996   1.542   0.328  0.3177  0.3491 -0.0218
23488SOL    HW171905   3.928   1.602   0.299  0.3221 -0.9283 -3.0381
23488SOL    HW271906   4.070   1.598   0.352 -0.1779  1.6158 -1.3418
23489SOL     OW71907   1.127   5.007   2.089  0.0599  0.1485 -0.3121
23489SOL    HW171908   1.141   5.096   2.120 -0.2458  0.0949 -0.0049
23489SOL    HW271909   1.038   4.986   2.118  0.1653 -0.2892 -0.2985
23490SOL     OW71910   3.833   6.133   5.366  0.1328  0.1654 -0.1417
23490SOL    HW171911   3.841   6.229   5.368  0.1834  0.1566  0.0668
23490SOL    HW271912   3.902   6.102   5.424  0.0072  0.0066 -0.0782
23491SOL     OW71913   3.709   0.049   3.875 -0.0990 -0.6281  0.1430
23491SOL    HW171914   3.803   0.048   3.853 -0.1352  0.1305 -0.0622
23491SOL    HW271915   3.706   0.083   3.964 -0.3275  1.8099 -0.7298
23492SOL     OW71916   1.601   7.209   7.008 -0.6262  0.0932 -0.2705
23492SOL    HW171917   1.614   7.191   6.915 -1.5850  0.8138 -0.5564
23492SOL    HW271918   1.687   7.195   7.048  0.2896  1.6707 -1.5684
23493SOL     OW71919   0.890   4.872   7.208 -0.6186 -0.1904 -0.1636
23493SOL    HW171920   0.868   4.798   7.152 -3.4796  1.1968 -1.1068
23493SOL    HW271921   0.836   4.860   7.286 -0.0091  0.1670  0.3209
23494SOL     OW71922   4.898   1.733   4.022  0.0979 -0.2791 -0.2883
23494SOL    HW171923   4.943   1.815   4.003  0.2860 -0.0702  0.9685
23494SOL    HW271924   4.841   1.754   4.097 -0.7091 -1.0041 -0.6791
23495SOL     OW71925   1.084   4.473  11.003 -0.4723 -0.2231 -0.0105
23495SOL    HW171926   0.994   4.447  11.020 -0.6921  0.2453 -0.4395
23495SOL    HW271927   1.133   4.391  10.998 -0.7125 -0.4529  1.1025
23496SOL     OW71928   6.888   0.716  11.822 -0.4578  0.3173  0.3345
23496SOL    HW171929   6.974   0.759  11.823 -0.0692 -0.4461  1.2491
23496SOL    HW271930   6.907   0.625  11.802 -1.4315  0.7702 -3.3584
23497SOL     OW71931   3.673   7.449   9.266  0.4663  0.7939  0.4677
23497SOL    HW171932   3.736   7.380   9.246  0.6393  0.5125  1.9152
23497SOL    HW271933   3.588   7.404   9.267  0.6936  0.3535  2.4882
23498SOL     OW71934   3.025   1.491  10.878 -0.3287  0.4302  0.1846
23498SOL    HW171935   2.937   1.485  10.841 -0.2744  0.9903 -0.0456
23498SOL    HW271936   3.074   1.544  10.815  0.3788 -0.4872 -0.0644
23499SOL     OW71937   7.595   0.056   1.023  0.1061 -0.2357 -0.8003
23499SOL    HW171938   7.638   0.133   0.986  1.3267 -1.2115 -1.4836
23499SOL    HW271939   7.552   0.089   1.102 -0.0115  1.2790 -1.4496
23500SOL     OW71940   3.980   0.471   8.137 -0.1364  0.2589  0.3336
23500SOL    HW171941   3.934   0.464   8.053 -0.0087 -2.4463  0.4018
23500SOL    HW271942   3.911   0.477   8.202 -0.2586  1.1547  0.1312
23501SOL     OW71943   4.528   5.115   2.675 -0.3260  0.5822 -0.4890
23501SOL    HW171944   4.484   5.045   2.724 -0.3386  0.3519 -0.8265
23501SOL    HW271945   4.615   5.079   2.655  0.4747  1.4726  1.1856
23502SOL     OW71946   2.739   7.156  11.648 -0.1213  0.2445  0.2395
23502SOL    HW171947   2.680   7.089  11.684 -1.0779  1.2682  0.6291
23502SOL    HW271948   2.786   7.190  11.724  0.3023  0.0877  0.0519
23503SOL     OW71949   0.672   0.802   5.723  0.2946 -0.5853 -0.6843
23503SOL    HW171950   0.616   0.869   5.682 -0.1850 -0.0279  0.8210
23503SOL    HW271951   0.761   0.825   5.695  0.1538  0.7671 -0.1152
23504SOL     OW71952   1.388   1.886   0.281 -0.6294 -0.2005  0.2651
23504SOL    HW171953   1.317   1.865   0.341 -0.5992 -2.2579 -0.3403
23504SOL    HW271954   1.442   1.807   0.279  0.9194  0.8284 -0.3351
23505SOL     OW71955   7.029   5.168   4.324  0.0783 -0.8452  0.0772
23505SOL    HW171956   7.037   5.260   4.348 -2.1662 -0.4550 -0.3892
23505SOL    HW271957   7.012   5.170   4.229  1.3055 -1.8440 -0.1852
23506SOL     OW71958   2.324   5.391   5.165 -0.1878  0.6147 -0.4737
23506SOL    HW171959   2.305   5.348   5.248  0.7083  0.4886 -0.3282
23506SOL    HW271960   2.362   5.475   5.189 -0.0798  0.6486 -0.7520
23507SOL     OW71961   2.038   1.656   3.954 -0.1970 -0.0999 -0.2959
23507SOL    HW171962   1.976   1.671   3.883  1.5217 -1.6699 -2.2584
23507SOL    HW271963   1.984   1.623   4.026 -1.7591 -0.5957 -1.6243
23508SOL     OW71964   4.484   2.069   9.812 -0.0639  0.2110  0.0627
23508SOL    HW171965   4.468   2.097   9.902  1.0025 -2.4920  1.1996
23508SOL    HW271966   4.578   2.048   9.809 -0.5332 -2.0349 -0.9335
23509SOL     OW71967   5.011   2.146   0.958  0.1835  0.3140  0.1456
23509SOL    HW171968   5.054   2.111   0.879 -1.6126 -0.4439 -0.5487
23509SOL    HW271969   4.981   2.069   1.005 -0.0621  0.8150  0.8262
23510SOL     OW71970   0.647   5.324  11.996 -0.1342  0.7490 -0.3950
23510SOL    HW171971   0.667   5.417  11.983 -2.2934  1.1798 -1.1250
23510SOL    HW271972   0.628   5.291  11.908  3.7812 -1.3034 -0.6562
23511SOL     OW71973   2.143   7.889  11.099  0.3096  0.2775  0.0438
23511SOL    HW171974   2.172   7.973  11.134 -0.7855 -0.0025  1.7520
23511SOL    HW271975   2.063   7.909  11.051  0.8543  0.4063 -0.8267
23512SOL     OW71976   1.388   7.848   1.615 -0.1065  0.1940  0.5739
23512SOL    HW171977   1.343   7.882   1.693 -0.6385  1.7236 -0.3408
23512SOL    HW271978   1.472   7.894   1.614 -0.1327  0.2364  0.2221
23513SOL     OW71979   4.723   5.125   0.952  0.4778  0.0110 -0.0994
23513SOL    HW171980   4.627   5.117   0.947  0.1758  2.2074  0.7549
23513SOL    HW271981   4.744   5.103   1.042  0.6026  0.6844  0.0430
23514SOL     OW71982   7.844   0.948  10.409  0.6062 -0.1600  0.1939
23514SOL    HW171983   7.906   0.898  10.356  1.4612 -0.3108  1.3015
23514SOL    HW271984   7.892   0.967  10.490 -0.9930 -0.8516  1.3633
23515SOL     OW71985   3.295   3.047   7.793  0.0194 -0.1800 -0.1259
23515SOL    HW171986   3.291   3.081   7.882  0.0038 -0.3806 -0.0502
23515SOL    HW271987   3.304   2.953   7.803  0.4624 -0.1634 -0.3308
23516SOL     OW71988   6.769   5.927  10.791 -0.5819 -0.3253  0.3855
23516SOL    HW171989   6.715   5.952  10.716 -1.6548 -0.2243  1.1648
23516SOL    HW271990   6.742   5.987  10.861  1.3258  0.4665  0.5207
23517SOL     OW71991   7.656   4.661  10.392  0.1278  0.3282  0.0639
23517SOL    HW171992   7.701   4.744  10.410 -0.2157  0.8562 -1.3711
23517SOL    HW271993   7.563   4.682  10.406  0.1902 -0.4912  2.0463
23518SOL     OW71994   5.724   3.199  12.211 -0.1826  0.2808  0.4736
23518SOL    HW171995   5.663   3.244  12.152  0.8016 -0.7452 -1.3801
23518SOL    HW271996   5.667   3.147  12.268 -1.1020 -0.5485 -1.1274
23519SOL     OW71997   7.911   6.305   9.162  0.5194  0.0642 -0.2005
23519SOL    HW171998   8.006   6.314   9.156  0.6682 -1.6338 -0.6977
23519SOL    HW271999   7.890   6.228   9.110 -1.0188 -0.2642  0.8369
23520SOL     OW72000   2.019   4.880   5.177  0.1518 -0.0466  0.0368
23520SOL    HW172001   1.946   4.934   5.207  0.6087  0.6996 -0.1851
23520SOL    HW272002   1.978   4.797   5.153 -0.4404 -0.1068  1.1700
23521SOL     OW72003   6.321   2.940   6.595  0.3336 -0.3761 -0.3904
23521SOL    HW172004   6.287   2.853   6.614  1.2880 -0.6243  0.2376
23521SOL    HW272005   6.354   2.972   6.679 -0.0454  0.6108 -0.6015
23522SOL     OW72006   7.924   6.262   5.570 -0.4220 -0.2057 -0.2611
23522SOL    HW172007   7.864   6.194   5.601 -2.0872  1.0266 -0.6587
23522SOL    HW272008   7.989   6.215   5.517 -0.3075 -1.7202  1.1451
23523SOL     OW72009   2.780   7.329   4.732 -0.4157  0.5058  0.4223
23523SOL    HW172010   2.726   7.346   4.655 -0.1733  0.0262  0.1424
23523SOL    HW272011   2.720   7.343   4.806 -0.6237  1.0546  0.1534
23524SOL     OW72012   1.449   6.529   0.588 -0.0126  0.3501  0.5757
23524SOL    HW172013   1.522   6.470   0.573 -0.8968 -0.4899 -0.6064
23524SOL    HW272014   1.473   6.610   0.542  0.4256  0.2952  0.7069
23525SOL     OW72015   0.411   7.912   9.470  0.5847  0.3839  0.4892
23525SOL    HW172016   0.424   7.990   9.417  1.6501 -0.4847 -0.5863
23525SOL    HW272017   0.499   7.875   9.481 -0.0524 -1.5852 -0.5225
23526SOL     OW72018   3.486   3.825   9.627 -0.0923  0.4241  0.1696
23526SOL    HW172019   3.407   3.853   9.673 -1.2366  0.8327 -1.8834
23526SOL    HW272020   3.495   3.732   9.647 -1.6554  0.1487 -0.2560
23527SOL     OW72021   6.849   6.621   7.830  0.0904 -0.1011  0.3515
23527SOL    HW172022   6.899   6.593   7.753 -0.6747  2.8286 -1.4028
23527SOL    HW272023   6.840   6.716   7.819 -3.4174 -0.0711  1.9913
23528SOL     OW72024   6.882   3.166   7.940  0.5492 -0.5333 -0.4078
23528SOL    HW172025   6.831   3.179   8.020  1.3673  2.3623 -0.2365
23528SOL    HW272026   6.965   3.131   7.971  1.3895  1.8815  0.2836
23529SOL     OW72027   5.161   5.287   3.175 -0.0980 -0.3488  0.5505
23529SOL    HW172028   5.150   5.276   3.080 -2.9214  2.8074  0.2998
23529SOL    HW272029   5.087   5.240   3.213 -0.0047 -0.0930  1.0511
23530SOL     OW72030   1.678   4.574  10.186 -0.1345 -0.1886 -0.2452
23530SOL    HW172031   1.660   4.654  10.237 -0.4340 -0.7776  0.5968
23530SOL    HW272032   1.773   4.568  10.184 -0.0580  0.9281 -1.5082
23531SOL     OW72033   4.797   0.232   9.611 -0.2023  0.2312  0.2140
23531SOL    HW172034   4.758   0.218   9.698 -1.1501 -0.6433 -0.3355
23531SOL    HW272035   4.750   0.172   9.554  0.5763  0.6345 -0.8731
23532SOL     OW72036   7.365   4.953   8.732  0.3170  0.3168  0.1761
23532SOL    HW172037   7.347   5.015   8.662 -0.1770 -1.9232 -1.8185
23532SOL    HW272038   7.294   4.889   8.727  2.0652 -1.7799  0.4615
23533SOL     OW72039   3.213   4.600  10.416  0.3831  0.2643  0.3246
23533SOL    HW172040   3.168   4.633  10.494  1.1439 -0.7666  1.2508
23533SOL    HW272041   3.293   4.559  10.451  0.0189 -1.5447 -0.8381
23534SOL     OW72042   2.433   1.272   3.315 -0.0135  0.0039  0.0316
23534SOL    HW172043   2.508   1.232   3.272  0.3619  2.3764 -1.7740
23534SOL    HW272044   2.361   1.263   3.252 -0.6340 -0.2488  0.7661
23535SOL     OW72045   7.071   6.142   3.286  0.2652 -0.2627 -0.1207
23535SOL    HW172046   6.996   6.151   3.345  1.9408  1.4357  1.9634
23535SOL    HW272047   7.122   6.070   3.324 -0.6029 -1.9320 -1.9717
23536SOL     OW72048   3.752   7.263   2.512 -0.1500  0.6028 -0.8823
23536SOL    HW172049   3.717   7.173   2.512 -0.8302  0.8177  1.0166
23536SOL    HW272050   3.761   7.284   2.605  0.0654  2.4861 -1.3052
23537SOL     OW72051   6.173   6.576   8.225 -0.4489  0.0553  0.8549
23537SOL    HW172052   6.267   6.566   8.214 -0.5426 -0.4603  0.4342
23537SOL    HW272053   6.148   6.643   8.161 -0.2659  0.7332  1.4836
23538SOL     OW72054   7.096   2.910   5.961  0.3744  0.4594 -0.0818
23538SOL    HW172055   7.159   2.870   5.900 -0.5216 -1.2123  0.0482
23538SOL    HW272056   7.026   2.846   5.969 -0.0618  1.1201  1.8838
23539SOL     OW72057   5.670   7.893  11.640  0.2529  0.0230 -0.2379
23539SOL    HW172058   5.750   7.942  11.662 -0.1580  1.5712 -1.9533
23539SOL    HW272059   5.702   7.807  11.613  1.0580 -0.4958  2.1600
23540SOL     OW72060   0.214   3.823   1.585  0.0433 -0.1287  0.1432
23540SOL    HW172061   0.215   3.910   1.625 -1.2952  0.0428 -0.1365
23540SOL    HW272062   0.299   3.815   1.543  0.8780  0.3300  1.6443
23541SOL     OW72063   4.772   1.698   6.777 -0.3921 -0.1517  0.0842
23541SOL    HW172064   4.741   1.765   6.839 -0.8151 -0.6617  0.4329
23541SOL    HW272065   4.847   1.738   6.734 -1.1309  0.8688 -0.2963
23542SOL     OW72066   4.534   7.067   5.258  0.2990  0.2153  0.4046
23542SOL    HW172067   4.572   7.155   5.262  1.0615 -0.0501 -0.7031
23542SOL    HW272068   4.441   7.080   5.277  0.3585  1.2927 -0.0136
23543SOL     OW72069   6.001   0.272   9.427  0.0329  0.1306  0.3056
23543SOL    HW172070   5.927   0.279   9.488 -0.2155 -1.9082  0.3112
23543SOL    HW272071   5.962   0.239   9.346  0.4852  2.0630 -0.7332
23544SOL     OW72072   3.459   0.849   2.017  0.1773  0.2735  0.0884
23544SOL    HW172073   3.515   0.787   1.969  0.7294  0.7855  0.0595
23544SOL    HW272074   3.372   0.838   1.979 -0.2798 -2.1276  1.5868
23545SOL     OW72075   1.884   4.693  11.833 -0.0255 -0.1968 -0.7372
23545SOL    HW172076   1.927   4.623  11.882 -0.0829  0.0041 -0.3974
23545SOL    HW272077   1.956   4.753  11.811 -0.0037 -0.2740 -0.8796
23546SOL     OW72078   3.475   2.881   0.477  0.6752  0.5201  0.4488
23546SOL    HW172079   3.483   2.802   0.424 -0.2476  1.1935 -0.7464
23546SOL    HW272080   3.480   2.953   0.414 -0.4810  1.3510  1.2703
23547SOL     OW72081   0.686   5.054   2.228 -0.2860  0.0548 -0.4371
23547SOL    HW172082   0.705   5.025   2.317 -0.7348  1.3183  0.1090
23547SOL    HW272083   0.740   5.133   2.217  0.2676 -0.4600 -1.5380
23548SOL     OW72084   2.690   4.429   2.294 -0.3570 -0.1873  0.4209
23548SOL    HW172085   2.779   4.435   2.327  0.0171  0.8240 -0.6864
23548SOL    HW272086   2.673   4.335   2.285  1.1063 -0.3807 -0.6303
23549SOL     OW72087   7.130   5.514  11.030  0.1102  0.5155 -0.0659
23549SOL    HW172088   7.116   5.595  11.079 -1.3040  0.1505  0.1926
23549SOL    HW272089   7.206   5.531  10.975 -0.7974  2.4183 -0.8322
23550SOL     OW72090   7.025   5.343   9.872  0.0066 -0.4984 -0.8475
23550SOL    HW172091   6.960   5.274   9.881 -0.1567 -0.4729 -1.7987
23550SOL    HW272092   7.109   5.301   9.894 -0.4974 -0.0172  2.6656
23551SOL     OW72093   5.910   4.806   4.064 -0.3689  0.0809  0.3896
23551SOL    HW172094   5.999   4.771   4.070 -0.0371  0.4857 -1.3989
23551SOL    HW272095   5.854   4.729   4.070  0.0766 -0.1710  1.6242
23552SOL     OW72096   1.024   0.565   4.303 -0.6431 -0.6709  0.1290
23552SOL    HW172097   0.935   0.599   4.292 -0.3508 -0.0005 -0.1721
23552SOL    HW272098   1.019   0.512   4.383 -0.7096  1.5270  1.6772
23553SOL     OW72099   2.836   1.993   6.108 -0.3259  0.3820  0.2540
23553SOL    HW172100   2.811   1.923   6.169  1.2144  1.3929  2.1432
23553SOL    HW272101   2.771   2.062   6.123 -0.7311  0.1236 -0.2551
23554SOL     OW72102   3.780   5.750   2.735  0.2244  0.0116  0.4014
23554SOL    HW172103   3.731   5.763   2.816 -0.0131  0.9905  0.1061
23554SOL    HW272104   3.871   5.761   2.760  0.0917  1.4065  0.3432
23555SOL     OW72105   1.442   2.428   9.427  0.4594  0.1273  0.2169
23555SOL    HW172106   1.464   2.482   9.503 -0.8364 -0.6207  1.1648
23555SOL    HW272107   1.405   2.348   9.465 -0.1377 -0.2989 -1.2141
23556SOL     OW72108   2.720   7.735   5.856  0.6538  0.0976  0.1467
23556SOL    HW172109   2.792   7.729   5.918 -0.9500 -0.8373  2.0472
23556SOL    HW272110   2.644   7.757   5.910 -0.8601 -0.9218 -1.4579
23557SOL     OW72111   1.300   7.151   8.333 -0.2117  0.1351 -0.1425
23557SOL    HW172112   1.342   7.076   8.291  1.1752  0.7962 -0.0101
23557SOL    HW272113   1.366   7.221   8.327 -1.0816  1.0459  0.6267
23558SOL     OW72114   5.125   0.271   8.038  0.4953 -0.5353  0.2282
23558SOL    HW172115   5.097   0.198   8.094  1.5283 -0.3188  1.0805
23558SOL    HW272116   5.188   0.319   8.092  0.5880  0.4129 -0.6896
23559SOL     OW72117   7.362   1.551   0.531  0.0662  0.4481 -0.3984
23559SOL    HW172118   7.446   1.585   0.502 -0.5667  0.7010 -2.0926
23559SOL    HW272119   7.328   1.503   0.455 -1.4097  0.5567  0.1476
23560SOL     OW72120   3.771   0.258   1.141 -0.4110  0.2478  0.4114
23560SOL    HW172121   3.845   0.225   1.089 -2.4529 -1.8633 -1.4281
23560SOL    HW272122   3.722   0.314   1.080 -2.1151 -1.1559  0.3915
23561SOL     OW72123   0.453   4.427   8.947 -0.0850  0.3477 -0.4899
23561SOL    HW172124   0.546   4.423   8.968 -0.2473 -0.9444  0.0327
23561SOL    HW272125   0.410   4.438   9.032 -0.5440 -1.6409 -0.4159
23562SOL     OW72126   5.099   4.214   7.050  0.5401  0.0170 -0.6596
23562SOL    HW172127   5.162   4.143   7.038  1.4066  0.0933  2.6033
23562SOL    HW272128   5.096   4.257   6.965  2.1261 -2.1895 -1.9398
23563SOL     OW72129   5.516   2.133  11.375  0.3000  0.4385 -0.4934
23563SOL    HW172130   5.535   2.221  11.409 -0.8916  0.6138 -0.2344
23563SOL    HW272131   5.488   2.083  11.452  2.2713 -0.5951 -0.3823
23564SOL     OW72132   1.465   6.573   5.816  0.3288  0.5435 -0.0731
23564SOL    HW172133   1.437   6.503   5.758  1.5138  0.1083 -0.1496
23564SOL    HW272134   1.384   6.609   5.851 -0.3634  0.1614 -1.2269
23565SOL     OW72135   2.687   4.557  11.535 -0.4242 -0.4709 -0.1385
23565SOL    HW172136   2.693   4.636  11.482 -2.2497  0.3327  0.7480
23565SOL    HW272137   2.709   4.586  11.624 -0.9524 -0.9763  0.1654
23566SOL     OW72138   4.347   0.943   1.888  0.6569 -0.1406 -0.4622
23566SOL    HW172139   4.377   0.966   1.801 -0.5961 -0.3008 -0.9638
23566SOL    HW272140   4.255   0.917   1.876  0.9876 -2.0003  0.5957
23567SOL     OW72141   1.085   1.250   5.439 -0.1258  0.3061 -0.4786
23567SOL    HW172142   1.167   1.270   5.484 -0.9160 -0.2736  1.3283
23567SOL    HW272143   1.110   1.186   5.372  0.7735 -0.5368  0.6212
23568SOL     OW72144   4.319   6.635   6.073 -0.5901 -0.5638 -0.2324
23568SOL    HW172145   4.362   6.690   6.007  2.5694  0.7942  2.6429
23568SOL    HW272146   4.365   6.551   6.067  1.3734  0.2759  1.5396
23569SOL     OW72147   0.923   2.602   0.349  0.1692 -0.4474  0.6838
23569SOL    HW172148   0.899   2.633   0.262  0.6786  1.6768  1.2495
23569SOL    HW272149   0.956   2.513   0.335 -0.4026 -0.3951 -1.1820
23570SOL     OW72150   3.503   0.845   7.519 -0.8862 -0.4196 -0.7055
23570SOL    HW172151   3.487   0.768   7.574 -1.3027  0.4443  0.4299
23570SOL    HW272152   3.417   0.868   7.484 -0.6214 -0.9714 -1.7737
23571SOL     OW72153   7.753   1.884   5.433  0.2832  0.7078  0.5637
23571SOL    HW172154   7.809   1.905   5.508 -1.3779  0.3415  1.9506
23571SOL    HW272155   7.678   1.942   5.441 -0.6721 -0.4156  0.0902
23572SOL     OW72156   7.886   1.253  10.755  0.1886  0.1939 -0.2664
23572SOL    HW172157   7.904   1.250  10.661 -0.0435  0.5246 -0.3207
23572SOL    HW272158   7.856   1.164  10.776  0.3151  0.0980 -0.4868
23573SOL     OW72159   0.750   5.053   4.373  0.3678 -0.0423 -0.2690
23573SOL    HW172160   0.820   5.041   4.437  0.8334  0.1900 -0.7284
23573SOL    HW272161   0.696   5.123   4.410  1.0607  0.6176 -0.4796
23574SOL     OW72162   3.581   4.248   0.918  0.1966 -0.2927  0.0674
23574SOL    HW172163   3.512   4.245   0.852  0.9798  0.0135 -0.7839
23574SOL    HW272164   3.653   4.197   0.880 -0.0783 -1.8856  1.5760
23575SOL     OW72165   3.576   4.781  11.050 -0.1159  0.1252  0.1696
23575SOL    HW172166   3.633   4.858  11.043  1.1574 -0.8324 -0.5157
23575SOL    HW272167   3.588   4.751  11.140  1.1995 -0.5796 -0.2133
23576SOL     OW72168   3.333   1.897   5.184  0.3781 -0.3112 -0.2895
23576SOL    HW172169   3.381   1.965   5.232 -0.0924 -0.5334  0.5032
23576SOL    HW272170   3.385   1.817   5.198 -0.2178 -0.5555  0.5834
23577SOL     OW72171   7.793   4.428   4.672 -0.2890  0.1303 -0.2443
23577SOL    HW172172   7.807   4.396   4.583 -0.9227 -0.8230 -0.0104
23577SOL    HW272173   7.700   4.447   4.677 -0.1871  0.5806  0.0969
23578SOL     OW72174   3.808   0.430  11.218 -0.1743  0.3151 -0.4762
23578SOL    HW172175   3.843   0.461  11.135  0.9154  0.5188  0.0429
23578SOL    HW272176   3.785   0.338  11.201  0.2601  0.2872 -0.9470
23579SOL     OW72177   2.408   5.210   4.694 -0.2754  0.1746 -0.4890
23579SOL    HW172178   2.386   5.234   4.604  0.4805  1.3891 -0.3669
23579SOL    HW272179   2.383   5.286   4.747  1.3355  0.3853  0.0254
23580SOL     OW72180   5.554   1.487   8.913 -0.7268  0.2557  0.3800
23580SOL    HW172181   5.486   1.534   8.866 -0.6072  0.3995  0.3501
23580SOL    HW272182   5.570   1.408   8.860 -0.2986  0.6182 -0.0484
23581SOL     OW72183   7.132   3.998  12.469  0.1730  0.3380  0.1368
23581SOL    HW172184   7.127   3.988  12.374 -1.2653 -1.8564  0.3941
23581SOL    HW272185   7.168   3.916  12.501  0.0735  0.8087  1.5547
23582SOL     OW72186   6.793   6.365  11.184  0.6065  0.4499 -0.1533
23582SOL    HW172187   6.748   6.361  11.099 -2.5526 -0.7420  1.3942
23582SOL    HW272188   6.756   6.441  11.228 -0.1718 -0.6778  1.2576
23583SOL     OW72189   1.173   2.572   2.346  0.3950  0.1280  0.2947
23583SOL    HW172190   1.230   2.574   2.423  0.6571  0.6063  0.0919
23583SOL    HW272191   1.147   2.481   2.338 -0.1598  0.1698  1.3439
23584SOL     OW72192   3.682   3.246   7.631  0.2087  0.2390  0.0981
23584SOL    HW172193   3.685   3.221   7.723  0.2713 -1.7291 -0.4035
23584SOL    HW272194   3.716   3.336   7.630  1.3217 -0.1073  1.8378
23585SOL     OW72195   4.326   3.331   2.017 -0.2896  0.9779 -0.4765
23585SOL    HW172196   4.388   3.404   2.018 -0.1455  0.8560 -0.4367
23585SOL    HW272197   4.309   3.312   2.109  1.2167 -0.3338 -0.4287
23586SOL     OW72198   0.091   6.526   6.402 -0.1296  0.3556 -0.1858
23586SOL    HW172199   0.034   6.451   6.419 -0.4402  0.6611  0.1413
23586SOL    HW272200   0.177   6.499   6.435 -0.5614  0.6687  1.2784
23587SOL     OW72201   1.270   2.245   0.638 -0.6740  0.4673  0.4634
23587SOL    HW172202   1.345   2.303   0.630  0.2013 -0.7761 -0.8903
23587SOL    HW272203   1.298   2.163   0.596 -3.2874  0.4489 -1.4987
23588SOL     OW72204   7.811   4.510   3.396 -0.4114  0.4020 -0.2220
23588SOL    HW172205   7.727   4.519   3.441 -0.1531 -0.6191  0.5009
23588SOL    HW272206   7.802   4.431   3.344  0.5722 -0.5413  0.9775
23589SOL     OW72207   7.150   3.346  11.177  0.3212  0.3960 -0.1612
23589SOL    HW172208   7.211   3.342  11.250  0.2374 -0.1504 -0.1155
23589SOL    HW272209   7.202   3.320  11.101  0.2014  0.1438 -0.1573
23590SOL     OW72210   2.862   2.887   0.690 -0.6131 -0.7041  0.0196
23590SOL    HW172211   2.770   2.911   0.679  0.3275  2.9793 -1.2424
23590SOL    HW272212   2.888   2.854   0.603 -0.4173 -0.3503 -0.0587
23591SOL     OW72213   3.809   7.425   0.026  0.3573 -0.1331  0.2288
23591SOL    HW172214   3.776   7.501   0.073  1.5871 -0.3672  1.5514
23591SOL    HW272215   3.876   7.460  -0.033  0.6653 -0.1274  0.5742
23592SOL     OW72216   2.336   7.111   6.682  0.2286 -0.0726  1.0701
23592SOL    HW172217   2.380   7.026   6.678 -1.9250 -1.3702  2.6037
23592SOL    HW272218   2.384   7.166   6.620  1.4648 -2.5035 -0.2843
23593SOL     OW72219   5.537   3.012   9.609 -0.4348  0.2115  0.2885
23593SOL    HW172220   5.598   2.957   9.560 -1.3101  0.6972 -1.4457
23593SOL    HW272221   5.592   3.077   9.653  0.3378  0.6500 -1.2388
23594SOL     OW72222   0.407   5.541   3.086 -0.2152 -0.0305 -0.1580
23594SOL    HW172223   0.347   5.568   3.155 -0.2577  0.3450 -0.3348
23594SOL    HW272224   0.443   5.457   3.115  0.7805  0.7500  0.9506
23595SOL     OW72225   0.613   6.028   0.368 -0.3306  0.5094 -0.5043
23595SOL    HW172226   0.534   6.084   0.366  0.1413  1.1879 -0.6152
23595SOL    HW272227   0.579   5.939   0.378 -1.0787  0.8791  0.4482
23596SOL     OW72228   6.433   7.499  12.210 -0.2616  0.4585  0.1449
23596SOL    HW172229   6.390   7.555  12.145  0.1211 -1.5741 -1.9465
23596SOL    HW272230   6.519   7.481  12.173  0.4476  0.2120  1.8257
23597SOL     OW72231   4.636   2.360   1.853 -0.1520 -0.4387 -0.0013
23597SOL    HW172232   4.586   2.323   1.780  0.8708 -1.3785 -0.2470
23597SOL    HW272233   4.605   2.311   1.929 -1.7800  1.0653  0.3695
23598SOL     OW72234   7.711   0.712  12.180  0.3573  0.5000  0.0610
23598SOL    HW172235   7.688   0.804  12.191  0.3185  0.5380 -0.3221
23598SOL    HW272236   7.685   0.691  12.090  0.0777  0.0301  0.2480
23599SOL     OW72237   5.359   2.664   8.765 -0.2462 -0.2078 -0.5045
23599SOL    HW172238   5.349   2.759   8.771  0.8207 -0.1837  1.3459
23599SOL    HW272239   5.270   2.631   8.752 -0.6804  0.9892 -0.6616
23600SOL     OW72240   5.095   1.293   2.994  0.0913  0.2568  0.4591
23600SOL    HW172241   5.130   1.370   2.948  2.2108 -0.3772  0.9064
23600SOL    HW272242   5.168   1.231   2.996 -1.6184 -1.8975 -0.0619
23601SOL     OW72243   0.322   5.648   0.817 -0.2100  0.1361 -0.2806
23601SOL    HW172244   0.299   5.564   0.856 -0.7017  0.8953  1.1194
23601SOL    HW272245   0.263   5.657   0.742 -0.2692 -0.6710 -0.3373
23602SOL     OW72246   6.850   5.448   8.492 -0.1434 -0.0650  0.1615
23602SOL    HW172247   6.863   5.455   8.587  0.3794  0.4933  0.0515
23602SOL    HW272248   6.937   5.459   8.455 -0.5873  1.6089 -0.4734
23603SOL     OW72249   4.723   2.566  12.363  0.4796 -0.0171 -0.1904
23603SOL    HW172250   4.756   2.627  12.429 -1.3224  0.9767 -0.1355
23603SOL    HW272251   4.669   2.504  12.412 -0.0905  0.1469 -0.5977
23604SOL     OW72252   3.410   1.111   5.007  0.4229 -0.3684 -0.8982
23604SOL    HW172253   3.471   1.092   4.935  0.5697  0.6675 -1.0660
23604SOL    HW272254   3.362   1.188   4.977 -0.7471 -0.9789 -0.6206
23605SOL     OW72255   2.936   2.951   6.881 -0.1421 -0.2807  0.2747
23605SOL    HW172256   2.968   2.862   6.897 -1.2381 -0.2897  2.9153
23605SOL    HW272257   3.015   3.003   6.867  0.5247 -1.5718 -0.9953
23606SOL     OW72258   3.508   4.387  11.706  0.1285  0.4139 -0.3578
23606SOL    HW172259   3.493   4.344  11.621  2.2509  0.0181 -0.5794
23606SOL    HW272260   3.421   4.419  11.732 -1.0902 -1.8038 -1.3831
23607SOL     OW72261   0.513   6.269  10.526 -0.0058  0.0881  0.6578
23607SOL    HW172262   0.497   6.326  10.451  0.2677 -0.4231  0.2049
23607SOL    HW272263   0.530   6.183  10.487  1.1217  0.0279  1.2542
23608SOL     OW72264   3.410   3.581   6.072  0.2399  0.0150  0.2042
23608SOL    HW172265   3.494   3.628   6.082  0.1740 -0.2533  2.5650
23608SOL    HW272266   3.375   3.576   6.161 -2.8667  1.1073 -0.8344
23609SOL     OW72267   4.341   4.859   2.346  0.5703  0.1333  0.6084
23609SOL    HW172268   4.397   4.794   2.390  1.5653  0.0523 -0.6932
23609SOL    HW272269   4.275   4.882   2.411  0.6669 -1.5920  1.3917
23610SOL     OW72270   4.489   1.909  11.667 -0.6217  0.6470  0.1044
23610SOL    HW172271   4.556   1.972  11.639  0.3933 -1.7375 -3.5133
23610SOL    HW272272   4.539   1.833  11.697 -1.7904  0.3428  1.3491
23611SOL     OW72273   7.312   1.018   5.103 -0.2232 -0.1637 -0.4433
23611SOL    HW172274   7.388   1.063   5.139  0.0003  1.0554 -2.3096
23611SOL    HW272275   7.258   0.996   5.179  0.5531  1.6497  0.6849
23612SOL     OW72276   4.105   0.001   0.842  0.2361  0.0410 -0.2882
23612SOL    HW172277   4.065  -0.069   0.791  0.3215  0.1145 -0.4571
23612SOL    HW272278   4.121   0.071   0.779 -0.0798  0.3109 -0.0708
23613SOL     OW72279   1.444   1.231   7.853  0.0068  0.1084  0.0586
23613SOL    HW172280   1.458   1.306   7.795  2.4096 -1.2436 -1.2536
23613SOL    HW272281   1.369   1.185   7.815 -1.3459  1.6616  0.7552
23614SOL     OW72282   6.344   7.907   4.830 -0.1777  0.2458  0.5664
23614SOL    HW172283   6.278   7.851   4.871  0.6527  0.8023  2.7822
23614SOL    HW272284   6.295   7.983   4.800 -0.6722  0.3240  1.5345
23615SOL     OW72285   2.488   0.348   6.719  0.4310  0.2287  0.1187
23615SOL    HW172286   2.410   0.319   6.767 -0.4068  1.5635 -0.3789
23615SOL    HW272287   2.561   0.320   6.773 -0.4265 -0.3110  1.0276
23616SOL     OW72288   2.434   6.151   1.812  0.0736  0.2551 -0.1435
23616SOL    HW172289   2.382   6.074   1.788  0.6668 -0.2833  0.2794
23616SOL    HW272290   2.524   6.119   1.815  0.4807  1.2393 -1.1354
23617SOL     OW72291   2.538   1.852   0.349  0.2378 -0.2056 -0.0287
23617SOL    HW172292   2.475   1.823   0.414  0.5562 -1.7777 -0.3788
23617SOL    HW272293   2.574   1.771   0.313  1.6627  0.6514 -0.6058
23618SOL     OW72294   1.001   0.208   5.031  0.4422  0.6718 -0.0933
23618SOL    HW172295   0.916   0.222   4.989  0.0268  0.0527  0.5139
23618SOL    HW272296   0.981   0.156   5.109  1.6159 -1.3134 -1.0365
23619SOL     OW72297   6.905   1.509   7.077 -0.1609 -0.1915  0.4655
23619SOL    HW172298   6.883   1.579   7.016  0.2118  0.9750  1.6488
23619SOL    HW272299   6.822   1.462   7.091 -0.4471  0.1087 -0.1905
23620SOL     OW72300   2.873   6.073   9.441  0.0484  0.2864  0.6319
23620SOL    HW172301   2.921   6.156   9.440 -0.6894  0.8314 -2.8447
23620SOL    HW272302   2.787   6.095   9.477  0.5014  0.5716  1.5610
23621SOL     OW72303   5.538   2.436   0.916 -0.0933 -0.4103  0.6625
23621SOL    HW172304   5.507   2.346   0.915 -0.8288 -0.1666  0.7563
23621SOL    HW272305   5.621   2.434   0.869 -0.4655 -1.0097  0.0152
23622SOL     OW72306   7.536   4.770  11.591 -0.0158  0.1674  0.3843
23622SOL    HW172307   7.577   4.686  11.569 -2.3315 -1.3574  1.4539
23622SOL    HW272308   7.484   4.791  11.513 -1.3241 -0.6944  0.9886
23623SOL     OW72309   7.949   1.685   4.338 -0.1179  0.1825  0.7027
23623SOL    HW172310   7.867   1.635   4.335  0.1002 -0.2010  1.1676
23623SOL    HW272311   7.976   1.682   4.429 -0.3756  1.6055  0.8539
23624SOL     OW72312   3.031   6.724   8.756 -0.0579  0.4217  0.2543
23624SOL    HW172313   3.010   6.631   8.754  0.0146  0.4125 -1.2463
23624SOL    HW272314   2.975   6.763   8.689  0.3084  1.3749  0.4797
23625SOL     OW72315   5.719   6.802   1.422  0.1430 -0.2317  0.3423
23625SOL    HW172316   5.675   6.877   1.461 -0.0250  0.0189 -0.3227
23625SOL    HW272317   5.790   6.840   1.370  0.8181 -0.6041  0.9812
23626SOL     OW72318   3.537   5.985   8.924  0.0594 -0.1134  0.0640
23626SOL    HW172319   3.443   6.000   8.920  0.2375  0.8989 -0.9680
23626SOL    HW272320   3.573   6.066   8.961  0.5364 -0.4228  0.2943
23627SOL     OW72321   5.993   6.427   6.742  0.4093  0.6181  0.4771
23627SOL    HW172322   5.981   6.347   6.793 -0.0313  0.2973 -0.1075
23627SOL    HW272323   5.964   6.403   6.654 -0.5914  1.6739  0.4966
23628SOL     OW72324   4.946   3.507   5.298 -0.6953 -0.2170 -0.0433
23628SOL    HW172325   4.969   3.561   5.373 -0.5419  0.5255 -0.6035
23628SOL    HW272326   4.972   3.419   5.322  0.3194  0.1821  0.3633
23629SOL     OW72327   6.142   2.137   6.773 -0.4035  0.1745 -0.6500
23629SOL    HW172328   6.068   2.112   6.718  0.6217  0.3829 -2.1911
23629SOL    HW272329   6.147   2.232   6.765 -0.1109  0.1823 -0.3932
23630SOL     OW72330   5.889   6.685   5.996 -0.2740  0.4566 -0.1196
23630SOL    HW172331   5.802   6.653   5.972  0.0460 -0.9983  0.5145
23630SOL    HW272332   5.880   6.713   6.087 -0.0973  0.3084 -0.0546
23631SOL     OW72333   2.062   0.330   9.544 -0.2071 -0.0243  0.2399
23631SOL    HW172334   2.106   0.411   9.521  0.8925 -0.8279 -0.5579
23631SOL    HW272335   2.075   0.322   9.639 -0.9755  1.0788  0.4646
23632SOL     OW72336   5.253   6.619   9.491 -0.0505  0.0825 -0.1712
23632SOL    HW172337   5.277   6.545   9.547 -0.1220  0.1627 -0.0334
23632SOL    HW272338   5.309   6.691   9.521 -0.6745  0.3552  0.3606
23633SOL     OW72339   7.035   3.377   2.904 -0.2561 -0.2496 -0.3699
23633SOL    HW172340   7.047   3.290   2.942  1.3032  0.9372  2.0647
23633SOL    HW272341   7.010   3.433   2.977 -1.8694  1.2751 -1.9925
23634SOL     OW72342   1.351   5.683   0.067 -0.0671  0.3826  0.2760
23634SOL    HW172343   1.293   5.615   0.032  0.9641  0.4699 -1.7124
23634SOL    HW272344   1.348   5.753   0.002  1.4244  0.8419  0.6607
23635SOL     OW72345   1.414   5.425   7.973  0.1652 -0.3421 -0.1130
23635SOL    HW172346   1.333   5.387   7.940 -0.0945  0.9837 -1.0544
23635SOL    HW272347   1.443   5.484   7.904  2.3684 -1.3501 -0.1497
23636SOL     OW72348   0.635   6.537   9.461 -0.0711 -0.2623 -0.0111
23636SOL    HW172349   0.627   6.630   9.441  0.3974  0.0019  0.9628
23636SOL    HW272350   0.578   6.523   9.536 -0.2293 -0.7904 -0.2240
23637SOL     OW72351   0.460   3.021   4.212 -0.4571 -0.7560 -0.3580
23637SOL    HW172352   0.507   2.962   4.154 -0.4175 -0.6674 -0.4159
23637SOL    HW272353   0.376   2.978   4.227  0.4951 -2.0787  1.6186
23638SOL     OW72354   1.475   0.735   2.505  0.8823  0.1952  0.0018
23638SOL    HW172355   1.504   0.648   2.534  0.8981 -0.0097 -0.6143
23638SOL    HW272356   1.517   0.747   2.420  2.2625  1.5261  0.8146
23639SOL     OW72357   2.491   5.244   6.973 -0.5637  0.3233 -0.4005
23639SOL    HW172358   2.462   5.325   7.016  1.4818  1.2384 -0.6388
23639SOL    HW272359   2.489   5.265   6.879 -0.1291  0.0573 -0.4686
23640SOL     OW72360   5.743   1.446  10.615 -0.4990 -0.3788  0.6111
23640SOL    HW172361   5.821   1.493  10.584 -0.1003 -0.6821  1.1557
23640SOL    HW272362   5.682   1.516  10.639 -0.8375 -0.1239 -0.8790
23641SOL     OW72363   2.757   7.678   0.558  0.0749  0.0297  0.1198
23641SOL    HW172364   2.802   7.762   0.543 -0.8427  0.4192 -0.5697
23641SOL    HW272365   2.819   7.626   0.609  1.7730  0.1315 -1.7268
23642SOL     OW72366   3.221   1.027   0.096  0.3380 -0.3722 -0.0593
23642SOL    HW172367   3.306   1.041   0.136 -0.1055  0.4468  0.6348
23642SOL    HW272368   3.200   1.110   0.053 -0.2770 -0.4310  0.1098
23643SOL     OW72369   3.565   2.293   3.240 -1.1336  0.0215  0.0492
23643SOL    HW172370   3.520   2.230   3.296  0.0587 -1.3595 -0.4688
23643SOL    HW272371   3.610   2.239   3.175 -2.1645  1.5506 -2.0509
23644SOL     OW72372   2.211   2.789   4.550  0.0696  0.0006 -0.0749
23644SOL    HW172373   2.237   2.736   4.625  0.3966 -0.1458 -0.2898
23644SOL    HW272374   2.293   2.825   4.516  0.1042 -1.1699 -1.2849
23645SOL     OW72375   1.249   7.134   7.367 -0.3295 -0.2551  0.1796
23645SOL    HW172376   1.304   7.190   7.422  1.5862 -1.1646 -0.6974
23645SOL    HW272377   1.277   7.154   7.277 -2.1739 -0.0445 -0.3914
23646SOL     OW72378   3.053   4.685   4.365  0.2870  0.6882  0.2322
23646SOL    HW172379   2.989   4.696   4.436  0.1027 -1.0834  0.3727
23646SOL    HW272380   3.066   4.774   4.331 -0.1220  1.4845  2.0391
23647SOL     OW72381   4.616   7.097   7.678  0.0884 -0.3945 -0.5132
23647SOL    HW172382   4.583   7.014   7.713  0.6271 -0.1943  0.5003
23647SOL    HW272383   4.704   7.105   7.715 -0.0543  0.7506 -0.3961
23648SOL     OW72384   1.407   4.318  12.096  0.7613  0.2927  0.1329
23648SOL    HW172385   1.472   4.254  12.067  2.1603  1.9258 -0.4673
23648SOL    HW272386   1.398   4.302  12.190  0.4606 -1.2929 -0.1415
23649SOL     OW72387   7.090   2.832   3.570 -0.3001  0.1022  0.0557
23649SOL    HW172388   6.998   2.810   3.583 -0.0860 -1.1447 -0.3991
23649SOL    HW272389   7.093   2.872   3.483 -0.1215 -1.9234 -0.9235
23650SOL     OW72390   5.668   0.308   5.326  0.3065 -0.0697 -0.0190
23650SOL    HW172391   5.668   0.247   5.253  0.5041 -0.4366  0.2859
23650SOL    HW272392   5.582   0.296   5.368  0.7188 -0.8460  0.6236
23651SOL     OW72393   0.841   3.974  11.920 -0.5575 -0.3571  0.1352
23651SOL    HW172394   0.837   4.063  11.884 -1.1800 -1.0241 -1.5508
23651SOL    HW272395   0.800   3.981  12.006  0.7762  1.2674  0.6919
23652SOL     OW72396   7.450   2.111   3.756  0.3643  0.1234  0.3716
23652SOL    HW172397   7.515   2.122   3.687 -0.6546  1.4559 -0.4514
23652SOL    HW272398   7.443   2.017   3.769 -0.0808 -0.2504 -2.0498
23653SOL     OW72399   0.906   6.403   6.264  0.2341  0.0490 -0.2442
23653SOL    HW172400   0.913   6.412   6.169  0.1513 -0.2129 -0.2760
23653SOL    HW272401   0.995   6.386   6.294 -0.0068 -1.8473 -0.4933
23654SOL     OW72402   5.073   6.343   5.639  0.0443  0.0381  0.0953
23654SOL    HW172403   5.000   6.281   5.645 -0.9561  0.7863 -2.8409
23654SOL    HW272404   5.040   6.414   5.583  3.2323  0.0481 -2.0212
23655SOL     OW72405   2.653   1.919   5.136  0.7631 -0.1659 -0.7810
23655SOL    HW172406   2.602   1.845   5.104  1.2657 -0.7210 -0.3395
23655SOL    HW272407   2.737   1.912   5.090  0.6542  0.4076 -1.0821
23656SOL     OW72408   5.013   5.649   9.359  0.3167  0.0137  0.4385
23656SOL    HW172409   4.943   5.697   9.402 -0.7454  0.4361 -1.6623
23656SOL    HW272410   5.081   5.714   9.343  0.2254  0.1036  0.4221
23657SOL     OW72411   0.803   7.328   8.530  0.2083  0.1264 -0.6407
23657SOL    HW172412   0.774   7.282   8.609  0.1399  0.4504 -0.4739
23657SOL    HW272413   0.895   7.302   8.520  0.3493  0.4304 -0.1969
23658SOL     OW72414   7.949   3.265   1.542  0.6005 -0.1131 -0.2468
23658SOL    HW172415   8.023   3.310   1.582 -0.5256  1.0265  0.6326
23658SOL    HW272416   7.873   3.294   1.593 -0.7748  0.5339 -2.5229
23659SOL     OW72417   0.323   0.493   9.924  0.0352 -0.5999 -0.4344
23659SOL    HW172418   0.268   0.504   9.846  0.4519 -0.8931 -0.7779
23659SOL    HW272419   0.412   0.507   9.892  0.0703  1.6608  0.4577
23660SOL     OW72420   0.560   4.876   0.537  0.1689  0.8291 -0.4671
23660SOL    HW172421   0.638   4.914   0.497 -0.5738  1.8576 -0.9814
23660SOL    HW272422   0.592   4.832   0.616  1.4040  0.3248 -1.2189
23661SOL     OW72423   1.359   4.922  11.933  0.9015  0.0925  0.1969
23661SOL    HW172424   1.390   4.833  11.913 -0.1723 -0.4023  0.6449
23661SOL    HW272425   1.264   4.917  11.922  0.8431  1.2359  0.0771
23662SOL     OW72426   7.092   0.874   4.724  0.5265  0.0010  0.4521
23662SOL    HW172427   7.047   0.791   4.709  1.6114 -0.0810 -3.3033
23662SOL    HW272428   7.185   0.853   4.716  0.9436  1.2586  1.5874
23663SOL     OW72429   4.524   1.545   8.345 -0.1354 -0.3663 -0.4124
23663SOL    HW172430   4.485   1.461   8.322  1.1998 -0.5580 -2.1519
23663SOL    HW272431   4.474   1.609   8.295 -0.9033 -0.1439  0.6161
23664SOL     OW72432   0.850   6.402   3.009 -0.1513  0.1627 -0.1642
23664SOL    HW172433   0.908   6.343   3.056 -0.5707 -1.2739 -1.3651
23664SOL    HW272434   0.802   6.345   2.948 -0.8318  1.6881 -1.1202
23665SOL     OW72435   0.915   6.017  11.739  0.3284 -0.3437 -0.8504
23665SOL    HW172436   0.848   6.044  11.802  0.9202 -2.4448  0.7931
23665SOL    HW272437   0.968   6.096  11.726 -0.7959  0.5938 -0.0066
23666SOL     OW72438   3.441   2.125  12.355  0.1187  0.2973 -0.2118
23666SOL    HW172439   3.534   2.114  12.332  0.2386  0.9914 -0.0712
23666SOL    HW272440   3.414   2.039  12.387 -0.1923 -0.9303 -3.4076
23667SOL     OW72441   2.451   5.560   3.674 -0.0743  0.1530 -0.4627
23667SOL    HW172442   2.540   5.527   3.664 -0.5036 -0.5194 -2.7570
23667SOL    HW272443   2.418   5.567   3.584 -1.5557  2.6150  0.1819
23668SOL     OW72444   5.780   2.739   0.254 -0.1401 -0.1585 -1.0856
23668SOL    HW172445   5.825   2.661   0.286 -1.1900  0.1401  1.3289
23668SOL    HW272446   5.821   2.811   0.301 -1.8207  0.2932 -0.2416
23669SOL     OW72447   1.385   4.455   0.182  0.0338  0.5549 -0.7031
23669SOL    HW172448   1.436   4.379   0.207 -2.3441 -1.4826 -1.5781
23669SOL    HW272449   1.428   4.529   0.225  0.9723 -1.5876  2.3662
23670SOL     OW72450   6.943   2.944  11.814  0.1549  0.7965  0.0950
23670SOL    HW172451   6.878   2.938  11.884 -0.0921 -0.2661 -0.2091
23670SOL    HW272452   6.965   3.037  11.810  1.4344  0.6850  2.7123
23671SOL     OW72453   3.157   1.986   6.057  0.2406 -0.1291 -0.1138
23671SOL    HW172454   3.132   2.065   6.106  0.9909  0.2914 -0.3926
23671SOL    HW272455   3.076   1.955   6.017  0.1951  1.3676 -1.2462
23672SOL     OW72456   0.119   0.607   0.529 -0.1836  0.0413  0.3926
23672SOL    HW172457   0.150   0.595   0.439 -0.9961  0.1058  0.0971
23672SOL    HW272458   0.115   0.702   0.540 -0.5008  0.0377  0.3384
23673SOL     OW72459   2.206   4.947   0.001 -0.1049  0.4454 -0.2921
23673SOL    HW172460   2.266   4.959  -0.074 -2.5048  0.7631 -2.2961
23673SOL    HW272461   2.167   4.861  -0.013 -0.4050  0.4062  0.7453
23674SOL     OW72462   0.476   0.566   9.064  0.1012 -0.4210  0.0969
23674SOL    HW172463   0.510   0.517   9.138  0.2712  0.3705  0.5604
23674SOL    HW272464   0.431   0.641   9.104 -0.1248 -0.1895 -0.5815
23675SOL     OW72465   0.990   0.300   9.739  0.6305 -0.2076  0.4817
23675SOL    HW172466   0.896   0.293   9.755  0.7448 -0.3510  1.1410
23675SOL    HW272467   1.016   0.379   9.787  0.7852  0.0330  0.0025
23676SOL     OW72468   4.615   0.275  10.966  0.5048 -0.1072  0.0811
23676SOL    HW172469   4.547   0.277  10.899  0.4113  0.3309  0.1852
23676SOL    HW272470   4.602   0.356  11.016  0.7746 -0.2727  0.4257
23677SOL     OW72471   4.454   7.721   2.836  0.3722  0.0776 -0.9949
23677SOL    HW172472   4.476   7.782   2.766  1.8420  0.5909 -0.1418
23677SOL    HW272473   4.533   7.717   2.890 -0.6088 -0.5078  0.4733
23678SOL     OW72474   5.818   0.300   2.430  0.9050  0.4583  0.1055
23678SOL    HW172475   5.745   0.283   2.370  2.0986  0.3345 -1.3648
23678SOL    HW272476   5.803   0.389   2.461 -1.1817 -0.3877  1.7916
23679SOL     OW72477   7.438   4.472   3.051 -0.1359 -0.0461 -0.6519
23679SOL    HW172478   7.423   4.404   2.986  0.7900 -0.8245 -0.0790
23679SOL    HW272479   7.367   4.535   3.037 -0.8160 -0.9527 -1.4124
23680SOL     OW72480   0.717   7.918   6.178  0.5001  0.6820  0.4755
23680SOL    HW172481   0.639   7.863   6.169  1.2112 -0.4134  0.7899
23680SOL    HW272482   0.791   7.857   6.170  1.3295  1.6554  0.4337
23681SOL     OW72483   5.868   4.300   9.485 -0.0206  0.0435 -0.2024
23681SOL    HW172484   5.833   4.318   9.573 -1.1311 -1.7584 -0.2357
23681SOL    HW272485   5.962   4.294   9.498 -0.1392  0.1310  0.7996
23682SOL     OW72486   1.939   2.149   7.978 -0.6350 -0.2111 -0.6560
23682SOL    HW172487   1.952   2.090   7.904 -0.2876  0.4126 -1.0982
23682SOL    HW272488   1.938   2.092   8.055  1.5583 -0.6300 -0.8938
23683SOL     OW72489   1.079   2.416  12.112 -0.2258 -0.0269  0.0926
23683SOL    HW172490   1.170   2.425  12.137  0.4765  1.3877 -2.6518
23683SOL    HW272491   1.074   2.448  12.022 -3.2020 -1.2122 -0.3173
23684SOL     OW72492   5.218   6.856  12.051  0.0601 -0.0206  0.5218
23684SOL    HW172493   5.194   6.816  11.967 -0.0060 -1.2458  1.1102
23684SOL    HW272494   5.202   6.950  12.038  0.5693 -0.1117 -1.0185
23685SOL     OW72495   7.539   7.474   8.723  0.2269  0.4400  0.0276
23685SOL    HW172496   7.609   7.429   8.770  0.6480  0.0508 -0.9373
23685SOL    HW272497   7.461   7.457   8.774  0.5129 -0.7692  0.0851
23686SOL     OW72498   7.165   1.324   9.988 -0.2332 -0.0965  0.3162
23686SOL    HW172499   7.213   1.382   9.929  0.1644 -0.3659  0.3670
23686SOL    HW272500   7.176   1.237   9.950 -0.8695 -0.1319  0.2124
23687SOL     OW72501   7.726   4.707   0.072 -0.2662 -0.0688  0.3237
23687SOL    HW172502   7.780   4.785   0.056  0.9779 -1.1208 -0.9436
23687SOL    HW272503   7.683   4.724   0.155  1.1149  1.3552  0.7961
23688SOL     OW72504   7.902   6.608  11.391  0.0609  0.4671 -0.0638
23688SOL    HW172505   7.915   6.688  11.339  0.1957  0.5240  0.0552
23688SOL    HW272506   7.824   6.568  11.354  0.4450  0.2368 -0.6459
23689SOL     OW72507   6.407   3.784   6.567 -0.3102  0.2549  0.2725
23689SOL    HW172508   6.322   3.821   6.589 -1.1296 -1.6544  0.4317
23689SOL    HW272509   6.398   3.690   6.580  1.1055 -0.2877 -1.9430
23690SOL     OW72510   4.605   6.184  11.833  0.4775  0.0850 -0.1031
23690SOL    HW172511   4.577   6.254  11.776 -0.8154 -0.6421 -0.3896
23690SOL    HW272512   4.636   6.228  11.912 -0.0928  0.9776 -0.3705
23691SOL     OW72513   1.790   1.407   2.998 -0.1801 -0.3655 -0.1498
23691SOL    HW172514   1.758   1.432   2.911 -1.8135 -1.2620  0.1635
23691SOL    HW272515   1.765   1.479   3.055 -0.7653 -0.6149 -0.0891
23692SOL     OW72516   2.720   5.810   9.592 -0.3566  0.3440  0.4113
23692SOL    HW172517   2.766   5.845   9.668 -1.7074  2.1780  0.4627
23692SOL    HW272518   2.637   5.777   9.628 -0.6741  0.5163 -0.1543
23693SOL     OW72519   4.074   0.862   1.968  0.1405 -0.1315 -0.5284
23693SOL    HW172520   4.029   0.946   1.966  1.1694  0.4856  0.7393
23693SOL    HW272521   4.051   0.825   2.053  0.9109 -0.4273 -0.4399
23694SOL     OW72522   4.392   5.421   4.140 -0.9334  0.1405  0.1520
23694SOL    HW172523   4.326   5.359   4.172  0.5976 -1.1494  0.9296
23694SOL    HW272524   4.408   5.479   4.214 -0.8169  0.1468  0.1209
23695SOL     OW72525   4.873   6.053   1.861 -0.1961  0.4461 -0.0166
23695SOL    HW172526   4.872   6.140   1.821 -1.2631  0.7342  0.5917
23695SOL    HW272527   4.797   6.008   1.824 -0.2274  0.1264  0.4222
23696SOL     OW72528   7.438   6.584   8.762  0.3248  0.0407  0.7479
23696SOL    HW172529   7.521   6.535   8.758  0.0776 -0.3076 -0.4055
23696SOL    HW272530   7.460   6.671   8.728  0.6048  0.5342  2.1379
23697SOL     OW72531   4.010   2.641   5.253 -0.3510 -0.0990 -0.1730
23697SOL    HW172532   3.998   2.553   5.289  1.9718 -0.9264 -1.2501
23697SOL    HW272533   3.988   2.700   5.325  1.2796 -1.6444  1.7003
23698SOL     OW72534   4.989   5.894   1.564  0.5872  0.3237  0.3802
23698SOL    HW172535   5.043   5.827   1.606  0.6471  0.5229  0.6292
23698SOL    HW272536   4.901   5.856   1.563  0.5255  0.4301  0.9648
23699SOL     OW72537   1.531   4.462   7.414 -0.0950  0.9830  0.4308
23699SOL    HW172538   1.457   4.461   7.474  1.4584 -4.8550  2.9292
23699SOL    HW272539   1.603   4.497   7.466  0.1910  0.7631  0.1885
23700SOL     OW72540   1.395   3.590   3.208  0.1163  0.0520 -0.1748
23700SOL    HW172541   1.409   3.610   3.300 -0.3945  1.6029 -0.4109
23700SOL    HW272542   1.472   3.624   3.163  1.1440 -2.1460 -0.1837
23701SOL     OW72543   5.221   5.197   1.718  0.3001  0.1404 -0.2560
23701SOL    HW172544   5.243   5.252   1.793 -3.1668  0.8757  0.4181
23701SOL    HW272545   5.215   5.257   1.644 -0.3988  0.1780 -0.1818
23702SOL     OW72546   6.277   3.532   6.565 -0.1137 -0.2253 -0.5459
23702SOL    HW172547   6.331   3.453   6.578 -1.9688 -1.4333  0.3614
23702SOL    HW272548   6.192   3.498   6.538 -0.9509  1.4773 -0.1852
23703SOL     OW72549   7.115   5.123  10.784  0.4574  0.1691 -0.3789
23703SOL    HW172550   7.103   5.137  10.690  2.0875  1.8451 -0.3917
23703SOL    HW272551   7.210   5.124  10.797  0.2666  0.0878  1.3030
23704SOL     OW72552   2.508   4.351   8.479 -0.2729 -0.5906 -0.7307
23704SOL    HW172553   2.416   4.346   8.503  0.1765 -0.7272  1.0917
23704SOL    HW272554   2.555   4.351   8.562  1.3399  0.3588 -1.5817
23705SOL     OW72555   3.227   3.471   0.544 -0.2813 -0.1630 -0.2409
23705SOL    HW172556   3.219   3.514   0.629 -0.9457 -2.7907  1.1461
23705SOL    HW272557   3.165   3.518   0.488  1.4691  2.7903  0.0936
23706SOL     OW72558   1.934   2.385   2.275 -0.2705  0.0167  0.8256
23706SOL    HW172559   1.881   2.317   2.315 -0.6475 -1.0344 -1.2817
23706SOL    HW272560   1.944   2.452   2.342 -1.0376 -1.4999  2.5162
23707SOL     OW72561   6.107   2.927  12.435 -0.3538 -0.0297 -0.0774
23707SOL    HW172562   6.027   2.880  12.411 -1.1960  0.4735  1.6068
23707SOL    HW272563   6.086   2.970  12.518  1.7892 -0.1610  0.5896
23708SOL     OW72564   0.573   6.412   8.380  0.1474 -0.5016 -0.4974
23708SOL    HW172565   0.615   6.483   8.428 -2.6519  0.5147  0.6665
23708SOL    HW272566   0.613   6.332   8.414 -0.2581  0.3122  2.0541
23709SOL     OW72567   2.701   4.467   6.309 -1.1044  0.4408  0.0309
23709SOL    HW172568   2.749   4.515   6.377 -1.1777  0.4680  0.0639
23709SOL    HW272569   2.739   4.379   6.312 -0.2609  0.7657 -0.7299
23710SOL     OW72570   7.867   0.280   1.567  0.1159 -0.9553  0.2572
23710SOL    HW172571   7.935   0.214   1.580 -0.0507 -1.5237 -1.4692
23710SOL    HW272572   7.785   0.233   1.579  0.0161 -0.6154  0.9008
23711SOL     OW72573   3.357   7.849   7.817  0.6057  0.2709  0.0429
23711SOL    HW172574   3.346   7.913   7.747 -1.2543 -2.2384 -2.1274
23711SOL    HW272575   3.268   7.829   7.846  1.1395 -1.1663  0.8042
23712SOL     OW72576   5.453   3.269   7.087  0.0216 -0.2132  0.0459
23712SOL    HW172577   5.541   3.253   7.120 -0.1613 -1.8691 -0.2098
23712SOL    HW272578   5.447   3.365   7.080  0.9193  0.0856  2.4141
23713SOL     OW72579   6.333   7.897   4.518  0.3702  0.1884 -0.1635
23713SOL    HW172580   6.419   7.939   4.513 -0.1467  1.1597 -2.0357
23713SOL    HW272581   6.271   7.969   4.508 -0.6459 -0.6452 -0.0431
23714SOL     OW72582   2.673   2.444   2.061 -0.1082 -0.0994  0.0922
23714SOL    HW172583   2.612   2.482   1.998 -0.2033  0.5620  0.5838
23714SOL    HW272584   2.620   2.384   2.113 -0.1958 -0.0333  0.0787
23715SOL     OW72585   1.111   2.463   7.402 -0.0771 -0.3556  0.1533
23715SOL    HW172586   1.018   2.480   7.388 -0.4401 -1.3401  1.2081
23715SOL    HW272587   1.143   2.430   7.318  0.1292  3.0328 -1.2712
23716SOL     OW72588   5.353   0.679   1.327 -0.1491 -0.0414 -0.5188
23716SOL    HW172589   5.289   0.671   1.257  0.4465  0.2633 -1.1156
23716SOL    HW272590   5.360   0.590   1.364 -0.7628 -0.1139 -0.5718
23717SOL     OW72591   1.362   6.460  10.598  0.4430 -0.2476 -0.5801
23717SOL    HW172592   1.330   6.533  10.545 -0.9036  0.0500  0.5614
23717SOL    HW272593   1.292   6.445  10.662  1.6905 -1.0327  0.6660
23718SOL     OW72594   2.899   3.898   1.095  0.0377  0.0036 -0.1827
23718SOL    HW172595   2.962   3.900   1.023 -1.2604  0.6476 -1.3543
23718SOL    HW272596   2.922   3.974   1.148 -1.2932  1.8616 -2.0710
23719SOL     OW72597   1.853   7.926  11.563  0.4359  0.4840  0.6558
23719SOL    HW172598   1.857   7.967  11.477 -1.1715 -0.8253 -0.1030
23719SOL    HW272599   1.895   7.841  11.551  0.2182  0.3007  1.1688
23720SOL     OW72600   2.857   5.367   2.640 -0.0758  0.0734  0.1613
23720SOL    HW172601   2.921   5.402   2.701  0.8899  1.7687 -1.7257
23720SOL    HW272602   2.804   5.442   2.614 -0.4222 -0.5740 -1.1179
23721SOL     OW72603   7.958   4.073   6.216 -0.2848 -0.5545  0.2110
23721SOL    HW172604   7.969   3.988   6.173 -0.5317 -1.1396  1.2814
23721SOL    HW272605   7.981   4.057   6.307 -2.1948  0.0815  0.8320
23722SOL     OW72606   5.501   1.893   0.529  0.0375  0.1093 -0.1269
23722SOL    HW172607   5.501   1.974   0.578  2.9847  1.2440 -1.7284
23722SOL    HW272608   5.464   1.828   0.589 -0.4310  2.1948  1.9712
23723SOL     OW72609   3.321   4.871  11.087 -0.1934  0.0603  0.2845
23723SOL    HW172610   3.404   4.823  11.077 -1.3630 -1.8477 -0.8848
23723SOL    HW272611   3.314   4.923  11.007 -0.3929 -0.2529  0.0949
23724SOL     OW72612   2.786   1.644   1.013 -0.1307  0.0304 -0.6876
23724SOL    HW172613   2.729   1.720   1.028 -0.3003  0.2056 -2.0359
23724SOL    HW272614   2.869   1.668   1.053 -0.1538  0.9836 -1.1756
23725SOL     OW72615   3.870   0.370   2.271 -0.1402 -0.3760 -0.0047
23725SOL    HW172616   3.957   0.336   2.253 -1.0512 -2.9377  0.0726
23725SOL    HW272617   3.868   0.383   2.366 -0.0431 -0.9129  0.0692
23726SOL     OW72618   6.177   6.330   1.500 -0.3478  0.3954 -0.2020
23726SOL    HW172619   6.233   6.292   1.568 -0.7630  2.5043  1.4031
23726SOL    HW272620   6.211   6.293   1.418  2.2414  0.2176  0.8528
23727SOL     OW72621   0.138   2.979   0.944 -0.4558 -0.3696  0.0561
23727SOL    HW172622   0.085   3.008   1.018 -2.3240  1.0583 -1.7427
23727SOL    HW272623   0.199   3.052   0.928  0.2398 -0.8580  0.4217
23728SOL     OW72624   7.049   4.973   3.965  0.1657  0.3686  0.5788
23728SOL    HW172625   6.959   5.007   3.968 -0.2066 -0.6640  2.2144
23728SOL    HW272626   7.051   4.905   4.031  2.1672  0.3381  0.5392
23729SOL     OW72627   2.249   3.396   2.472  0.1464  0.1575  0.3688
23729SOL    HW172628   2.309   3.447   2.418 -0.1594 -0.6935 -0.8110
23729SOL    HW272629   2.204   3.339   2.410 -1.5061  0.4080  1.2892
23730SOL     OW72630   2.605   1.396   3.965 -0.5995  0.3759  0.2683
23730SOL    HW172631   2.568   1.312   3.993  0.7949 -0.6318 -0.7896
23730SOL    HW272632   2.603   1.451   4.044 -1.5162 -0.6389  0.9806
23731SOL     OW72633   7.932   0.786  11.660  0.2627 -0.4044  0.7570
23731SOL    HW172634   7.985   0.789  11.739 -1.0554 -1.7056  1.7451
23731SOL    HW272635   7.845   0.814  11.688 -0.4428 -1.7212 -0.0194
23732SOL     OW72636   6.501   6.007   7.219  0.6484  0.5302 -0.2010
23732SOL    HW172637   6.508   6.018   7.124  0.4675  2.6251 -0.0298
23732SOL    HW272638   6.590   6.024   7.252  0.8308 -0.7098 -0.0101
23733SOL     OW72639   2.961   5.307   0.415 -0.0968 -0.5042  0.2514
23733SOL    HW172640   3.018   5.383   0.407 -0.7801 -0.1455 -1.5368
23733SOL    HW272641   2.950   5.275   0.326 -0.9316 -1.8945  0.8120
23734SOL     OW72642   2.696   0.649   0.005  0.2502 -0.1287  0.7005
23734SOL    HW172643   2.647   0.722  -0.035 -1.9252 -1.7841  0.1053
23734SOL    HW272644   2.652   0.634   0.089  1.5085  0.0498  1.4032
23735SOL     OW72645   0.828   5.558   9.469  0.3858 -0.1659  0.1912
23735SOL    HW172646   0.776   5.565   9.549  0.6958 -1.4738  0.5359
23735SOL    HW272647   0.863   5.646   9.454  0.6477  0.0024  1.7139
23736SOL     OW72648   4.126   1.455  12.446  0.0348 -0.2811 -0.3256
23736SOL    HW172649   4.046   1.506  12.431  0.0402  0.0244  0.6234
23736SOL    HW272650   4.160   1.437  12.358 -2.4223 -2.6212 -0.9227
23737SOL     OW72651   5.123   3.632   2.634 -0.3286  0.6579  0.1548
23737SOL    HW172652   5.065   3.596   2.701 -3.0398 -0.0746 -2.4170
23737SOL    HW272653   5.077   3.709   2.601  0.5212  0.5232 -1.4341
23738SOL     OW72654   7.305   5.505   8.905  0.4108 -0.3308  0.1945
23738SOL    HW172655   7.240   5.435   8.891  0.5351 -0.4324  0.1233
23738SOL    HW272656   7.378   5.481   8.848 -0.1679  0.6648 -1.0059
23739SOL     OW72657   4.802   6.409  12.359  0.2688 -0.6148 -0.0108
23739SOL    HW172658   4.799   6.393  12.453  0.4053 -1.0541 -0.0825
23739SOL    HW272659   4.890   6.443  12.343  0.5145 -1.2688 -0.0920
23740SOL     OW72660   1.131   1.436   0.183  0.2353 -0.1858 -0.1791
23740SOL    HW172661   1.221   1.470   0.182 -0.2400  1.1990  0.5562
23740SOL    HW272662   1.104   1.438   0.091  1.2668 -1.5390 -0.5314
23741SOL     OW72663   1.797   4.378   5.180 -0.4810  0.4164  0.6702
23741SOL    HW172664   1.724   4.384   5.119 -1.0107  1.5144  1.3640
23741SOL    HW272665   1.816   4.285   5.187  0.2171  0.2937 -1.8515
23742SOL     OW72666   5.346   4.999   4.413  0.2827  0.0966  0.1414
23742SOL    HW172667   5.322   5.084   4.450 -0.0202 -0.2838  0.8400
23742SOL    HW272668   5.349   5.014   4.319  0.9088  1.0571  0.2900
23743SOL     OW72669   4.460   2.801   5.365  0.1407 -0.1893 -0.2932
23743SOL    HW172670   4.442   2.828   5.455  0.5675 -0.5738 -0.0868
23743SOL    HW272671   4.440   2.707   5.363  0.0290 -0.1607 -0.6281
23744SOL     OW72672   0.612   0.188   6.189  0.5195  0.5480 -0.1060
23744SOL    HW172673   0.523   0.155   6.200  0.9983 -0.3671  1.3623
23744SOL    HW272674   0.667   0.110   6.198  1.4333  0.6877 -3.1079
23745SOL     OW72675   7.074   1.941   0.769  0.0965  0.1160  0.1232
23745SOL    HW172676   6.993   1.928   0.720 -0.3955 -0.1365  0.9835
23745SOL    HW272677   7.117   2.014   0.725 -1.0944  0.9435  0.2622
23746SOL     OW72678   3.289   3.609   9.482  0.2866  0.3800 -0.4412
23746SOL    HW172679   3.266   3.702   9.475 -1.5396  0.2030  1.9879
23746SOL    HW272680   3.226   3.565   9.425  0.4605  0.5264 -0.7521
23747SOL     OW72681   5.657   0.836   1.830 -0.1987 -0.4627  0.3627
23747SOL    HW172682   5.593   0.853   1.898  1.1893  0.0637  1.5844
23747SOL    HW272683   5.605   0.813   1.753 -1.8582  0.7727  1.0655
23748SOL     OW72684   4.944   5.027  11.218 -0.4291  0.6059  0.3797
23748SOL    HW172685   4.911   4.970  11.149 -0.5112 -3.6937  3.5124
23748SOL    HW272686   5.037   5.038  11.198 -0.5483 -0.1429 -0.6796
23749SOL     OW72687   6.281   0.293   3.778 -0.2084  0.5898 -0.0836
23749SOL    HW172688   6.287   0.214   3.831  0.4647 -0.5854 -1.8218
23749SOL    HW272689   6.222   0.269   3.706 -1.2276  2.1778  0.1814
23750SOL     OW72690   1.504   4.418   0.745 -0.0257  0.8617  0.2353
23750SOL    HW172691   1.413   4.424   0.773 -0.0932  0.4259  0.1165
23750SOL    HW272692   1.502   4.369   0.663  0.1458  2.3881 -0.7298
23751SOL     OW72693   6.279   2.938   8.870 -0.0142 -0.0995 -0.5571
23751SOL    HW172694   6.223   3.011   8.894 -1.2890 -1.0329 -0.5714
23751SOL    HW272695   6.273   2.933   8.774 -0.0051 -0.2893 -0.5480
23752SOL     OW72696   4.997   1.479   6.730 -0.2082 -1.1436 -0.3017
23752SOL    HW172697   5.081   1.454   6.770 -0.6189 -1.4591  0.3922
23752SOL    HW272698   4.937   1.411   6.759 -0.4688 -1.5321 -1.7059
23753SOL     OW72699   5.528   6.689   2.157  0.0049  0.1741  0.0713
23753SOL    HW172700   5.535   6.616   2.219  1.6632  1.1411  1.0853
23753SOL    HW272701   5.555   6.651   2.073 -1.9721 -1.0745 -0.0760
23754SOL     OW72702   2.060   4.649   2.037  0.5748 -0.2309 -0.2887
23754SOL    HW172703   2.117   4.589   1.989 -0.4090 -0.2040 -1.5125
23754SOL    HW272704   1.988   4.668   1.977 -1.4543 -1.2834  1.6702
23755SOL     OW72705   2.998   2.601   3.747  0.5080 -0.3222 -0.4898
23755SOL    HW172706   3.007   2.691   3.779 -0.6831 -0.6912  0.9872
23755SOL    HW272707   3.020   2.547   3.823 -0.6966 -1.2502 -0.7857
23756SOL     OW72708   4.933   0.825   0.518  0.2063 -0.3860 -0.7052
23756SOL    HW172709   4.966   0.848   0.604  0.9357  0.1850 -1.1251
23756SOL    HW272710   4.838   0.839   0.524  0.2807 -0.1467 -0.0623
23757SOL     OW72711   6.733   7.432   1.372  0.1164  0.8365  0.1676
23757SOL    HW172712   6.684   7.356   1.404 -1.7401  2.0467  0.3285
23757SOL    HW272713   6.733   7.422   1.277  1.8140 -0.4648  0.2509
23758SOL     OW72714   3.008   3.909   8.454 -1.1341  0.0057 -0.1895
23758SOL    HW172715   3.054   3.970   8.513 -0.8448 -0.6224  0.2491
23758SOL    HW272716   2.977   3.964   8.382  1.2180  0.3189 -1.0678
23759SOL     OW72717   2.969   6.807   4.324  0.3827  0.0797  0.1371
23759SOL    HW172718   2.977   6.733   4.264 -1.3604  0.7660 -1.0298
23759SOL    HW272719   2.929   6.771   4.403 -0.5952 -0.2059 -0.4851
23760SOL     OW72720   1.899   1.033   0.056 -0.1253 -0.0547 -0.5347
23760SOL    HW172721   1.833   0.974   0.091  0.0971 -0.3517 -0.6108
23760SOL    HW272722   1.946   1.065   0.133 -0.6215  0.4786 -0.4482
23761SOL     OW72723   2.664   0.696   0.512 -0.3573 -0.2693  0.5222
23761SOL    HW172724   2.626   0.691   0.600 -0.5415  2.0948  0.6480
23761SOL    HW272725   2.753   0.729   0.527  0.3839 -1.8940 -0.0683
23762SOL     OW72726   3.181   5.007   5.765 -0.1988 -0.2608  0.2766
23762SOL    HW172727   3.172   4.967   5.678 -2.4260 -1.1808  0.8388
23762SOL    HW272728   3.192   4.933   5.825 -2.8012 -0.0666  1.1603
23763SOL     OW72729   5.956   7.546   9.039 -0.7291  0.9156  0.4443
23763SOL    HW172730   5.980   7.519   8.950 -2.1263  1.1878 -0.0401
23763SOL    HW272731   5.976   7.640   9.041 -0.3994  0.8444  0.5260
23764SOL     OW72732   5.965   3.355  11.374 -0.5556 -0.0333  0.0086
23764SOL    HW172733   5.882   3.307  11.369  0.5276 -2.0523  0.3451
23764SOL    HW272734   5.965   3.392  11.462 -1.3416  0.5123 -0.2013
23765SOL     OW72735   4.147   6.072  10.666  0.0945 -0.5479 -0.1289
23765SOL    HW172736   4.196   6.112  10.594  0.0765 -0.7289 -0.2430
23765SOL    HW272737   4.201   6.089  10.744 -0.3262  0.4296 -0.0421
23766SOL     OW72738   7.567   0.292  10.272 -0.5425  0.0038 -0.5646
23766SOL    HW172739   7.610   0.211  10.244  0.2487 -0.4539  1.7774
23766SOL    HW272740   7.616   0.361  10.227  0.4322 -0.6900 -0.6101
23767SOL     OW72741   7.908   4.655   9.771  0.0531 -0.6891 -0.4633
23767SOL    HW172742   7.815   4.674   9.774  0.4298  1.3070  1.4748
23767SOL    HW272743   7.915   4.564   9.800 -1.3769 -1.6576 -2.9031
23768SOL     OW72744   5.031   5.619   7.129  0.3944 -0.0051  0.0751
23768SOL    HW172745   4.991   5.546   7.080 -0.6869  1.4060 -1.2294
23768SOL    HW272746   5.002   5.605   7.219 -0.9262 -0.4709 -0.3901
23769SOL     OW72747   7.488   5.137   4.381 -0.9359  0.2930 -0.0166
23769SOL    HW172748   7.501   5.043   4.371  0.0466  0.4417 -0.3072
23769SOL    HW272749   7.396   5.152   4.357 -1.3007 -0.6673  0.7136
23770SOL     OW72750   6.743   1.199   4.488  0.1221  0.0631 -0.0599
23770SOL    HW172751   6.822   1.146   4.500  0.0701  0.4134  2.3536
23770SOL    HW272752   6.749   1.266   4.556 -1.7223  0.7522 -0.5336
23771SOL     OW72753   1.508   4.176   9.734  0.6517 -0.5929 -0.0714
23771SOL    HW172754   1.595   4.166   9.773  1.0534  2.3484  0.0049
23771SOL    HW272755   1.487   4.269   9.747 -1.9313 -0.9411 -1.2816
23772SOL     OW72756   3.750   3.493   3.817  0.3121  0.8622  0.0128
23772SOL    HW172757   3.798   3.435   3.876 -0.9422 -0.4603 -0.1914
23772SOL    HW272758   3.786   3.580   3.833  3.0342 -0.0933 -0.4489
23773SOL     OW72759   2.696   2.304   8.443  0.3040 -0.1861  0.0194
23773SOL    HW172760   2.613   2.345   8.420 -0.9987 -2.5245  0.1986
23773SOL    HW272761   2.690   2.216   8.406  1.2777 -1.5352  2.7563
23774SOL     OW72762   1.775   6.799  11.284  0.3491  0.0068 -0.3770
23774SOL    HW172763   1.717   6.855  11.232 -1.7487 -0.9785  0.7773
23774SOL    HW272764   1.780   6.718  11.234  0.1549 -0.1570 -0.1312
23775SOL     OW72765   7.499   0.863   9.490 -0.1555  0.0548  0.4859
23775SOL    HW172766   7.437   0.848   9.561  0.9695 -0.7216  1.3461
23775SOL    HW272767   7.445   0.874   9.412 -1.3468 -1.3076  1.0795
23776SOL     OW72768   3.487   0.465   5.830  0.2516 -0.1778 -0.1989
23776SOL    HW172769   3.469   0.559   5.824  3.4442  0.6092  0.8982
23776SOL    HW272770   3.455   0.429   5.747  0.7934  2.2395 -1.5489
23777SOL     OW72771   4.737   0.036   0.648 -0.1587  0.2468 -0.7165
23777SOL    HW172772   4.791   0.028   0.727  1.7744  2.0085 -1.7362
23777SOL    HW272773   4.721  -0.054   0.621  0.3493 -0.3737  0.8773
23778SOL     OW72774   1.198   3.005   5.730 -0.0085 -0.6424 -0.1410
23778SOL    HW172775   1.176   3.025   5.640 -1.4952  1.5515  0.6386
23778SOL    HW272776   1.114   2.997   5.775  0.7008 -1.5378  1.1072
23779SOL     OW72777   7.574   4.249   0.552  0.2760 -0.1954 -0.3428
23779SOL    HW172778   7.510   4.181   0.572 -0.2091  0.1898 -0.5416
23779SOL    HW272779   7.561   4.315   0.620 -0.9293  0.8096 -1.4920
23780SOL     OW72780   1.704   7.497   7.507 -0.4402 -0.4357 -0.4931
23780SOL    HW172781   1.746   7.455   7.582  1.7862  1.0702 -0.8096
23780SOL    HW272782   1.653   7.568   7.545 -3.5758 -2.7154 -0.0333
23781SOL     OW72783   5.529   5.606   6.219  0.2176 -0.4292 -0.3476
23781SOL    HW172784   5.504   5.679   6.276 -0.6112 -1.7047  0.9941
23781SOL    HW272785   5.618   5.585   6.247 -0.4309 -1.5003  1.0388
23782SOL     OW72786   5.714   1.891  10.224 -0.7077  0.0100  0.0883
23782SOL    HW172787   5.696   1.942  10.144 -0.1467  1.0911  0.6371
23782SOL    HW272788   5.782   1.941  10.269 -0.9490 -0.6511  1.1976
23783SOL     OW72789   6.943   7.544   1.503  0.1133 -0.1729 -0.1116
23783SOL    HW172790   7.009   7.478   1.525  0.3943  0.1518  0.0414
23783SOL    HW272791   6.868   7.494   1.472  0.4896 -0.5434 -0.4348
23784SOL     OW72792   2.056   2.467   0.005 -0.1216 -0.1639  0.1099
23784SOL    HW172793   2.144   2.498   0.029 -0.9053  0.2899  2.6518
23784SOL    HW272794   2.008   2.546  -0.018 -0.1477 -0.2940 -0.2806
23785SOL     OW72795   7.256   2.896   7.012 -0.1804 -0.2225  0.0189
23785SOL    HW172796   7.217   2.818   6.972  0.5772 -0.2636 -0.6570
23785SOL    HW272797   7.182   2.941   7.054 -0.7100 -1.0257 -0.0342
23786SOL     OW72798   6.455   2.541   7.005  0.3305 -0.3619  0.1602
23786SOL    HW172799   6.534   2.557   6.954  1.0754 -1.0017  1.0573
23786SOL    HW272800   6.474   2.577   7.092  0.0981 -1.4953  0.7151
23787SOL     OW72801   3.759   1.520   9.961  0.1301  0.4596  0.6044
23787SOL    HW172802   3.784   1.602   9.918  1.4501 -0.1657  0.1381
23787SOL    HW272803   3.665   1.512   9.944  0.5548  0.3570 -1.9990
23788SOL     OW72804   1.908   5.287   2.320 -0.5279 -0.1386 -0.5298
23788SOL    HW172805   1.990   5.252   2.284  0.7408  1.8662  0.2599
23788SOL    HW272806   1.906   5.255   2.410 -0.0982  0.5495 -0.2606
23789SOL     OW72807   2.363   4.426   1.026 -0.5269 -0.7229  0.2124
23789SOL    HW172808   2.269   4.445   1.031 -0.3302  0.7690 -1.0531
23789SOL    HW272809   2.380   4.375   1.105 -2.2621 -0.4102  0.8577
23790SOL     OW72810   7.049   5.943   5.126  0.3175 -0.2946  0.0666
23790SOL    HW172811   7.063   6.036   5.108  0.4811 -0.4428 -0.6146
23790SOL    HW272812   7.137   5.906   5.130  0.2267 -0.6768 -1.1325
23791SOL     OW72813   3.705   5.301   1.037 -0.0731  0.3864 -0.1752
23791SOL    HW172814   3.728   5.349   0.959  0.4195 -0.5890 -0.6480
23791SOL    HW272815   3.693   5.210   1.007 -1.7867  0.3326  0.5293
23792SOL     OW72816   5.616   7.147  12.396  0.3669  0.4676  0.1194
23792SOL    HW172817   5.577   7.062  12.413  0.1056  0.2593 -1.3910
23792SOL    HW272818   5.553   7.210  12.430  0.3065  0.0830  0.7350
23793SOL     OW72819   1.626   7.787   4.715  0.3695  0.0451 -0.0967
23793SOL    HW172820   1.591   7.727   4.780  0.3109  1.5618  1.3443
23793SOL    HW272821   1.716   7.756   4.699 -0.0557 -1.1175 -0.3248
23794SOL     OW72822   7.765   0.321   8.736 -0.3733  0.5119 -0.4116
23794SOL    HW172823   7.693   0.381   8.718 -1.7651 -1.1239 -0.5713
23794SOL    HW272824   7.723   0.243   8.772  1.5192  0.2420  1.3819
23795SOL     OW72825   5.544   1.364   4.275 -0.0546  0.1687  0.1012
23795SOL    HW172826   5.486   1.374   4.199 -0.5761 -0.0196  0.4673
23795SOL    HW272827   5.539   1.449   4.320 -1.3854 -0.3755  1.0512
23796SOL     OW72828   3.092   5.632  10.802 -0.0138  0.1396 -0.8388
23796SOL    HW172829   3.118   5.550  10.845 -0.2446  0.5958  0.2115
23796SOL    HW272830   3.009   5.610  10.758  1.0644 -0.7760 -2.5158
23797SOL     OW72831   2.235   7.618   8.354 -0.5568  0.0306  0.0557
23797SOL    HW172832   2.298   7.688   8.338 -0.4474 -0.1473 -0.3020
23797SOL    HW272833   2.231   7.611   8.449  0.6320 -0.5625  0.0780
23798SOL     OW72834   4.848   0.350   3.888 -0.1138  0.2471 -0.7091
23798SOL    HW172835   4.850   0.434   3.934  0.7457  0.4462 -1.0856
23798SOL    HW272836   4.897   0.290   3.944 -1.0671 -0.1201 -0.2468
23799SOL     OW72837   5.552   7.084   4.742 -0.1053  0.3457 -0.1742
23799SOL    HW172838   5.486   7.090   4.810 -1.5608  2.9575 -1.6440
23799SOL    HW272839   5.611   7.157   4.759  0.9698 -0.4646 -0.3151
23800SOL     OW72840   3.297   5.949  12.398 -0.0914  0.1185  0.0684
23800SOL    HW172841   3.305   5.920  12.308 -1.4291 -1.5907  0.4533
23800SOL    HW272842   3.365   6.016  12.408  0.4537 -0.0649 -2.0160
23801SOL     OW72843   4.545   1.822   2.151  0.2351  0.2690 -0.2235
23801SOL    HW172844   4.536   1.729   2.132  2.2728 -0.2898  1.2447
23801SOL    HW272845   4.617   1.850   2.095 -0.9165  1.2110 -1.2907
23802SOL     OW72846   5.548   7.835  10.697  0.6543 -0.2959 -0.0532
23802SOL    HW172847   5.594   7.867  10.775 -0.1836  1.6203 -0.2835
23802SOL    HW272848   5.557   7.740  10.701  0.6917 -0.2422  2.3396
23803SOL     OW72849   4.713   4.541  12.351  0.1447  0.0645 -0.0181
23803SOL    HW172850   4.801   4.576  12.365  0.8641 -1.6651  0.0588
23803SOL    HW272851   4.715   4.456  12.394 -1.6624  0.0955  0.1867
23804SOL     OW72852   2.906   4.122   7.306 -0.2980 -0.2900 -0.5370
23804SOL    HW172853   2.941   4.198   7.258 -0.5273 -0.1234 -0.4416
23804SOL    HW272854   2.972   4.054   7.294 -0.5309 -0.3737 -1.4142
23805SOL     OW72855   0.981   6.531   2.544  0.0375  0.2397 -0.5181
23805SOL    HW172856   0.932   6.595   2.594 -0.8075  0.0428 -1.0723
23805SOL    HW272857   1.049   6.500   2.604 -1.1627 -0.2518  0.6364
23806SOL     OW72858   1.259   6.077   2.746  0.1830 -0.1971  0.2583
23806SOL    HW172859   1.245   5.999   2.799 -1.2404  0.5887  1.0912
23806SOL    HW272860   1.218   6.148   2.796 -0.3320  0.7457 -1.4179
23807SOL     OW72861   4.549   5.614   8.405  0.5333  0.0292  0.2779
23807SOL    HW172862   4.577   5.551   8.471  2.3753  0.8396  0.3351
23807SOL    HW272863   4.627   5.630   8.353 -0.4900  0.5603 -1.1676
23808SOL     OW72864   2.794   0.293   9.530  0.4271 -0.0471  0.1146
23808SOL    HW172865   2.815   0.379   9.568  2.2002 -0.7943  0.9282
23808SOL    HW272866   2.754   0.313   9.446 -1.4684  1.6237  1.3087
23809SOL     OW72867   4.473   5.400   4.752 -0.2478 -0.3387 -0.3194
23809SOL    HW172868   4.544   5.434   4.807  2.4757 -2.8240 -1.9890
23809SOL    HW272869   4.423   5.342   4.809  1.5194 -1.6066  0.0247
23810SOL     OW72870   2.062   0.859   6.037 -0.4117 -0.0909 -0.4954
23810SOL    HW172871   2.044   0.800   5.963  0.2583 -1.3289  0.2842
23810SOL    HW272872   2.045   0.946   6.003  1.1062 -0.5138 -2.5390
23811SOL     OW72873   7.514   2.982   4.722  0.0572 -0.9253 -0.5783
23811SOL    HW172874   7.555   3.067   4.740 -0.9470 -0.8942  1.9746
23811SOL    HW272875   7.554   2.922   4.786 -0.6553 -1.9098 -1.0385
23812SOL     OW72876   4.019   0.049   4.154 -0.0302 -0.0646 -0.2147
23812SOL    HW172877   3.952  -0.003   4.109 -0.3808  0.2299 -0.0299
23812SOL    HW272878   4.083   0.068   4.085  0.4584 -1.3166 -0.1374
23813SOL     OW72879   5.746   2.026   3.427 -0.4005 -0.0649  0.0832
23813SOL    HW172880   5.771   1.939   3.457  0.9829 -0.6966 -2.5783
23813SOL    HW272881   5.821   2.082   3.448 -1.2358  0.5022  1.6780
23814SOL     OW72882   0.162   1.384   7.185  0.2489  0.6730 -0.0292
23814SOL    HW172883   0.167   1.452   7.119  0.9959 -0.2474 -0.9629
23814SOL    HW272884   0.206   1.421   7.262  1.9038  0.7635 -0.9787
23815SOL     OW72885   7.266   4.872  11.828 -0.1965 -0.2086 -0.2586
23815SOL    HW172886   7.216   4.866  11.746 -3.1243 -1.2927  1.4495
23815SOL    HW272887   7.338   4.810  11.817  0.6878  1.1013 -2.6893
23816SOL     OW72888   3.734   0.959  12.260 -0.8079  0.0852 -0.1518
23816SOL    HW172889   3.748   0.968  12.166 -1.5560 -0.9608 -0.3860
23816SOL    HW272890   3.707   0.867  12.271 -1.4024  0.3798  0.9842
23817SOL     OW72891   4.641   6.540  11.965  0.4996 -0.3245  0.8383
23817SOL    HW172892   4.626   6.590  12.045 -1.5301  0.4664  0.0495
23817SOL    HW272893   4.625   6.449  11.990 -1.1080  0.0090  1.1844
23818SOL     OW72894   1.082   6.803  10.776  0.2627  0.5173 -0.5355
23818SOL    HW172895   1.040   6.826  10.858  0.7108  1.0371 -0.4516
23818SOL    HW272896   1.067   6.708  10.768 -0.2871  0.5664 -0.1521
23819SOL     OW72897   3.985   6.950   4.771 -0.0506  0.1021  0.2131
23819SOL    HW172898   3.940   7.004   4.836  0.9525  0.0594  0.9709
23819SOL    HW272899   4.047   7.009   4.728  0.1630 -0.1518  0.1649
23820SOL     OW72900   2.622   3.909  10.875  0.2347  0.4361 -0.0542
23820SOL    HW172901   2.572   3.836  10.909  1.4604 -0.3023  0.2421
23820SOL    HW272902   2.610   3.979  10.939 -2.4866  1.2170 -1.2706
23821SOL     OW72903   0.664   2.116   2.464  0.3052 -0.4764  0.2532
23821SOL    HW172904   0.681   2.210   2.474  0.6845 -0.2817 -1.8710
23821SOL    HW272905   0.663   2.083   2.554  1.8489  1.2615  0.9887
23822SOL     OW72906   1.533   5.386  12.129  0.1240  0.2928  0.0273
23822SOL    HW172907   1.563   5.306  12.086 -1.7329 -0.4060 -0.0872
23822SOL    HW272908   1.555   5.456  12.067  1.7500 -0.1124  0.1207
23823SOL     OW72909   7.395   7.399   2.649  0.1831 -0.0120 -0.1750
23823SOL    HW172910   7.378   7.436   2.735 -0.3045 -1.8154  0.5427
23823SOL    HW272911   7.309   7.369   2.618  0.5991 -0.8572 -0.5556
23824SOL     OW72912   6.681   3.835   4.601  0.6789 -0.3157 -0.1220
23824SOL    HW172913   6.774   3.811   4.592  0.5208 -2.1462  2.0781
23824SOL    HW272914   6.654   3.792   4.682 -1.7560  1.3530  0.0333
23825SOL     OW72915   1.435   4.836  10.394 -0.6826  0.1885  0.1941
23825SOL    HW172916   1.352   4.845  10.348 -0.9116  0.0081  0.5614
23825SOL    HW272917   1.410   4.812  10.484 -0.2610  0.9532  0.5229
23826SOL     OW72918   1.610   1.427  12.284 -0.0485 -0.2100  0.3273
23826SOL    HW172919   1.519   1.412  12.312 -0.7332  0.9126 -1.1265
23826SOL    HW272920   1.660   1.359  12.327 -1.4789 -0.4175  1.7546
23827SOL     OW72921   2.615   0.488  12.231  0.3835  0.0732 -0.1809
23827SOL    HW172922   2.627   0.581  12.251 -0.4728 -0.1488  1.4550
23827SOL    HW272923   2.624   0.443  12.315  1.2764 -1.3980 -1.0164
23828SOL     OW72924   6.880   6.262   8.855  0.5258  0.5218 -0.4664
23828SOL    HW172925   6.956   6.260   8.798  0.7069  1.0286 -0.2494
23828SOL    HW272926   6.902   6.327   8.922  0.3278 -0.0793  0.1965
23829SOL     OW72927   5.586   1.814   3.041  0.1248 -0.1048  0.3913
23829SOL    HW172928   5.654   1.827   2.974  1.0184  0.1776  1.3154
23829SOL    HW272929   5.505   1.841   2.999  0.7690  0.7347 -0.3566
23830SOL     OW72930   1.162   7.203  10.918  0.0726 -0.0413 -0.8217
23830SOL    HW172931   1.208   7.283  10.942 -1.2948  0.7856 -0.8533
23830SOL    HW272932   1.173   7.196  10.823  0.5783 -0.1463 -0.7564
23831SOL     OW72933   6.097   4.958  10.358 -0.5139  0.4176 -0.3715
23831SOL    HW172934   6.120   5.037  10.408 -1.1047  0.7163 -0.5576
23831SOL    HW272935   6.002   4.955  10.362 -0.4652 -2.1824  2.5237
23832SOL     OW72936   5.605   2.305   4.484  0.0958  0.7483 -0.4908
23832SOL    HW172937   5.653   2.255   4.418 -0.4844 -0.5093  0.0036
23832SOL    HW272938   5.657   2.295   4.564 -0.8360 -0.4487 -0.0023
23833SOL     OW72939   4.820   7.311   3.979  0.1239 -0.1615 -0.3130
23833SOL    HW172940   4.815   7.362   4.060  3.1815  0.2523 -0.2780
23833SOL    HW272941   4.810   7.220   4.007 -0.9732  0.0996  0.2014
23834SOL     OW72942   2.004   7.541   8.178  0.3480 -0.2391  0.0340
23834SOL    HW172943   2.044   7.595   8.247  0.4788 -0.8897  0.4748
23834SOL    HW272944   1.913   7.531   8.206  0.7107 -1.5738  0.7937
23835SOL     OW72945   2.799   2.724   9.363  0.3357 -0.3317 -0.1272
23835SOL    HW172946   2.851   2.658   9.409 -0.4887 -0.4294  0.7051
23835SOL    HW272947   2.856   2.802   9.360 -0.3309  0.4227  3.1008
23836SOL     OW72948   7.840   4.582  11.745 -0.4105 -0.3066  0.0330
23836SOL    HW172949   7.859   4.643  11.674  0.4258 -0.3786  0.1872
23836SOL    HW272950   7.784   4.515  11.705  0.2979 -0.5130 -0.6404
23837SOL     OW72951   5.330   6.108   5.396  0.1152 -0.0807  0.0247
23837SOL    HW172952   5.343   6.149   5.482 -0.3980  0.1059  0.0214
23837SOL    HW272953   5.311   6.016   5.417  1.6658 -0.4326  0.0093
23838SOL     OW72954   4.959   7.385   8.703 -0.0673  0.1522 -0.1126
23838SOL    HW172955   5.033   7.379   8.763  0.4445 -1.1210 -0.8308
23838SOL    HW272956   4.978   7.321   8.635 -1.0599  0.9346 -1.1719
23839SOL     OW72957   3.961   4.027   5.530 -0.1135  0.2096  0.2810
23839SOL    HW172958   3.987   4.066   5.613  0.8830 -1.4186  0.7807
23839SOL    HW272959   3.953   4.101   5.470  0.6968  1.2624  1.4233
23840SOL     OW72960   0.542   1.621  10.758 -0.1079  0.3742  0.1970
23840SOL    HW172961   0.455   1.584  10.746 -0.5794  1.6558 -0.6043
23840SOL    HW272962   0.533   1.678  10.835 -0.3821  1.5735 -0.6914
23841SOL     OW72963   6.434   0.547   3.219 -0.0054 -0.6090 -0.0780
23841SOL    HW172964   6.417   0.515   3.131 -0.5139 -0.8380  0.0966
23841SOL    HW272965   6.363   0.510   3.272  0.5216 -0.7941  0.5005
23842SOL     OW72966   4.631   1.828   2.655 -0.2440 -0.4241 -0.0365
23842SOL    HW172967   4.687   1.833   2.577  0.9227  0.5133  0.8163
23842SOL    HW272968   4.543   1.813   2.621  0.3753 -0.8967 -1.4799
23843SOL     OW72969   2.722   2.317   1.312 -0.0361  0.0854 -0.3225
23843SOL    HW172970   2.768   2.242   1.275 -1.2462 -1.0534  0.3593
23843SOL    HW272971   2.772   2.340   1.390  1.3122  1.1270 -1.4560
23844SOL     OW72972   3.519   7.669   5.220  0.7341 -0.5938  0.2040
23844SOL    HW172973   3.475   7.671   5.135  1.3471 -3.3626 -0.2425
23844SOL    HW272974   3.450   7.643   5.282  0.3708  1.0850  0.5605
23845SOL     OW72975   5.053   7.558   3.596 -0.2183 -0.6304  0.7223
23845SOL    HW172976   5.105   7.478   3.589 -0.8405 -0.9665 -0.2293
23845SOL    HW272977   4.981   7.546   3.535  0.6017  1.3592 -0.7924
23846SOL     OW72978   0.293   6.816   6.332 -0.5877 -0.8238 -0.0362
23846SOL    HW172979   0.251   6.741   6.289 -0.8161 -0.1786 -0.9784
23846SOL    HW272980   0.251   6.893   6.293 -1.0631 -0.1993  1.6414
23847SOL     OW72981   3.850   2.584   3.778  0.0157 -0.0804  0.4028
23847SOL    HW172982   3.920   2.576   3.843  0.8294  1.2288 -0.2661
23847SOL    HW272983   3.771   2.555   3.824  0.5211  1.0170  2.0502
23848SOL     OW72984   5.794   1.926   4.992 -0.0268  0.1726 -0.0363
23848SOL    HW172985   5.714   1.957   5.036 -0.4016 -1.8397  0.8321
23848SOL    HW272986   5.764   1.853   4.938  1.2382 -0.6212  0.3156
23849SOL     OW72987   3.749   4.502   9.205  0.1523 -0.3866  0.6885
23849SOL    HW172988   3.722   4.563   9.274  0.6895 -0.4438  0.9626
23849SOL    HW272989   3.820   4.548   9.160 -0.5112 -0.1541 -0.1380
23850SOL     OW72990   6.588   1.200  10.732 -0.3910  0.3567  0.1149
23850SOL    HW172991   6.665   1.255  10.747  0.2634 -0.7011  0.7478
23850SOL    HW272992   6.536   1.208  10.812 -1.4375  1.8054 -0.6727
23851SOL     OW72993   5.492   7.096   6.178  0.0730 -0.7116 -0.0734
23851SOL    HW172994   5.579   7.129   6.155 -0.1325  0.3936  0.6534
23851SOL    HW272995   5.467   7.147   6.255 -0.8735 -1.6042  0.2263
23852SOL     OW72996   6.762   5.032   5.840 -0.2312  0.2764 -0.1545
23852SOL    HW172997   6.705   5.050   5.915 -0.6056  0.0877 -0.3943
23852SOL    HW272998   6.795   4.944   5.855 -0.1135  0.3314 -0.0888
23853SOL     OW72999   2.859   7.782   7.644 -0.2872  0.2288  0.5790
23853SOL    HW173000   2.790   7.718   7.624 -0.7690  0.7488  0.5597
23853SOL    HW273001   2.877   7.825   7.560  2.1669 -1.8862 -0.1312
23854SOL     OW73002   7.139   0.768   7.793 -0.2463  0.1229  0.0594
23854SOL    HW173003   7.204   0.719   7.843 -0.9791 -2.5894 -1.4121
23854SOL    HW273004   7.058   0.757   7.843 -0.1566  1.1042  0.4451
23855SOL     OW73005   3.380   3.500   2.584  0.3573  0.0388 -0.1108
23855SOL    HW173006   3.413   3.522   2.497 -0.0908  0.3396 -0.2133
23855SOL    HW273007   3.285   3.491   2.571  0.3013 -0.0088  0.3276
23856SOL     OW73008   7.764   7.211   5.104 -0.1045 -0.2271 -0.3712
23856SOL    HW173009   7.761   7.299   5.142 -0.2068  0.7815 -2.5508
23856SOL    HW273010   7.687   7.167   5.140 -0.1186  0.5996  0.6672
23857SOL     OW73011   7.914   1.526   1.307  0.2516  0.3250 -0.1631
23857SOL    HW173012   7.879   1.614   1.320 -1.2197 -0.0220 -1.5592
23857SOL    HW273013   7.865   1.471   1.367 -0.8768  0.0180 -1.3329
23858SOL     OW73014   2.828   4.500   9.808  0.0616 -0.4404  0.1316
23858SOL    HW173015   2.815   4.437   9.737 -0.2825  0.0825 -0.2764
23858SOL    HW273016   2.911   4.473   9.849  1.2973  0.4078 -1.6971
23859SOL     OW73017   3.992   0.165  11.312 -0.0142  0.0773  0.1428
23859SOL    HW173018   3.976   0.172  11.406  0.1223  3.4824  0.0298
23859SOL    HW273019   4.087   0.174  11.303  0.0794 -1.1366 -0.3166
23860SOL     OW73020   4.999   6.543   1.047 -0.3589  0.0151 -0.1756
23860SOL    HW173021   4.990   6.638   1.038  0.9202  0.1360 -0.3389
23860SOL    HW273022   5.060   6.518   0.977 -1.8436 -1.1601 -1.1219
23861SOL     OW73023   3.373   6.892  11.620  0.0793 -0.5304 -0.2077
23861SOL    HW173024   3.407   6.945  11.692 -0.7534 -1.0829  0.6099
23861SOL    HW273025   3.451   6.863  11.572  0.8914 -2.3638  2.0258
23862SOL     OW73026   2.079   0.841   9.994 -0.5096 -0.1008  0.2385
23862SOL    HW173027   2.048   0.834   9.904 -1.7356  0.4692  0.5900
23862SOL    HW273028   2.161   0.792   9.995 -0.2390  0.2595 -1.2849
23863SOL     OW73029   6.225   5.404   6.378  0.1237  0.0472 -0.7509
23863SOL    HW173030   6.150   5.344   6.375  1.1703 -1.6890  2.7908
23863SOL    HW273031   6.290   5.364   6.320  0.1580 -1.3292  0.1954
23864SOL     OW73032   0.353   3.038   9.723  0.1992  0.1323 -0.2263
23864SOL    HW173033   0.395   3.103   9.667 -0.3454  0.7496  0.0673
23864SOL    HW273034   0.383   2.954   9.688 -1.1732  0.4322 -2.3101
23865SOL     OW73035   3.892   2.763   5.039  0.4552  0.1082 -0.6081
23865SOL    HW173036   3.956   2.723   5.097  0.7538 -0.7472 -1.5193
23865SOL    HW273037   3.943   2.805   4.970  0.2194  2.8962  0.7569
23866SOL     OW73038   6.293   5.797  12.373  0.0919  0.2652  0.3810
23866SOL    HW173039   6.261   5.773  12.286 -2.2420  0.7989  1.0433
23866SOL    HW273040   6.284   5.717  12.425  1.0721  0.0677  0.2646
23867SOL     OW73041   3.085   3.279   3.282 -0.3851  0.3375  0.2848
23867SOL    HW173042   3.137   3.303   3.359  3.0123 -1.3696 -1.2885
23867SOL    HW273043   3.059   3.188   3.297  1.0851 -0.3150 -0.8893
23868SOL     OW73044   4.320   1.029   6.687  0.4330 -0.1874  0.3155
23868SOL    HW173045   4.406   1.070   6.678  0.3429  0.1973  1.1167
23868SOL    HW273046   4.331   0.941   6.652  0.9894  0.0656 -0.1585
23869SOL     OW73047   0.573   1.787   8.696  0.3976  0.1619 -0.4703
23869SOL    HW173048   0.665   1.808   8.682  0.2250  1.3811  0.1674
23869SOL    HW273049   0.528   1.828   8.622  0.4464 -1.3910 -1.4207
23870SOL     OW73050   1.571   2.353   8.267 -0.2277  0.4030 -0.1910
23870SOL    HW173051   1.608   2.281   8.318  1.2331  0.8756 -0.5593
23870SOL    HW273052   1.563   2.318   8.178  0.7735  0.7786 -0.4372
23871SOL     OW73053   4.758   2.570   7.920 -0.8698 -0.5655  0.0698
23871SOL    HW173054   4.849   2.572   7.950 -0.1599  0.3894 -1.9895
23871SOL    HW273055   4.718   2.647   7.961 -0.3746 -0.2266 -0.0755
23872SOL     OW73056   3.868   1.114   4.614  0.0972 -0.1295  0.3033
23872SOL    HW173057   3.865   1.113   4.518 -0.0966  0.4971  0.3020
23872SOL    HW273058   3.961   1.117   4.635  0.1288  0.0863  0.1323
23873SOL     OW73059   2.229   6.601   4.807 -0.3832 -0.3178 -0.3477
23873SOL    HW173060   2.249   6.541   4.735 -0.8864 -2.1174  0.9291
23873SOL    HW273061   2.281   6.679   4.788  0.4691 -1.2184 -1.9903
23874SOL     OW73062   4.819   2.539   0.757 -0.7002 -0.0379  0.6439
23874SOL    HW173063   4.786   2.608   0.815 -0.9945  0.7800 -0.4569
23874SOL    HW273064   4.785   2.458   0.794 -1.6550  0.5494  1.0931
23875SOL     OW73065   1.056   6.660  10.039 -0.1058  0.0922  0.5463
23875SOL    HW173066   1.067   6.720   9.965 -0.5079  0.2594  0.6204
23875SOL    HW273067   1.081   6.713  10.115 -0.6231  0.2198  0.6295
23876SOL     OW73068   2.967   4.999   6.283  0.3467  0.1074  0.1435
23876SOL    HW173069   3.002   4.925   6.234 -0.1266  0.7776 -1.2636
23876SOL    HW273070   2.946   5.064   6.216 -3.2096 -0.0783  0.9037
23877SOL     OW73071   5.882   5.256   2.584  0.4635 -0.0164  0.3127
23877SOL    HW173072   5.845   5.216   2.662 -0.2806 -0.6220 -0.3257
23877SOL    HW273073   5.968   5.216   2.574 -0.0159 -1.0031  0.0415
23878SOL     OW73074   6.587   7.426  10.936  0.5847  0.1615  0.1720
23878SOL    HW173075   6.576   7.345  10.986  3.0748  0.2002  0.9515
23878SOL    HW273076   6.581   7.399  10.845 -2.7821 -0.1298  0.3483
23879SOL     OW73077   3.711   4.223   9.159 -0.0846  0.5943 -0.0436
23879SOL    HW173078   3.686   4.197   9.070 -1.2078  0.2081  0.3641
23879SOL    HW273079   3.728   4.317   9.154  0.9298  0.3847 -0.8801
23880SOL     OW73080   5.325   4.228   1.285 -0.2916 -0.4326  0.1207
23880SOL    HW173081   5.396   4.187   1.335 -1.0798 -0.5582  1.1703
23880SOL    HW273082   5.254   4.164   1.287 -0.7483  0.0527 -0.1660
23881SOL     OW73083   0.017   3.199   4.200  0.4242  0.0909 -0.3582
23881SOL    HW173084   0.017   3.215   4.106 -1.7255 -0.7588 -0.5722
23881SOL    HW273085  -0.043   3.265   4.236 -0.0984 -0.6343  0.1521
23882SOL     OW73086   0.977   0.631   3.736 -0.3972  0.0618 -0.1733
23882SOL    HW173087   1.050   0.691   3.723  0.8946 -1.3064  0.3855
23882SOL    HW273088   1.016   0.544   3.727 -1.9298 -0.7095  0.3175
23883SOL     OW73089   3.715   2.507  10.880 -0.4921 -0.4195 -0.4266
23883SOL    HW173090   3.727   2.545  10.793  2.5533 -2.3152 -1.0034
23883SOL    HW273091   3.738   2.577  10.941 -0.4522  0.2911 -1.2514
23884SOL     OW73092   0.295   2.884   5.141  0.3749  0.2411  0.0041
23884SOL    HW173093   0.247   2.868   5.059  1.8598 -0.8673 -0.7019
23884SOL    HW273094   0.381   2.917   5.112  0.6309  0.6202  1.1589
23885SOL     OW73095   5.425   4.538   8.668  0.3024  0.0872  0.8322
23885SOL    HW173096   5.338   4.554   8.704 -1.3248  1.0562 -3.0586
23885SOL    HW273097   5.461   4.626   8.652  1.0625 -0.2934  0.3946
23886SOL     OW73098   7.541   7.197  11.436  0.3827 -0.0360  0.0235
23886SOL    HW173099   7.495   7.276  11.466  4.0076  1.5690  2.0403
23886SOL    HW273100   7.499   7.126  11.484 -0.8054  1.1122  0.7729
23887SOL     OW73101   6.794   0.701   8.964  0.1685 -0.5622 -0.3449
23887SOL    HW173102   6.711   0.655   8.979  0.6327 -0.7557  1.9611
23887SOL    HW273103   6.854   0.661   9.026  1.9033 -0.1025 -1.6622
23888SOL     OW73104   2.055   2.317  11.774 -0.3059  0.6008 -0.3502
23888SOL    HW173105   2.147   2.335  11.797 -0.0832 -1.3504  0.5102
23888SOL    HW273106   2.061   2.258  11.699 -0.8691  0.8284 -0.5724
23889SOL     OW73107   7.057   1.342   5.122 -0.4057 -0.4719 -0.1796
23889SOL    HW173108   7.133   1.349   5.065 -0.1535  1.1779  0.2962
23889SOL    HW273109   7.092   1.310   5.205 -0.6648 -2.2012 -0.7036
23890SOL     OW73110   5.738   7.307   9.429  0.3293 -0.0022 -0.7444
23890SOL    HW173111   5.646   7.281   9.431  0.1896  0.5293  0.0288
23890SOL    HW273112   5.741   7.383   9.371  0.1979  0.2965 -0.3584
23891SOL     OW73113   5.216   1.466   6.949 -0.0465  0.0645 -0.6150
23891SOL    HW173114   5.276   1.495   6.880  1.1954  1.0410  0.8115
23891SOL    HW273115   5.242   1.517   7.026 -3.9631  2.0490 -0.3711
23892SOL     OW73116   7.130   3.523   5.027  1.0268 -0.4134 -0.6518
23892SOL    HW173117   7.112   3.594   5.088  1.3221 -1.1414  0.3259
23892SOL    HW273118   7.169   3.454   5.082 -0.4493 -1.8455 -1.2952
23893SOL     OW73119   1.774   3.620   3.980  0.4290  0.3388 -0.2403
23893SOL    HW173120   1.702   3.675   3.948  0.5003  0.4580 -0.1964
23893SOL    HW273121   1.844   3.682   4.000  0.0629  0.3765  1.0537
23894SOL     OW73122   1.144   2.397   5.705 -0.2232 -0.2271  0.5704
23894SOL    HW173123   1.134   2.317   5.654 -0.2782 -0.2807  0.6642
23894SOL    HW273124   1.064   2.403   5.757 -0.4800  0.1996  0.1322
23895SOL     OW73125   3.815   1.776   3.479  0.0871 -0.1023 -0.2887
23895SOL    HW173126   3.833   1.828   3.557  2.7668 -1.7315  0.2939
23895SOL    HW273127   3.813   1.840   3.408  1.8756  0.9709  0.5595
23896SOL     OW73128   7.763   0.971   1.429 -0.0868  0.4580 -0.4484
23896SOL    HW173129   7.691   0.911   1.450  0.0931  0.2459 -0.4394
23896SOL    HW273130   7.841   0.927   1.462  0.3295 -0.3420 -2.4018
23897SOL     OW73131   3.913   4.869  10.894  0.5396  0.0422 -0.1178
23897SOL    HW173132   3.971   4.917  10.835  1.0538  1.8938  1.7612
23897SOL    HW273133   3.857   4.937  10.932 -1.5454 -1.4434 -0.3695
23898SOL     OW73134   2.698   6.421   0.062 -0.4050 -0.4351  0.1240
23898SOL    HW173135   2.714   6.327   0.069  0.7789 -0.3505 -1.1631
23898SOL    HW273136   2.689   6.451   0.153  0.0814 -1.6314  0.5790
23899SOL     OW73137   7.907   7.573   3.395  0.2872  0.3458  0.1118
23899SOL    HW173138   7.831   7.613   3.352 -0.2933 -0.7831  0.0649
23899SOL    HW273139   7.982   7.616   3.355 -0.2719  0.1751 -1.1667
23900SOL     OW73140   6.613   7.373   8.892  0.2372  0.1612  0.3204
23900SOL    HW173141   6.579   7.288   8.922 -0.2242  0.8828  1.9257
23900SOL    HW273142   6.703   7.354   8.865 -0.3999 -1.1700 -1.0362
23901SOL     OW73143   3.279   1.990  10.818  0.3997  0.7892  0.2910
23901SOL    HW173144   3.265   2.051  10.746  2.3456  0.1538 -0.7024
23901SOL    HW273145   3.344   1.929  10.785 -0.4628 -1.0141  1.7529
23902SOL     OW73146   4.638   1.717   2.889  0.7291  0.4301  0.3996
23902SOL    HW173147   4.623   1.756   2.803 -0.8922 -1.2169 -0.1066
23902SOL    HW273148   4.722   1.671   2.880  0.2522 -0.2902 -0.5268
23903SOL     OW73149   5.326   2.670   6.700 -0.5976 -1.1494 -0.1814
23903SOL    HW173150   5.363   2.712   6.622  0.4607  1.1625  1.4217
23903SOL    HW273151   5.378   2.591   6.712 -0.1949 -1.0742 -1.3558
23904SOL     OW73152   2.045   5.579   1.689 -0.6381 -0.0095  0.1502
23904SOL    HW173153   2.114   5.635   1.724 -0.4653 -0.6487  0.8828
23904SOL    HW273154   2.058   5.495   1.733  1.8788 -2.1283 -4.0078
23905SOL     OW73155   4.992   1.762   5.922  0.4074 -0.2390 -0.3191
23905SOL    HW173156   4.961   1.823   5.856 -1.2366  0.1947  0.7973
23905SOL    HW273157   5.043   1.816   5.983 -0.3465 -0.1282  0.2188
23906SOL     OW73158   1.049   4.989  11.848 -0.6578 -0.6405  0.2441
23906SOL    HW173159   1.093   5.056  11.796 -0.1243 -0.7673  0.5277
23906SOL    HW273160   1.001   5.039  11.915  1.7652 -0.5776  2.0664
23907SOL     OW73161   2.436   5.329   9.498 -0.0209  0.4185  0.3733
23907SOL    HW173162   2.373   5.305   9.430  1.2006 -2.0367  0.0067
23907SOL    HW273163   2.507   5.373   9.451  0.5186 -0.6966  0.1127
23908SOL     OW73164   3.165   2.339  11.186  0.1791  0.8078 -0.4089
23908SOL    HW173165   3.158   2.258  11.134 -0.3820  1.0888 -0.7911
23908SOL    HW273166   3.253   2.371  11.169  0.6561 -0.0683  0.2806
23909SOL     OW73167   1.044   6.404   6.556  0.2794  0.1167  0.1936
23909SOL    HW173168   1.064   6.414   6.650  0.8389  0.1764  0.0727
23909SOL    HW273169   1.038   6.309   6.543  0.3943  0.1020  0.2502
23910SOL     OW73170   7.601   2.119   8.130 -0.5512  0.6348  0.2306
23910SOL    HW173171   7.628   2.195   8.078 -1.9493  1.1863  0.2611
23910SOL    HW273172   7.667   2.113   8.200  1.1590  0.0961 -1.3432
23911SOL     OW73173   0.485   3.178   1.190  0.3469  0.2120  0.0801
23911SOL    HW173174   0.479   3.148   1.280  1.3403  0.6337  0.3024
23911SOL    HW273175   0.434   3.114   1.140 -0.9702  0.4884  1.0371
23912SOL     OW73176   0.093   7.388   8.447  0.0878  0.2507 -0.0391
23912SOL    HW173177   0.010   7.426   8.477  0.0800  0.2716 -0.0874
23912SOL    HW273178   0.113   7.320   8.511  0.9077  1.3803  0.9357
23913SOL     OW73179   2.545   2.000   2.226  0.9769 -0.1487  0.3862
23913SOL    HW173180   2.611   1.957   2.172  2.6611  0.5725  1.7507
23913SOL    HW273181   2.560   1.965   2.314  0.9931  1.6298  1.1319
23914SOL     OW73182   1.606   4.586   1.198 -0.2616  0.0647  0.0866
23914SOL    HW173183   1.701   4.596   1.188 -0.3140  0.9234  0.3867
23914SOL    HW273184   1.578   4.666   1.241 -1.5867  1.3014 -2.8306
23915SOL     OW73185   2.978   7.006  11.277 -0.6790 -0.0361 -0.0255
23915SOL    HW173186   3.023   7.062  11.214 -0.9352 -1.3337 -1.4173
23915SOL    HW273187   2.990   6.917  11.244  1.5680 -1.1425  3.2377
23916SOL     OW73188   3.235   7.641   0.578 -0.2847 -0.3058 -0.4072
23916SOL    HW173189   3.330   7.646   0.589 -0.1424 -1.9326 -0.7406
23916SOL    HW273190   3.212   7.723   0.534  0.5599  1.4092  2.0869
23917SOL     OW73191   3.424   2.236  10.707 -0.7562 -0.2037  0.2850
23917SOL    HW173192   3.392   2.308  10.762  0.3336  1.2112 -0.8436
23917SOL    HW273193   3.347   2.209  10.657 -0.7238  1.9408 -1.0919
23918SOL     OW73194   7.357   5.655   4.599 -0.1215 -0.2344 -0.5493
23918SOL    HW173195   7.288   5.602   4.558  1.0961 -2.0802 -0.3234
23918SOL    HW273196   7.328   5.665   4.690 -0.6122 -0.0706 -0.7202
23919SOL     OW73197   5.595   0.610   4.103  0.1450 -0.5168 -0.1648
23919SOL    HW173198   5.574   0.703   4.090 -0.2557 -0.7773 -1.5390
23919SOL    HW273199   5.640   0.584   4.023 -0.3086 -1.6623 -0.0665
23920SOL     OW73200   0.868   3.356   8.324  0.3638  0.0659 -0.3887
23920SOL    HW173201   0.925   3.313   8.387  1.0655  0.7989 -0.5078
23920SOL    HW273202   0.796   3.295   8.311  1.6923 -1.4271 -1.1248
23921SOL     OW73203   7.924   6.192   1.873  0.0205  0.0471 -0.6791
23921SOL    HW173204   7.869   6.217   1.947  1.4285 -1.1080  0.8578
23921SOL    HW273205   7.896   6.104   1.850  0.3349 -0.0367 -0.7537
23922SOL     OW73206   6.318   3.150   8.474 -0.5728 -0.0917 -0.3499
23922SOL    HW173207   6.225   3.168   8.461 -0.4880  0.2255 -0.5176
23922SOL    HW273208   6.331   3.161   8.569 -0.5904  0.4317 -0.4019
23923SOL     OW73209   4.072   4.165   4.394 -0.3981  0.2545 -0.2113
23923SOL    HW173210   4.015   4.236   4.366 -0.7144 -0.7251 -2.2455
23923SOL    HW273211   4.013   4.104   4.440 -0.4232  0.5697  0.1784
23924SOL     OW73212   0.682   0.959   7.135 -0.7406  0.0246 -0.2291
23924SOL    HW173213   0.771   0.939   7.106  0.0972  1.4376  1.1828
23924SOL    HW273214   0.630   0.958   7.055  0.6468 -0.3099 -1.1660
23925SOL     OW73215   2.702   7.118  12.214 -0.1053 -0.0139 -0.1889
23925SOL    HW173216   2.794   7.094  12.203 -0.1279 -0.4962  0.5961
23925SOL    HW273217   2.693   7.137  12.308 -0.6930  0.5191 -0.3440
23926SOL     OW73218   0.156   5.775   5.763 -0.4596 -0.2768  0.3993
23926SOL    HW173219   0.224   5.758   5.698 -1.8059 -1.1330 -0.8411
23926SOL    HW273220   0.163   5.868   5.781  1.0002 -0.3356  0.2741
23927SOL     OW73221   4.743   6.708   7.679 -0.0550  0.1080  0.1585
23927SOL    HW173222   4.830   6.749   7.675 -0.5289  1.1423  0.2715
23927SOL    HW273223   4.722   6.705   7.772 -0.2533  0.0892  0.1135
23928SOL     OW73224   4.114   7.168   7.621 -0.3885  0.8664  0.4028
23928SOL    HW173225   4.208   7.173   7.637 -0.1915 -0.1776 -0.3142
23928SOL    HW273226   4.086   7.259   7.610  0.8148  1.0997 -0.9684
23929SOL     OW73227   2.590   1.378   0.889  0.4921 -0.5029 -0.6610
23929SOL    HW173228   2.654   1.346   0.952  0.3520 -0.8610 -0.6978
23929SOL    HW273229   2.543   1.446   0.936  0.5708 -0.5785 -0.4683
23930SOL     OW73230   7.742   1.717   3.595  0.0628  0.1675 -0.0215
23930SOL    HW173231   7.663   1.758   3.561 -0.1594  0.5578  0.9206
23930SOL    HW273232   7.797   1.703   3.519 -2.2700 -3.2767 -1.2887
23931SOL     OW73233   0.049   4.653   6.691 -0.3239  0.1435  0.7660
23931SOL    HW173234   0.053   4.725   6.628 -0.6259 -0.2118  0.3360
23931SOL    HW273235   0.039   4.696   6.776 -1.5818  0.5864  0.4135
23932SOL     OW73236   1.318   5.877  10.908 -0.1008 -0.5983  0.3284
23932SOL    HW173237   1.298   5.806  10.847 -1.7852  1.3202 -1.5416
23932SOL    HW273238   1.362   5.943  10.854 -2.0645  1.3850  0.9753
23933SOL     OW73239   0.892   2.740   6.516 -0.5137 -0.3570 -0.2874
23933SOL    HW173240   0.902   2.801   6.443 -1.5254 -2.3943 -2.2551
23933SOL    HW273241   0.980   2.732   6.553  0.2094  0.1581 -1.7996
23934SOL     OW73242   1.385   1.711   4.743 -0.5845  0.4054 -0.3339
23934SOL    HW173243   1.371   1.740   4.653  0.5723  0.1590 -0.6066
23934SOL    HW273244   1.410   1.619   4.735 -0.8180  0.2886  0.2665
23935SOL     OW73245   7.975   3.423   6.700 -0.0172  0.6570 -0.5780
23935SOL    HW173246   8.040   3.447   6.766 -1.3062 -1.1068  1.4596
23935SOL    HW273247   8.004   3.338   6.667 -1.6597 -0.6445  1.0769
23936SOL     OW73248   1.006   4.520   4.507 -0.4378  0.4148 -0.2830
23936SOL    HW173249   1.094   4.509   4.471 -0.6995  0.2012 -0.8674
23936SOL    HW273250   0.963   4.583   4.448 -0.5601  0.7991  0.2083
23937SOL     OW73251   1.823   6.286   3.678  0.1626  0.4961 -0.1053
23937SOL    HW173252   1.770   6.212   3.706 -1.5182  0.4874 -2.8964
23937SOL    HW273253   1.905   6.247   3.647  0.6979  0.2167  1.5868
23938SOL     OW73254   7.026   2.921   5.100  0.2748  0.1927  0.3960
23938SOL    HW173255   7.008   3.007   5.136 -0.3190 -0.5569  1.9672
23938SOL    HW273256   7.079   2.938   5.021 -0.4532  1.9999  0.2640
23939SOL     OW73257   0.509   5.629   8.441  0.5024  0.2871  0.0400
23939SOL    HW173258   0.592   5.639   8.395 -0.4703  0.2172 -1.8345
23939SOL    HW273259   0.462   5.561   8.391 -1.2553  1.3694  0.1396
23940SOL     OW73260   2.795   3.089   5.371  0.3977  0.2821 -0.0215
23940SOL    HW173261   2.765   3.010   5.327  0.6400  0.8521 -1.2757
23940SOL    HW273262   2.789   3.069   5.464  0.3644 -1.1643 -0.3127
23941SOL     OW73263   1.638   1.423   0.103 -0.1523  0.0011 -0.0461
23941SOL    HW173264   1.691   1.493   0.067  1.0146 -1.2637 -0.8850
23941SOL    HW273265   1.690   1.344   0.090 -0.8284 -0.8634  2.1114
23942SOL     OW73266   0.835   1.468   9.975  0.6065  0.0481 -0.0493
23942SOL    HW173267   0.749   1.477   9.933  0.1146 -0.6731  0.7728
23942SOL    HW273268   0.889   1.424   9.910  0.3829  0.5554 -0.5925
23943SOL     OW73269   3.189   7.648   3.876 -0.4692  0.3534  0.7008
23943SOL    HW173270   3.257   7.581   3.884 -0.7888 -0.0052  0.4410
23943SOL    HW273271   3.226   7.714   3.817  0.5972  1.3672  2.3968
23944SOL     OW73272   5.163   5.167   9.410 -0.0489  0.1773 -0.1560
23944SOL    HW173273   5.076   5.169   9.448 -1.0059  0.8767 -2.2150
23944SOL    HW273274   5.174   5.077   9.379  1.0546 -0.6147  2.3108
23945SOL     OW73275   3.185   0.773  11.872  0.1426  0.4224  0.1558
23945SOL    HW173276   3.109   0.791  11.926 -1.7153 -2.4652 -1.2558
23945SOL    HW273277   3.259   0.775  11.933 -1.0660  2.7390  1.6723
23946SOL     OW73278   3.047   6.399   5.409  0.3383  0.2460  0.5216
23946SOL    HW173279   2.995   6.353   5.343  0.6816  1.7372 -0.8523
23946SOL    HW273280   3.138   6.378   5.387  0.4531  0.7394  0.5159
23947SOL     OW73281   6.256   3.610  11.718 -0.8147 -0.0357 -0.0333
23947SOL    HW173282   6.315   3.632  11.645 -0.8902  0.0854 -0.0578
23947SOL    HW273283   6.274   3.677  11.784 -0.0000 -0.7418  0.4885
23948SOL     OW73284   5.407   3.304   9.060  0.7296 -0.6525  0.0829
23948SOL    HW173285   5.351   3.380   9.075  2.2577  1.2372 -2.7857
23948SOL    HW273286   5.422   3.268   9.147 -2.5000  0.4444  1.2697
23949SOL     OW73287   3.700   2.055   0.120 -0.1451  0.2192 -0.5906
23949SOL    HW173288   3.743   1.971   0.135 -0.7352  0.3132  2.1527
23949SOL    HW273289   3.747   2.093   0.046  3.9117 -0.1033  1.4973
23950SOL     OW73290   1.680   4.038   5.418 -0.1550  0.9655 -0.3117
23950SOL    HW173291   1.648   4.097   5.485  0.8776 -0.4246  1.5123
23950SOL    HW273292   1.772   4.023   5.442  0.4534  0.9505 -2.4560
23951SOL     OW73293   5.932   6.131   0.073  0.0337  0.0254  0.4107
23951SOL    HW173294   5.919   6.212   0.123 -0.8815 -0.4781  1.0200
23951SOL    HW273295   5.956   6.161  -0.015 -1.2968  0.9952  0.3387
23952SOL     OW73296   5.091   7.359   9.152 -0.0271  0.1194  0.0827
23952SOL    HW173297   5.079   7.394   9.241 -0.3440 -1.5856  0.7671
23952SOL    HW273298   5.180   7.383   9.129 -0.0637  0.9174  0.7112
23953SOL     OW73299   4.559   4.046   1.992 -0.0791 -0.4582 -0.9286
23953SOL    HW173300   4.544   3.988   1.917 -0.8690  0.1664 -1.2677
23953SOL    HW273301   4.501   4.120   1.977 -1.1733 -0.8802  0.9015
23954SOL     OW73302   3.293   4.628  11.925 -0.0423  0.2246 -0.0325
23954SOL    HW173303   3.259   4.592  12.007  2.3506 -0.8176  0.5757
23954SOL    HW273304   3.255   4.572  11.857  0.6340 -1.0868  0.6316
23955SOL     OW73305   1.117   0.481   8.375  1.0165  0.4217 -0.2963
23955SOL    HW173306   1.101   0.565   8.333 -1.0970  0.3570  0.3031
23955SOL    HW273307   1.165   0.430   8.309 -0.4477  1.0106 -1.8956
23956SOL     OW73308   7.586   4.299   6.253  0.1425 -0.3436  0.1163
23956SOL    HW173309   7.557   4.214   6.221  1.8936 -0.2645 -1.9334
23956SOL    HW273310   7.521   4.361   6.222 -0.8575 -0.8279  1.1656
23957SOL     OW73311   1.827   3.250   7.017  0.0936  0.0751  0.3369
23957SOL    HW173312   1.826   3.284   6.928 -0.5963 -0.4826  0.1293
23957SOL    HW273313   1.895   3.183   7.017  0.7955  0.7644  0.5037
23958SOL     OW73314   3.605   1.726  11.135 -0.2967 -0.3779  0.1847
23958SOL    HW173315   3.593   1.784  11.059 -1.3698 -0.4091  0.3072
23958SOL    HW273316   3.553   1.767  11.204  1.4572  0.1919  1.2363
23959SOL     OW73317   1.129   2.496   0.833 -0.1586 -0.1570 -0.3074
23959SOL    HW173318   1.175   2.445   0.900  1.0088  4.7688  3.1915
23959SOL    HW273319   1.037   2.491   0.859 -0.6947 -3.0919 -2.2360
23960SOL     OW73320   5.254   7.665  10.092 -0.3839  0.0716  0.0986
23960SOL    HW173321   5.165   7.654  10.059 -0.5554 -1.6819  1.0558
23960SOL    HW273322   5.244   7.671  10.187  0.5566 -0.6044  0.2509
23961SOL     OW73323   2.037   7.793   3.663  0.5657 -0.4620  0.9719
23961SOL    HW173324   2.102   7.864   3.670  0.3150  0.2769 -2.4219
23961SOL    HW273325   2.090   7.714   3.653  0.9316 -0.1964  0.7541
23962SOL     OW73326   2.291   1.043   3.173 -0.5455 -0.3215  0.1028
23962SOL    HW173327   2.384   1.063   3.185 -0.6506  1.5807 -1.6393
23962SOL    HW273328   2.247   1.086   3.246 -0.1832  0.1463  0.0484
23963SOL     OW73329   6.873   7.288   5.745 -0.2849 -0.1317 -0.0613
23963SOL    HW173330   6.911   7.304   5.659 -2.4417 -0.7249 -1.2038
23963SOL    HW273331   6.815   7.363   5.760 -0.3005 -0.2785  0.6393
23964SOL     OW73332   4.978   7.977   2.484  0.0076 -0.1270 -0.9518
23964SOL    HW173333   4.995   7.888   2.451 -0.4967 -0.2986 -0.7585
23964SOL    HW273334   4.922   7.963   2.560 -1.0130  0.4304 -1.5845
23965SOL     OW73335   3.839   3.470   9.135  0.1314 -0.7223 -0.1900
23965SOL    HW173336   3.754   3.476   9.091 -0.2311 -2.0135  0.2734
23965SOL    HW273337   3.893   3.419   9.075  0.4685 -0.2209 -0.3155
23966SOL     OW73338   3.129   6.372   9.019 -0.5602 -0.2476 -0.3632
23966SOL    HW173339   3.097   6.460   9.037  0.9877  0.2572  0.0699
23966SOL    HW273340   3.084   6.317   9.083  0.4661  0.6614  1.2092
23967SOL     OW73341   2.213   0.901  11.791 -0.2368 -0.3750  0.3645
23967SOL    HW173342   2.152   0.954  11.841 -0.3198 -1.7765  1.8195
23967SOL    HW273343   2.212   0.816  11.834  1.4879 -0.9276 -0.5903
23968SOL     OW73344   4.368   1.408   1.264  0.3432  0.0522  0.4256
23968SOL    HW173345   4.360   1.502   1.245 -0.6420 -0.1319 -0.1367
23968SOL    HW273346   4.382   1.367   1.179  0.8245 -0.3118  0.6748
23969SOL     OW73347   4.879   3.821   4.554  0.4191 -0.0819 -0.6304
23969SOL    HW173348   4.939   3.896   4.562  1.2392 -0.6384 -1.3992
23969SOL    HW273349   4.872   3.786   4.643  1.3544 -0.0988 -0.5530
23970SOL     OW73350   7.319   4.728   0.105 -0.1329  0.1067 -0.3475
23970SOL    HW173351   7.262   4.768   0.039 -0.7567 -1.0156 -0.5152
23970SOL    HW273352   7.394   4.697   0.055 -0.3369 -0.2355 -0.4416
23971SOL     OW73353   3.830   5.359   2.817 -0.3913 -0.2486  0.4660
23971SOL    HW173354   3.763   5.302   2.779  0.6150 -1.3775  0.2958
23971SOL    HW273355   3.861   5.311   2.894 -0.3985  0.6802  1.0525
23972SOL     OW73356   6.779   0.255   0.792  0.0608  0.2398  0.4191
23972SOL    HW173357   6.830   0.275   0.713 -0.3460  0.7877  0.2828
23972SOL    HW273358   6.832   0.191   0.840  2.0080  2.4093  1.4108
23973SOL     OW73359   2.243   1.450   8.728 -0.3458 -0.9022 -0.0128
23973SOL    HW173360   2.288   1.450   8.643 -0.0495  0.0705  0.1376
23973SOL    HW273361   2.154   1.423   8.707 -0.4286 -0.1214 -0.7311
23974SOL     OW73362   3.722   3.020   0.559  0.1630  0.2769 -0.0127
23974SOL    HW173363   3.634   2.986   0.542  0.1797  1.1874 -2.2491
23974SOL    HW273364   3.777   2.943   0.562 -0.4429 -0.1881 -0.4890
23975SOL     OW73365   0.753   7.616   7.336 -0.5682 -0.1469 -0.4133
23975SOL    HW173366   0.800   7.697   7.352  0.5070 -0.5442 -1.4633
23975SOL    HW273367   0.754   7.605   7.241 -0.7595 -1.3506 -0.2988
23976SOL     OW73368   5.565   1.753   4.910  0.4010  0.0978  0.2513
23976SOL    HW173369   5.498   1.687   4.889  0.9040  0.0073 -1.1584
23976SOL    HW273370   5.516   1.824   4.951 -0.4271 -0.3582  0.0833
23977SOL     OW73371   5.261   4.172   3.740  0.8355  0.0222 -0.1802
23977SOL    HW173372   5.292   4.212   3.822 -0.6101  0.7166  0.0643
23977SOL    HW273373   5.211   4.242   3.697 -1.0427 -1.2360 -0.1617
23978SOL     OW73374   7.186   1.907  11.458  0.0060  0.7223  0.1430
23978SOL    HW173375   7.137   1.885  11.537  1.5321  1.0929  1.2409
23978SOL    HW273376   7.259   1.844  11.457  0.7136  1.5360 -0.2631
23979SOL     OW73377   0.647   1.690   7.354 -0.2280  0.3742 -0.0890
23979SOL    HW173378   0.707   1.757   7.321 -0.5113  1.0814  0.8051
23979SOL    HW273379   0.613   1.726   7.436 -2.0204  0.0803 -0.6504
23980SOL     OW73380   1.613   7.098   5.438  0.7464  0.2311 -0.0726
23980SOL    HW173381   1.576   7.085   5.525 -1.1186  3.2936 -0.2855
23980SOL    HW273382   1.697   7.142   5.454  0.9662 -0.2731  0.1844
23981SOL     OW73383   0.551   7.322   8.006 -0.0191 -0.0998 -0.0775
23981SOL    HW173384   0.540   7.228   8.022 -0.6998 -0.1617 -0.8210
23981SOL    HW273385   0.610   7.352   8.075 -0.5106 -0.9025  0.7084
23982SOL     OW73386   3.583   2.236   1.002 -0.0370  0.5882  0.0896
23982SOL    HW173387   3.644   2.250   0.930 -0.5629 -0.5132 -0.5932
23982SOL    HW273388   3.585   2.141   1.016 -0.8287  0.6596  0.7358
23983SOL     OW73389   5.650   2.327  10.959  1.1062  0.2366  0.0924
23983SOL    HW173390   5.562   2.363  10.951  0.5935 -1.0848 -0.5117
23983SOL    HW273391   5.639   2.233  10.946  2.6142  0.0442  0.0034
23984SOL     OW73392   3.209   2.616   2.729  0.5916  0.1626  0.6169
23984SOL    HW173393   3.210   2.709   2.749  1.3361  0.4186 -0.5075
23984SOL    HW273394   3.168   2.610   2.643  0.9827 -0.4952  0.4628
23985SOL     OW73395   1.690   1.784   7.089  0.7084 -0.7291 -0.5610
23985SOL    HW173396   1.761   1.764   7.028  0.4516 -0.6065 -0.9100
23985SOL    HW273397   1.612   1.748   7.046  0.7962 -2.5046  0.6605
23986SOL     OW73398   6.660   7.115   3.236 -0.2010 -0.3345  0.4663
23986SOL    HW173399   6.617   7.036   3.269 -1.7180  0.1669 -0.2128
23986SOL    HW273400   6.590   7.165   3.195  0.7774  1.2664  0.6610
23987SOL     OW73401   2.950   6.171   9.152 -0.4559  0.1773  0.4022
23987SOL    HW173402   2.966   6.091   9.104 -2.0708  0.3782 -0.5221
23987SOL    HW273403   2.946   6.144   9.244 -0.9577 -0.8056  0.1011
23988SOL     OW73404   6.082   1.173   3.813  0.5133  0.4864  0.3647
23988SOL    HW173405   6.003   1.177   3.867  0.1915 -1.3137  0.0762
23988SOL    HW273406   6.050   1.147   3.727  1.4648 -0.7561  0.3716
23989SOL     OW73407   7.976   4.433  10.600 -0.4192 -0.5786 -0.0443
23989SOL    HW173408   7.883   4.447  10.617 -0.1799  1.5601 -0.2422
23989SOL    HW273409   7.979   4.386  10.517 -1.3136 -0.6381 -0.0480
23990SOL     OW73410   5.711   1.855   3.776 -0.1673 -0.4276  0.7314
23990SOL    HW173411   5.623   1.871   3.741  0.2016 -0.3709 -0.2175
23990SOL    HW273412   5.710   1.892   3.864 -0.7840  0.5222  0.3402
23991SOL     OW73413   5.069   2.122   2.852  0.6291  0.1181  0.2345
23991SOL    HW173414   5.158   2.093   2.870  0.0051 -1.6411  0.6908
23991SOL    HW273415   5.017   2.085   2.923 -0.2480  2.5780  0.9728
23992SOL     OW73416   4.492   7.111   8.363 -0.3694 -0.1148  0.3235
23992SOL    HW173417   4.471   7.200   8.392  1.0283  1.0586 -1.8951
23992SOL    HW273418   4.584   7.116   8.337 -0.4393 -2.0526 -0.4737
23993SOL     OW73419   3.460   0.151   3.916  0.4508 -0.1961 -0.1748
23993SOL    HW173420   3.419   0.065   3.918 -0.2045  0.1227  0.4048
23993SOL    HW273421   3.554   0.133   3.909  0.4399 -1.0060  1.4128
23994SOL     OW73422   3.807   1.043   1.284  0.2348 -0.3255 -0.3805
23994SOL    HW173423   3.794   1.133   1.257 -1.5031 -0.5711 -0.4677
23994SOL    HW273424   3.719   1.009   1.301  0.9703 -0.5893  4.4093
23995SOL     OW73425   6.858   0.491   3.627  0.1723 -0.3726  0.2531
23995SOL    HW173426   6.885   0.415   3.679  0.6005  0.3316  1.0712
23995SOL    HW273427   6.823   0.553   3.690  2.7485  1.4165  0.0651
23996SOL     OW73428   5.049   2.099  10.294  0.1694 -0.2206 -0.0328
23996SOL    HW173429   5.115   2.131  10.232 -0.7471  0.6189 -0.5990
23996SOL    HW273430   5.039   2.170  10.357 -0.4009 -0.2303 -0.1117
23997SOL     OW73431   1.290   6.745   2.612  0.6722 -0.2797 -0.0569
23997SOL    HW173432   1.269   6.701   2.695  1.9163 -0.6544  0.0807
23997SOL    HW273433   1.386   6.753   2.613  0.5588  1.5762 -0.5238
23998SOL     OW73434   4.730   5.230   8.821  0.5560 -0.4843  0.4700
23998SOL    HW173435   4.703   5.157   8.877 -1.2450  0.3501  0.7339
23998SOL    HW273436   4.689   5.307   8.859  0.2682  0.2940 -1.3153
23999SOL     OW73437   0.280   4.583  11.981  0.2866 -0.0702  1.1205
23999SOL    HW173438   0.302   4.644  11.911  1.7815  0.1515  1.7541
23999SOL    HW273439   0.214   4.525  11.942  0.8129  0.2812 -0.3441
24000SOL     OW73440   1.758   3.450   7.719  0.5059 -0.1344  0.0234
24000SOL    HW173441   1.678   3.397   7.716 -0.4064  1.2137 -1.1651
24000SOL    HW273442   1.765   3.479   7.810 -1.6297  1.4956 -0.2485
24001SOL     OW73443   1.737   5.514   8.985  0.5223 -0.0668 -0.1271
24001SOL    HW173444   1.648   5.500   9.018  0.0395  0.3165 -1.1905
24001SOL    HW273445   1.784   5.435   9.008  0.0048 -0.1289  0.7724
24002SOL     OW73446   3.438   4.451   2.812  0.0868  0.2043 -0.1118
24002SOL    HW173447   3.491   4.488   2.883 -0.4857 -0.1230  0.4925
24002SOL    HW273448   3.497   4.390   2.768 -0.0344 -0.8466  1.1271
24003SOL     OW73449   2.683   4.745   9.818 -0.0379  0.3279 -0.5537
24003SOL    HW173450   2.723   4.661   9.796  0.0070  0.4825 -1.0871
24003SOL    HW273451   2.717   4.805   9.752 -0.1633  0.7390 -0.2475
24004SOL     OW73452   0.240   1.904   4.428 -0.6631 -0.2539  0.5749
24004SOL    HW173453   0.318   1.851   4.445  0.4795  0.8587 -0.9168
24004SOL    HW273454   0.202   1.865   4.350 -1.3154 -0.4520  0.9829
24005SOL     OW73455   0.171   1.656   7.131  0.2021 -0.1728 -0.0810
24005SOL    HW173456   0.253   1.704   7.122 -0.8378  2.0029  1.2288
24005SOL    HW273457   0.131   1.662   7.044  0.6253  0.3034 -0.2516
24006SOL     OW73458   7.844   4.935   6.804  0.1202  0.1540  0.1924
24006SOL    HW173459   7.918   4.894   6.848  1.1477  0.7823 -0.8981
24006SOL    HW273460   7.856   5.029   6.818  0.6665  0.4065 -1.6285
24007SOL     OW73461   1.458   4.480   5.242  0.4103 -0.5145  0.3396
24007SOL    HW173462   1.493   4.435   5.165  2.3152 -1.0422  1.4642
24007SOL    HW273463   1.531   4.533   5.275 -1.4272  2.7348 -0.3315
24008SOL     OW73464   3.968   7.009   6.144 -0.2606  0.2760  0.4810
24008SOL    HW173465   4.054   7.005   6.186 -0.3666 -0.7279  0.6310
24008SOL    HW273466   3.915   7.063   6.202 -0.5951 -1.6252  2.0571
24009SOL     OW73467   3.311   3.785   1.595  0.2444  0.0152  0.0487
24009SOL    HW173468   3.273   3.844   1.530  0.4083  0.2861  0.1992
24009SOL    HW273469   3.351   3.715   1.544  0.0294  0.0216 -0.1288
24010SOL     OW73470   5.817   6.303   1.682 -0.6133  0.2176 -0.2484
24010SOL    HW173471   5.882   6.315   1.613  0.1160  0.4325  0.4548
24010SOL    HW273472   5.811   6.208   1.694 -0.8451  0.1748 -0.6948
24011SOL     OW73473   4.511   0.315   9.359  0.5956 -0.1014 -0.0423
24011SOL    HW173474   4.502   0.363   9.441  0.8257 -0.9658  0.5072
24011SOL    HW273475   4.574   0.365   9.308  4.4303 -2.0798  2.3216
24012SOL     OW73476   5.887   3.622   4.255  0.1157 -0.2791  0.1805
24012SOL    HW173477   5.834   3.681   4.203  1.3985 -0.5996 -1.5779
24012SOL    HW273478   5.826   3.555   4.286 -0.7654  0.2067 -0.4798
24013SOL     OW73479   7.844   5.977   8.348 -0.5579 -0.0880 -0.3345
24013SOL    HW173480   7.833   5.885   8.323  0.0344 -0.4859  0.8008
24013SOL    HW273481   7.793   5.986   8.428  1.2863 -0.0785  0.9056
24014SOL     OW73482   5.876   7.325  10.538  0.3884  0.3657 -0.6246
24014SOL    HW173483   5.965   7.360  10.532  1.0188 -1.3675 -3.1444
24014SOL    HW273484   5.846   7.320  10.447 -1.6926 -0.5189  0.0528
24015SOL     OW73485   6.849   1.726   9.052  0.1812  0.1865  0.2291
24015SOL    HW173486   6.860   1.779   9.131  0.3168  1.0319 -0.3368
24015SOL    HW273487   6.851   1.790   8.981  2.5448 -0.7763 -0.6594
24016SOL     OW73488   7.157   4.334   8.292  0.6996 -0.2164  0.4369
24016SOL    HW173489   7.096   4.296   8.228  0.9978  0.6746 -0.3921
24016SOL    HW273490   7.168   4.425   8.264  4.7882 -1.0401 -1.3437
24017SOL     OW73491   1.170   5.245   5.587 -1.0392  0.3398  0.4390
24017SOL    HW173492   1.097   5.265   5.529 -0.6773  0.4801  0.0241
24017SOL    HW273493   1.175   5.319   5.646 -1.5328  0.1064  0.7787
24018SOL     OW73494   1.912   4.069   8.471  0.1515 -0.0317  0.2368
24018SOL    HW173495   1.974   4.106   8.409 -0.6259  0.6845 -0.1230
24018SOL    HW273496   1.948   4.091   8.557 -0.0623  1.1682  0.0296
24019SOL     OW73497   7.232   3.953  12.086  0.3280 -0.0356  0.1372
24019SOL    HW173498   7.254   3.869  12.045  0.6131  0.3651 -0.5399
24019SOL    HW273499   7.143   3.972  12.057  0.2514 -0.1166  0.3169
24020SOL     OW73500   5.276   1.905  10.051 -0.4856  0.4913 -0.2610
24020SOL    HW173501   5.231   1.861  10.123 -2.2962  0.4650 -1.3633
24020SOL    HW273502   5.217   1.976  10.026  0.0379  0.4020 -1.8187
24021SOL     OW73503   1.922   5.519   7.504  0.2556 -0.2262  0.0663
24021SOL    HW173504   1.865   5.558   7.438  1.3761  0.2505 -0.6561
24021SOL    HW273505   1.864   5.467   7.559 -0.8934  0.4074 -0.5154
24022SOL     OW73506   2.070   6.846   4.511 -0.3588 -0.6152 -0.2120
24022SOL    HW173507   1.995   6.791   4.532  0.5441 -1.8521 -0.1047
24022SOL    HW273508   2.039   6.902   4.439 -1.4013 -1.0305 -0.1040
24023SOL     OW73509   0.432   1.038  11.923 -0.0428  0.0695  0.0848
24023SOL    HW173510   0.400   0.956  11.885  0.1097 -0.2570  0.6512
24023SOL    HW273511   0.381   1.106  11.878 -1.4206 -0.4210  0.8426
24024SOL     OW73512   3.543   7.637   1.320  0.0780 -1.1993  0.4953
24024SOL    HW173513   3.617   7.696   1.310 -0.4618 -0.4785  0.7105
24024SOL    HW273514   3.575   7.553   1.286  0.4582 -0.4912 -0.9527
24025SOL     OW73515   3.251   3.832  12.160 -0.6956  0.4753  0.1776
24025SOL    HW173516   3.301   3.750  12.153  2.5817  1.9962  2.9449
24025SOL    HW273517   3.169   3.814  12.114  1.4174 -3.0389 -2.7832
24026SOL     OW73518   1.659   2.898   4.190 -1.1190 -0.1586 -0.0573
24026SOL    HW173519   1.746   2.859   4.203 -0.3920  1.1939 -0.6958
24026SOL    HW273520   1.601   2.845   4.246  0.3431 -0.2295  1.4845
24027SOL     OW73521   1.541   3.718   3.831 -0.4664  0.0267 -0.0415
24027SOL    HW173522   1.572   3.804   3.803 -0.8719 -0.2556 -1.4087
24027SOL    HW273523   1.449   3.732   3.854 -0.1932  0.2112  0.9952
24028SOL     OW73524   7.586   6.933   9.154 -0.0067  0.2267  0.1969
24028SOL    HW173525   7.583   6.845   9.192 -0.5602  0.8564  1.6818
24028SOL    HW273526   7.665   6.972   9.190  0.2267  0.3552 -0.4402
24029SOL     OW73527   6.890   5.563  12.110  0.1143 -0.6418  0.0784
24029SOL    HW173528   6.854   5.648  12.136 -0.2832 -1.1256  1.1887
24029SOL    HW273529   6.901   5.569  12.016 -0.3509  0.4752  0.0820
24030SOL     OW73530   5.255   0.814   7.855  0.2309 -0.0392 -0.4763
24030SOL    HW173531   5.281   0.883   7.794  1.0563  0.0933  0.0120
24030SOL    HW273532   5.298   0.736   7.822  0.3248 -0.0559 -0.3151
24031SOL     OW73533   3.595   1.546  10.260 -0.2955  0.2365  0.1361
24031SOL    HW173534   3.557   1.633  10.249  0.3585  0.3259 -1.7371
24031SOL    HW273535   3.584   1.504  10.175 -1.1378 -1.7592  1.1589
24032SOL     OW73536   2.382   1.180  11.219  0.1040  0.3093  0.1994
24032SOL    HW173537   2.300   1.197  11.174  1.2028  0.0019 -2.0394
24032SOL    HW273538   2.410   1.094  11.187  1.2424  0.3493  1.0156
24033SOL     OW73539   7.601   6.844   0.668  0.2303 -0.0033  0.0285
24033SOL    HW173540   7.618   6.778   0.602 -1.2883  0.7739 -1.2080
24033SOL    HW273541   7.512   6.825   0.698 -0.0514  1.1752 -0.0124
24034SOL     OW73542   4.538   3.873   1.774  0.7211  1.0554  0.4481
24034SOL    HW173543   4.536   3.956   1.726 -2.2548  0.0590 -1.4207
24034SOL    HW273544   4.537   3.806   1.705  1.9983 -0.5704  1.9310
24035SOL     OW73545   0.990   7.221   0.389  0.1275  0.5184  0.4191
24035SOL    HW173546   0.984   7.132   0.354 -1.9652  0.1367  1.5881
24035SOL    HW273547   1.056   7.264   0.335 -0.4727 -1.0620 -1.6878
24036SOL     OW73548   7.629   6.048   2.413 -1.1551 -0.6647 -0.1189
24036SOL    HW173549   7.683   6.018   2.340 -2.8375 -1.4868 -1.0855
24036SOL    HW273550   7.692   6.074   2.480  0.4247 -2.3768 -0.8483
24037SOL     OW73551   6.146   2.454  10.975 -0.4255 -0.0145 -0.3032
24037SOL    HW173552   6.097   2.459  11.057  0.8105 -2.4143  0.6481
24037SOL    HW273553   6.203   2.531  10.977 -3.0418  2.1022 -0.8095
24038SOL     OW73554   2.965   6.696   6.230 -0.0284  1.0132  0.1746
24038SOL    HW173555   3.037   6.699   6.293  1.2775 -0.5584 -1.1748
24038SOL    HW273556   3.005   6.715   6.146 -0.6081 -2.3821 -1.0124
24039SOL     OW73557   0.011   2.375  11.498  0.3373 -0.0348 -0.3360
24039SOL    HW173558  -0.007   2.433  11.572  0.5976 -0.6123  0.1865
24039SOL    HW273559   0.100   2.398  11.471  0.3773 -0.0698 -0.2372
24040SOL     OW73560   7.608   2.242   9.976 -0.0089 -0.1274  0.2067
24040SOL    HW173561   7.701   2.220   9.969 -0.7390 -3.1039 -1.9936
24040SOL    HW273562   7.584   2.272   9.888 -1.0387  1.2622  0.9279
24041SOL     OW73563   1.594   4.803   2.837 -0.0590  0.9498 -0.1827
24041SOL    HW173564   1.522   4.761   2.789  1.7284 -0.7380 -1.5324
24041SOL    HW273565   1.552   4.877   2.881 -2.4579  0.5768 -1.6059
24042SOL     OW73566   7.787   1.257   1.409 -0.1637 -0.0544  0.3161
24042SOL    HW173567   7.755   1.167   1.415 -0.8207  0.1837  0.4524
24042SOL    HW273568   7.777   1.292   1.498  1.1504 -0.1898  0.5416
24043SOL     OW73569   6.250   0.719   9.009 -0.0321 -0.3051  0.4147
24043SOL    HW173570   6.190   0.734   8.936 -0.6578 -1.5014  0.6451
24043SOL    HW273571   6.193   0.712   9.086  0.7675  3.4277  1.5383
24044SOL     OW73572   7.641   3.379  10.453 -0.0873 -0.0794  0.0415
24044SOL    HW173573   7.721   3.332  10.428  0.4045  0.3629  0.7545
24044SOL    HW273574   7.605   3.327  10.525 -0.9444 -0.7822 -0.8740
24045SOL     OW73575   4.201   7.289   7.191  0.2094 -0.1940  0.1913
24045SOL    HW173576   4.162   7.308   7.276 -0.3718  1.1319 -0.3340
24045SOL    HW273577   4.231   7.374   7.160 -1.9430 -0.1323 -2.0513
24046SOL     OW73578   7.711   4.392   7.303 -0.3153  0.4724  0.5650
24046SOL    HW173579   7.751   4.435   7.379  1.6384  0.9333 -0.6494
24046SOL    HW273580   7.785   4.354   7.256 -1.4122  0.6225 -1.3523
24047SOL     OW73581   5.412   6.307   4.642  0.2238  0.1433  0.2902
24047SOL    HW173582   5.413   6.367   4.568 -1.5642 -0.3998 -0.2264
24047SOL    HW273583   5.429   6.221   4.603 -0.8667 -0.1645  0.4741
24048SOL     OW73584   2.345   0.203   1.955 -0.1672 -0.2975  0.1713
24048SOL    HW173585   2.378   0.115   1.976 -0.5193 -0.6858 -0.8484
24048SOL    HW273586   2.250   0.197   1.969 -0.3382 -0.4093 -0.9410
24049SOL     OW73587   4.871   3.412   9.819 -0.3780 -0.3222  0.4431
24049SOL    HW173588   4.936   3.413   9.748 -1.3593  2.3803 -0.5489
24049SOL    HW273589   4.811   3.341   9.795 -1.5629  1.4618 -2.4265
24050SOL     OW73590   6.872   7.786   8.461 -0.5967 -0.0403  0.1147
24050SOL    HW173591   6.951   7.765   8.510 -0.1441  0.2323 -0.4851
24050SOL    HW273592   6.816   7.709   8.471 -0.6829  0.1488  1.3630
24051SOL     OW73593   2.078   2.848   3.533 -0.0688  0.5938  0.2412
24051SOL    HW173594   2.023   2.917   3.569  0.3993  0.8341  0.4949
24051SOL    HW273595   2.129   2.815   3.607 -1.7628 -1.4679  0.5911
24052SOL     OW73596   4.164   4.802  12.255  0.1586  0.1972 -0.4521
24052SOL    HW173597   4.117   4.748  12.319  0.2876  0.1394 -0.4060
24052SOL    HW273598   4.206   4.738  12.197  2.5775  0.1780  1.2007
24053SOL     OW73599   7.514   6.762   6.480 -0.3888  0.4184  0.3200
24053SOL    HW173600   7.573   6.827   6.442 -0.2068  0.5050  0.7562
24053SOL    HW273601   7.434   6.810   6.501 -0.3182  0.4628  0.4818
24054SOL     OW73602   4.135   7.078   9.843  0.0962  0.4424 -0.3870
24054SOL    HW173603   4.138   7.063   9.749 -0.9289  1.0137 -0.5268
24054SOL    HW273604   4.121   7.173   9.852 -2.8134  0.0517  0.2344
24055SOL     OW73605   1.780   7.198   2.700  0.0680  0.3553  0.0679
24055SOL    HW173606   1.742   7.123   2.746  0.9987  0.9067  1.8422
24055SOL    HW273607   1.716   7.268   2.709 -0.3791  0.0624 -0.7534
24056SOL     OW73608   2.872   7.443   1.773  0.0600 -0.5177  0.2090
24056SOL    HW173609   2.866   7.347   1.772 -0.7270 -0.4726  0.2194
24056SOL    HW273610   2.961   7.461   1.743  0.1846 -1.2510  0.1063
24057SOL     OW73611   1.256   5.388   9.730  0.0555 -0.4137 -0.5971
24057SOL    HW173612   1.237   5.436   9.650  2.4453  1.5438 -0.1034
24057SOL    HW273613   1.170   5.362   9.764 -1.6347  4.6130 -0.2785
24058SOL     OW73614   3.782   2.105   0.642  0.0077  0.4527  1.1421
24058SOL    HW173615   3.777   2.192   0.683  0.2886  0.1492  1.8348
24058SOL    HW273616   3.704   2.101   0.587  0.2277  1.3220  0.7400
24059SOL     OW73617   5.475   2.469   4.009  0.6373  0.1046  0.1854
24059SOL    HW173618   5.487   2.391   3.954  1.4375  1.8585 -2.3186
24059SOL    HW273619   5.521   2.539   3.962 -0.2965  2.1813  2.1593
24060SOL     OW73620   4.519   3.043   0.503 -0.2076  0.0559  0.0780
24060SOL    HW173621   4.589   3.006   0.556 -0.4802 -0.8267 -0.1730
24060SOL    HW273622   4.543   3.136   0.494  0.3983 -0.0190  0.8254
24061SOL     OW73623   4.683   6.634   2.913  0.1847 -0.2835 -0.3671
24061SOL    HW173624   4.723   6.706   2.963 -0.2078  0.0914 -0.5867
24061SOL    HW273625   4.611   6.675   2.866  1.1672 -0.4145 -2.0521
24062SOL     OW73626   5.075   1.164   5.369  0.5904 -0.2048 -0.1087
24062SOL    HW173627   5.075   1.112   5.289  0.7373 -2.9438  1.5491
24062SOL    HW273628   5.149   1.224   5.358  0.2145 -0.0475 -2.2514
24063SOL     OW73629   5.650   4.659   3.430  0.2751 -0.3502  0.1800
24063SOL    HW173630   5.604   4.734   3.394 -0.3506 -1.2735 -0.9988
24063SOL    HW273631   5.591   4.624   3.497  0.2013 -0.2912  0.1452
24064SOL     OW73632   7.959   4.352   8.476  0.5382 -0.4860  0.1919
24064SOL    HW173633   7.971   4.392   8.389  0.3772  0.2773  0.5098
24064SOL    HW273634   7.870   4.378   8.501  0.5360 -0.8193  0.5337
24065SOL     OW73635   5.157   0.941  10.615 -0.5730  0.2768 -0.1334
24065SOL    HW173636   5.191   0.858  10.650 -1.6453  0.0576  0.4433
24065SOL    HW273637   5.191   1.007  10.675 -0.5901  0.1337  0.0368
24066SOL     OW73638   3.836   2.187   8.587  0.3579 -0.1429  0.5532
24066SOL    HW173639   3.927   2.217   8.589 -0.6319  3.2201  2.0333
24066SOL    HW273640   3.827   2.133   8.666  1.2036 -1.2246 -0.0552
24067SOL     OW73641   7.710   6.232   8.111  0.3870  0.6963  0.4477
24067SOL    HW173642   7.678   6.314   8.073  0.5944  0.3853 -0.4232
24067SOL    HW273643   7.715   6.249   8.205 -1.1583  1.1607  0.4819
24068SOL     OW73644   4.232   0.810   8.850  0.2113  0.3182  0.0180
24068SOL    HW173645   4.221   0.811   8.754  0.8387  0.6079 -0.0548
24068SOL    HW273646   4.145   0.832   8.883  0.4131  2.1704 -0.5396
24069SOL     OW73647   4.498   1.169   7.456  0.6086 -0.1786  0.0486
24069SOL    HW173648   4.516   1.134   7.543  1.2220  2.1689  0.9497
24069SOL    HW273649   4.403   1.166   7.448  0.5859 -1.1081  0.4614
24070SOL     OW73650   7.297   5.709   5.546  0.2268  0.2193 -0.4473
24070SOL    HW173651   7.305   5.643   5.478 -0.0660  1.8654 -2.1541
24070SOL    HW273652   7.251   5.782   5.504  0.7057  1.6059  1.2991
24071SOL     OW73653   0.545   0.698   0.212 -0.2847  0.4651  0.0163
24071SOL    HW173654   0.550   0.637   0.139  0.6510 -1.6899  1.7470
24071SOL    HW273655   0.614   0.762   0.195  1.9864 -1.7056  0.3260
24072SOL     OW73656   7.528   6.218   4.024  0.0283  0.2950 -0.0534
24072SOL    HW173657   7.506   6.148   3.964 -1.5462 -1.2386  2.1344
24072SOL    HW273658   7.611   6.190   4.065 -0.8521 -0.6446  1.1826
24073SOL     OW73659   1.669   5.160   4.680  0.0490  0.1938 -0.6576
24073SOL    HW173660   1.737   5.149   4.747 -1.6326  0.1472  1.1538
24073SOL    HW273661   1.657   5.255   4.673 -0.2224  0.1810 -0.3927
24074SOL     OW73662   3.499   6.073  10.627 -0.2349 -0.0788 -0.1896
24074SOL    HW173663   3.510   6.097  10.535 -0.3635 -0.4338 -0.3016
24074SOL    HW273664   3.570   6.012  10.644  0.0042  0.2669  0.0498
24075SOL     OW73665   6.365   1.137   1.392 -0.5784 -0.8391 -0.1147
24075SOL    HW173666   6.385   1.204   1.327  0.3146 -1.7115 -0.7704
24075SOL    HW273667   6.333   1.063   1.341 -2.9619 -0.4681  0.6968
24076SOL     OW73668   1.267   6.505  11.106 -0.2908 -0.3999  0.5471
24076SOL    HW173669   1.244   6.562  11.180 -1.4161 -0.4588  0.2620
24076SOL    HW273670   1.284   6.420  11.146 -0.1190 -0.2430  0.8127
24077SOL     OW73671   3.622   7.148   7.583  0.0710  0.3856 -0.2533
24077SOL    HW173672   3.656   7.168   7.496 -1.1220  1.8099 -0.4476
24077SOL    HW273673   3.534   7.186   7.583  0.0936  0.5440  1.6110
24078SOL     OW73674   7.480   0.791  10.614 -0.0952  0.8820 -0.2985
24078SOL    HW173675   7.542   0.723  10.637  0.6719  1.0540 -1.7068
24078SOL    HW273676   7.401   0.770  10.663  1.0890  0.7355  1.6512
24079SOL     OW73677   5.583   6.331   5.049  1.0203  0.3606 -0.5470
24079SOL    HW173678   5.623   6.310   5.134 -1.6153  1.9687  1.2374
24079SOL    HW273679   5.491   6.307   5.059 -0.0064  3.2750 -1.8346
24080SOL     OW73680   3.083   0.057   4.716  0.2125  0.5324 -0.2766
24080SOL    HW173681   3.052   0.000   4.787  0.7332  0.3814 -0.1668
24080SOL    HW273682   3.003   0.082   4.670 -0.0276 -0.3311 -0.3560
24081SOL     OW73683   1.488   6.022   8.819 -0.6798 -0.1272 -0.5538
24081SOL    HW173684   1.562   6.025   8.879 -2.6195  0.8087  1.9736
24081SOL    HW273685   1.502   5.944   8.767  2.0300  0.0112 -0.1480
24082SOL     OW73686   7.289   2.717   4.938 -0.2096  0.1452  0.4431
24082SOL    HW173687   7.235   2.671   4.873  0.6842 -0.4173  0.0660
24082SOL    HW273688   7.299   2.654   5.010  2.8088 -1.2397 -0.9894
24083SOL     OW73689   5.318   6.432   2.037  0.0595 -0.7849  0.1306
24083SOL    HW173690   5.326   6.338   2.056  0.5294 -1.0766 -1.3598
24083SOL    HW273691   5.406   6.458   2.008 -0.5170 -0.3647 -1.3681
24084SOL     OW73692   5.005   5.238   4.575 -0.3934  0.2223  0.2028
24084SOL    HW173693   5.049   5.200   4.499 -0.0713  0.6329  0.1856
24084SOL    HW273694   4.994   5.164   4.636 -1.5877 -0.3427 -0.6570
24085SOL     OW73695   0.233   1.835   3.489  0.7151  0.5474 -0.0689
24085SOL    HW173696   0.164   1.901   3.481 -1.2829 -1.4573 -0.4890
24085SOL    HW273697   0.236   1.814   3.582 -0.2357 -0.3081 -0.2154
24086SOL     OW73698   7.253   7.959   3.938 -0.2196  0.5326  0.5230
24086SOL    HW173699   7.302   7.882   3.968 -2.4391 -1.1618  0.0622
24086SOL    HW273700   7.316   8.008   3.885  1.0920 -1.2905  0.2789
24087SOL     OW73701   7.801   5.069   5.811 -0.8058  0.5490  0.2449
24087SOL    HW173702   7.731   5.041   5.752 -0.6204 -1.1939  0.7929
24087SOL    HW273703   7.879   5.071   5.757 -0.7016 -0.6997  0.3165
24088SOL     OW73704   5.937   3.186  12.033  0.0801 -0.1164  0.3681
24088SOL    HW173705   5.866   3.212  12.092 -0.1390  0.4170 -0.1149
24088SOL    HW273706   5.930   3.091  12.026 -0.0823 -0.1479  0.9582
24089SOL     OW73707   7.679   6.655   5.484  0.3414 -0.1147  0.1872
24089SOL    HW173708   7.627   6.616   5.414  2.5460 -0.8114 -1.1796
24089SOL    HW273709   7.666   6.749   5.475 -0.4648 -0.2637 -0.2681
24090SOL     OW73710   3.661   4.887   8.227  0.4466  0.0943  0.2010
24090SOL    HW173711   3.676   4.899   8.134  1.8408 -0.7285  0.2860
24090SOL    HW273712   3.690   4.969   8.267 -2.2749  1.3443 -0.2300
24091SOL     OW73713   7.964   5.979  11.524  0.1146  0.2854 -0.6972
24091SOL    HW173714   8.047   6.014  11.491  0.3432  0.6543  0.2355
24091SOL    HW273715   7.943   6.035  11.599 -0.0786 -0.8922  0.1546
24092SOL     OW73716   6.502   0.382  10.347 -0.5437 -0.2151 -0.3504
24092SOL    HW173717   6.507   0.320  10.273 -1.4932 -0.7899  0.0458
24092SOL    HW273718   6.593   0.392  10.375 -0.3668 -1.4736 -0.4059
24093SOL     OW73719   0.767   1.235   6.035 -0.3262 -0.3189 -0.2356
24093SOL    HW173720   0.795   1.229   5.944  0.9032 -0.8440  0.1590
24093SOL    HW273721   0.803   1.318   6.066  0.1301 -0.6153  0.0452
24094SOL     OW73722   2.168   0.084  11.560  0.2986 -0.0219  0.0889
24094SOL    HW173723   2.102   0.150  11.543  0.5605 -0.0062 -0.9084
24094SOL    HW273724   2.243   0.110  11.507  0.3317 -1.2353 -0.4952
24095SOL     OW73725   6.298   0.438   1.913  0.4971 -0.6469  0.0595
24095SOL    HW173726   6.270   0.515   1.864 -0.8105 -0.9605  0.2580
24095SOL    HW273727   6.303   0.368   1.848  0.0527 -0.7594  0.1385
24096SOL     OW73728   0.873   2.280   3.189 -0.3466 -0.4391 -0.0272
24096SOL    HW173729   0.937   2.287   3.118  0.8459 -4.2706  0.4338
24096SOL    HW273730   0.909   2.213   3.247 -2.6720  0.5094  2.7244
24097SOL     OW73731   7.711   3.781  11.853 -0.0402 -0.1536 -0.6347
24097SOL    HW173732   7.807   3.776  11.859 -0.1307 -0.9130  0.2941
24097SOL    HW273733   7.687   3.713  11.791  0.0942  0.8449 -1.8266
24098SOL     OW73734   2.837   5.206   2.101  0.1480  0.2202 -0.1333
24098SOL    HW173735   2.824   5.182   2.192  0.1690 -0.5868 -0.3316
24098SOL    HW273736   2.931   5.192   2.086 -0.3084 -2.4384 -1.0176
24099SOL     OW73737   2.833   7.855   1.861 -0.5058 -0.0119  0.1327
24099SOL    HW173738   2.766   7.797   1.825  0.4967 -0.9348 -0.2856
24099SOL    HW273739   2.913   7.803   1.862  0.4009  1.3111 -0.0985
24100SOL     OW73740   7.941   4.262   9.143 -0.6729  0.5744 -0.3067
24100SOL    HW173741   7.917   4.174   9.115 -0.6170  0.6215 -0.5065
24100SOL    HW273742   7.867   4.293   9.194 -0.6142  0.3401 -0.0774
24101SOL     OW73743   6.565   6.714   5.723 -0.5593  0.7262  0.1698
24101SOL    HW173744   6.472   6.735   5.731 -1.1546 -1.5221 -0.2529
24101SOL    HW273745   6.568   6.642   5.660  1.6853  2.0441 -1.4182
24102SOL     OW73746   7.624   3.675  12.405 -0.2039  0.0483 -0.0774
24102SOL    HW173747   7.666   3.594  12.432 -3.1816 -2.3813 -2.1088
24102SOL    HW273748   7.580   3.707  12.484  2.8586  1.1257  1.3368
24103SOL     OW73749   7.766   5.235   3.781  0.2045  0.2939  0.2180
24103SOL    HW173750   7.810   5.169   3.835  0.0359  1.1562  1.4284
24103SOL    HW273751   7.737   5.186   3.703  2.3926 -0.5154 -0.1707
24104SOL     OW73752   3.761   7.083   0.544  0.0088  0.3652  0.7775
24104SOL    HW173753   3.696   7.125   0.487 -0.7490 -1.0890  0.5327
24104SOL    HW273754   3.713   7.063   0.624  0.7411  1.2263  1.4522
24105SOL     OW73755   6.444   4.681   6.440  0.0787  0.1041  0.1205
24105SOL    HW173756   6.387   4.675   6.363  0.6843 -1.8766 -0.2358
24105SOL    HW273757   6.533   4.685   6.404  0.3010  0.7049  0.7083
24106SOL     OW73758   1.132   2.042   9.440  0.3960 -0.0067 -0.6207
24106SOL    HW173759   1.043   2.014   9.461  1.0791 -1.5158  0.4935
24106SOL    HW273760   1.183   1.961   9.441  2.2690  1.0763  1.4494
24107SOL     OW73761   7.203   6.870  11.602 -0.1822  0.2346  0.4604
24107SOL    HW173762   7.126   6.818  11.579 -0.3968  1.4838 -2.0937
24107SOL    HW273763   7.277   6.815  11.577 -0.3930  0.7046 -1.3921
24108SOL     OW73764   1.751   7.513   5.016 -0.4691 -0.3198  0.4734
24108SOL    HW173765   1.688   7.577   4.980 -0.7291 -1.3840 -1.0445
24108SOL    HW273766   1.697   7.452   5.066 -0.4518 -0.3385  0.4694
24109SOL     OW73767   4.829   5.574   3.632  0.4460  0.3604 -0.3192
24109SOL    HW173768   4.850   5.494   3.584 -2.7424  0.8665 -2.9738
24109SOL    HW273769   4.758   5.549   3.691 -0.2120  1.0796 -0.7870
24110SOL     OW73770   5.486   3.239   4.803  0.3585 -0.0199  0.1581
24110SOL    HW173771   5.481   3.206   4.713  1.0991  1.2644 -0.3771
24110SOL    HW273772   5.468   3.162   4.857  1.2805 -1.1365 -1.0508
24111SOL     OW73773   6.160   0.007   3.478  0.2815  0.1276 -0.7737
24111SOL    HW173774   6.237   0.012   3.422 -0.4459 -0.6996 -1.8886
24111SOL    HW273775   6.111  -0.068   3.445 -0.7453  0.3167  0.2508
24112SOL     OW73776   3.417   2.663   8.700  0.3365 -0.2995  0.1064
24112SOL    HW173777   3.500   2.625   8.672 -0.8108 -2.1635 -0.9324
24112SOL    HW273778   3.372   2.592   8.746 -1.9622 -0.3515 -2.0459
24113SOL     OW73779   4.757   0.535  12.212 -0.5848  0.1426  0.3490
24113SOL    HW173780   4.673   0.581  12.206 -1.2818 -0.9904  0.9178
24113SOL    HW273781   4.771   0.502  12.123 -0.2951  1.0631  0.0436
24114SOL     OW73782   1.851   4.278   4.875 -0.0030 -0.6797 -0.0570
24114SOL    HW173783   1.823   4.255   4.786 -0.8477  0.5123 -0.1083
24114SOL    HW273784   1.910   4.353   4.863  0.3295 -0.8712  0.3463
24115SOL     OW73785   1.525   6.409   2.416  0.0855  0.2055 -0.2466
24115SOL    HW173786   1.512   6.364   2.333  0.3348  0.2960 -0.3363
24115SOL    HW273787   1.448   6.386   2.469  0.6351 -1.0469  0.0424
24116SOL     OW73788   6.436   4.625   2.283  0.0679 -0.1557 -0.5885
24116SOL    HW173789   6.380   4.622   2.206 -0.3865 -2.9880 -0.2363
24116SOL    HW273790   6.379   4.655   2.354  0.2713  1.5925 -1.1089
24117SOL     OW73791   2.543   3.604   2.666  0.6376 -0.4414  0.5466
24117SOL    HW173792   2.528   3.629   2.575 -0.1192  0.0868  0.8128
24117SOL    HW273793   2.593   3.522   2.660  1.8711  0.3324 -0.3348
24118SOL     OW73794   5.292   2.429   9.911  0.3320 -0.0619 -0.1455
24118SOL    HW173795   5.261   2.507   9.958  1.5756 -0.0193  0.6394
24118SOL    HW273796   5.240   2.428   9.830 -0.6447  0.8203  0.4450
24119SOL     OW73797   1.400   6.299   7.758 -0.3272  0.1453 -0.1348
24119SOL    HW173798   1.322   6.352   7.775  0.2538  0.9030  0.2374
24119SOL    HW273799   1.427   6.325   7.670  0.2691  0.8901  0.2559
24120SOL     OW73800   7.059   0.475  12.148 -0.3589 -0.3251 -0.0043
24120SOL    HW173801   7.032   0.513  12.231 -0.7025 -0.8037  0.1052
24120SOL    HW273802   7.123   0.538  12.113 -0.2360 -0.1073  0.6002
24121SOL     OW73803   6.880   7.702   1.023  0.1214  0.3977  0.4064
24121SOL    HW173804   6.837   7.780   0.988 -1.5861 -0.5606  0.2503
24121SOL    HW273805   6.973   7.720   1.016 -0.1765  3.1715  2.0385
24122SOL     OW73806   2.736   5.128  10.670  0.0249  0.1606  0.3117
24122SOL    HW173807   2.828   5.155  10.662  0.3965 -0.9691  0.6431
24122SOL    HW273808   2.729   5.049  10.616 -0.2788 -0.8409  1.7656
24123SOL     OW73809   6.885   4.982   6.808 -0.2119  0.0655 -0.6215
24123SOL    HW173810   6.902   4.978   6.714 -1.0126  0.6204 -0.7996
24123SOL    HW273811   6.929   5.062   6.837  0.5156 -0.4001 -0.4070
24124SOL     OW73812   7.751   3.092   8.822 -0.1484 -0.1775  0.1486
24124SOL    HW173813   7.798   3.009   8.825  0.3536  0.1047  0.1300
24124SOL    HW273814   7.808   3.155   8.866  0.3129  0.5670 -1.4210
24125SOL     OW73815   0.361   3.366   7.802  0.0429 -0.4515 -0.1496
24125SOL    HW173816   0.358   3.403   7.713 -0.2609  0.8061  0.3683
24125SOL    HW273817   0.424   3.293   7.795  0.5395  0.0550 -1.2432
24126SOL     OW73818   6.124   0.750   5.101  0.1294  0.2791 -0.4638
24126SOL    HW173819   6.064   0.732   5.029 -0.0769 -0.9155 -0.0004
24126SOL    HW273820   6.071   0.745   5.180  1.0256 -2.0689  0.0650
24127SOL     OW73821   4.741   0.999   4.605  0.0048  0.4836 -0.1273
24127SOL    HW173822   4.661   1.008   4.554 -0.6597  1.9169  1.0772
24127SOL    HW273823   4.729   0.917   4.653 -1.0370  0.9693  0.4823
24128SOL     OW73824   4.307   0.146   5.789  0.9091  0.3363  0.1324
24128SOL    HW173825   4.310   0.128   5.883  1.6803  0.4329  0.1301
24128SOL    HW273826   4.278   0.237   5.783 -1.1859 -0.2736  0.1983
24129SOL     OW73827   4.460   5.102   5.953  0.1708 -0.0816  0.0318
24129SOL    HW173828   4.422   5.025   5.994 -0.2725  0.0062 -0.2088
24129SOL    HW273829   4.452   5.171   6.019 -0.5401  0.0589 -0.1889
24130SOL     OW73830   3.481   2.914   5.132 -0.5641 -0.4016 -0.4021
24130SOL    HW173831   3.428   2.834   5.123  1.2711 -1.5663 -1.5422
24130SOL    HW273832   3.522   2.906   5.218  1.6929 -2.1238 -1.5336
24131SOL     OW73833   1.916   6.834   9.766 -0.4513  0.4445 -0.1306
24131SOL    HW173834   2.000   6.849   9.809 -1.3031  2.0409  1.0999
24131SOL    HW273835   1.894   6.919   9.727 -0.5353 -0.5036 -2.3042
24132SOL     OW73836   7.578   5.031   6.066 -0.1927  0.0472  0.4545
24132SOL    HW173837   7.524   5.015   5.988 -0.5871 -0.1577  0.7651
24132SOL    HW273838   7.637   5.102   6.041  0.8608 -1.1469 -0.6167
24133SOL     OW73839   6.102   5.062   4.203  0.1265  0.1856 -0.0202
24133SOL    HW173840   6.113   5.002   4.130 -1.5516  1.9616 -1.8433
24133SOL    HW273841   6.167   5.130   4.189 -1.0941  1.2660 -0.7441
24134SOL     OW73842   4.246   6.510   5.035 -0.1356 -0.5888  0.3278
24134SOL    HW173843   4.288   6.460   4.965  0.0920 -0.6567  0.5107
24134SOL    HW273844   4.222   6.593   4.994  0.7660 -0.2858  0.3754
24135SOL     OW73845   0.652   7.486   6.466 -0.0533 -0.4808  0.4375
24135SOL    HW173846   0.625   7.577   6.459 -0.2322 -0.4561  1.3367
24135SOL    HW273847   0.570   7.437   6.470  0.0359 -0.5750  1.1972
24136SOL     OW73848   6.340   2.936   5.359  0.0692 -0.3040 -0.0424
24136SOL    HW173849   6.372   2.949   5.270  0.4360 -0.2219  0.1023
24136SOL    HW273850   6.376   2.852   5.385 -0.7744 -0.7587 -0.2927
24137SOL     OW73851   3.699   1.045   3.299 -0.0679 -0.0573  0.1002
24137SOL    HW173852   3.662   0.958   3.284 -0.2841  0.1314 -0.4882
24137SOL    HW273853   3.785   1.028   3.338  0.0230 -0.5450 -0.2985
24138SOL     OW73854   3.360   0.400   8.432 -0.5176 -0.4881 -0.7046
24138SOL    HW173855   3.397   0.317   8.462  1.6003  0.3094 -0.9647
24138SOL    HW273856   3.418   0.467   8.468 -2.2937  0.9375 -0.3157
24139SOL     OW73857   6.303   7.033   3.517  0.0695  0.2915  0.0488
24139SOL    HW173858   6.246   6.971   3.470  1.0554 -0.3705 -0.3062
24139SOL    HW273859   6.392   7.002   3.499  0.5194  0.6869  1.4557
24140SOL     OW73860   5.197   0.167   2.783 -0.0663  0.1788  0.5186
24140SOL    HW173861   5.252   0.245   2.795 -0.8780  0.8030  0.2296
24140SOL    HW273862   5.116   0.200   2.746 -0.1943 -0.8913 -0.1889
24141SOL     OW73863   6.268   6.097   6.593 -0.6748  0.1812 -0.0231
24141SOL    HW173864   6.308   6.040   6.527  0.6978  1.5063 -0.3806
24141SOL    HW273865   6.182   6.118   6.557 -0.7059 -0.6657 -0.4650
24142SOL     OW73866   0.166   5.404   1.438 -0.1923  0.2209  0.4072
24142SOL    HW173867   0.106   5.329   1.445 -1.2425  1.0122  0.0104
24142SOL    HW273868   0.186   5.411   1.345 -0.1915  0.5163  0.4291
24143SOL     OW73869   4.170   3.279   1.800  0.4979 -0.5370 -0.4107
24143SOL    HW173870   4.239   3.311   1.859  0.0489 -0.1675 -0.0743
24143SOL    HW273871   4.110   3.233   1.858  1.5277 -2.7160 -0.9902
24144SOL     OW73872   1.211   4.680   0.052  0.7503  0.5776 -0.4376
24144SOL    HW173873   1.146   4.719  -0.007 -0.3488 -0.2623  0.1686
24144SOL    HW273874   1.234   4.597   0.012 -0.0040  0.0013  0.2863
24145SOL     OW73875   7.942   3.290   0.694 -0.1939 -0.3083 -0.2836
24145SOL    HW173876   7.913   3.330   0.776 -1.6080 -1.3508 -0.2277
24145SOL    HW273877   7.951   3.362   0.633 -2.0235  0.2060 -0.0102
24146SOL     OW73878   2.241   5.817   1.568 -0.0772  0.1401 -0.3364
24146SOL    HW173879   2.318   5.867   1.543  0.7687 -1.2859 -0.6712
24146SOL    HW273880   2.260   5.785   1.656  0.4779 -1.6268 -1.0662
24147SOL     OW73881   4.802   2.875   4.887 -0.5558 -0.3552  0.3483
24147SOL    HW173882   4.886   2.906   4.923 -0.2588 -0.2646 -0.4106
24147SOL    HW273883   4.737   2.908   4.949 -0.1959  1.3235 -0.1121
24148SOL     OW73884   3.016   5.894   9.099  0.3452 -0.4738  0.3652
24148SOL    HW173885   3.101   5.851   9.103 -0.0396 -1.4623 -1.2725
24148SOL    HW273886   2.959   5.839   9.152  0.7718  0.4071  1.7965
24149SOL     OW73887   4.400   1.020   4.091  0.1765  0.1834  0.1789
24149SOL    HW173888   4.361   0.993   4.174  2.2493  1.0808  1.5195
24149SOL    HW273889   4.431   0.938   4.051 -0.8618 -0.2519  0.2431
24150SOL     OW73890   0.312   3.585  11.999 -0.1352  0.0132  0.2093
24150SOL    HW173891   0.406   3.588  11.980 -0.4695  0.4024 -1.5716
24150SOL    HW273892   0.285   3.497  11.974 -0.4069  0.2108 -0.2146
24151SOL     OW73893   7.650   3.841   5.584  0.1187 -0.0989 -0.0903
24151SOL    HW173894   7.564   3.801   5.597  0.2066 -0.6575 -1.1461
24151SOL    HW273895   7.665   3.893   5.663 -2.6624  2.7626 -1.2568
24152SOL     OW73896   0.787   0.741   7.493 -0.5781  0.3796 -0.1780
24152SOL    HW173897   0.704   0.705   7.463 -0.1625 -0.9701  0.2082
24152SOL    HW273898   0.825   0.782   7.415  0.2650 -2.6328 -1.4689
24153SOL     OW73899   2.353   1.837   9.061  0.2184  0.6278 -0.4117
24153SOL    HW173900   2.265   1.844   9.024 -0.3097  0.0910  0.7073
24153SOL    HW273901   2.406   1.896   9.007 -0.8662  1.1417 -0.9559
24154SOL     OW73902   1.150   6.770  11.865 -0.6150 -0.7360 -0.2291
24154SOL    HW173903   1.179   6.831  11.932 -0.8254 -0.7750 -0.0985
24154SOL    HW273904   1.204   6.692  11.878 -1.3643 -1.1410  0.5869
24155SOL     OW73905   2.761   5.918   9.870  0.0626 -0.5709  0.0934
24155SOL    HW173906   2.792   5.835   9.906  1.1533  0.3165  1.2865
24155SOL    HW273907   2.673   5.928   9.906  0.2164 -0.8575  0.5584
24156SOL     OW73908   7.666   5.127   7.517  0.4932  0.8412 -0.1201
24156SOL    HW173909   7.686   5.054   7.575  3.5548  0.4271 -1.5121
24156SOL    HW273910   7.600   5.093   7.458 -1.9352  0.9469  2.3251
24157SOL     OW73911   6.392   0.930   5.620  0.2553  0.1541  0.0999
24157SOL    HW173912   6.356   0.848   5.654  0.7107 -0.5366 -1.0417
24157SOL    HW273913   6.387   0.921   5.525  3.1078  0.1569 -0.1407
24158SOL     OW73914   5.011   2.877   1.792  0.2105 -0.7069  0.1822
24158SOL    HW173915   4.982   2.786   1.785  0.2679 -0.8523  1.6836
24158SOL    HW273916   5.102   2.875   1.760 -0.5436 -0.6913 -2.1528
24159SOL     OW73917   0.881   7.186   1.537  0.9409  0.4048 -0.4105
24159SOL    HW173918   0.894   7.272   1.577  0.8342  0.7839 -1.1720
24159SOL    HW273919   0.940   7.185   1.462 -1.6395  1.2922 -2.6108
24160SOL     OW73920   4.554   7.803   9.356 -0.1729 -0.3901 -0.1310
24160SOL    HW173921   4.554   7.891   9.394 -0.3502 -0.8838  1.0592
24160SOL    HW273922   4.639   7.766   9.382  0.5486 -0.0886 -1.8712
24161SOL     OW73923   1.435   5.719  10.172 -0.2056 -0.5806 -0.2599
24161SOL    HW173924   1.490   5.642  10.190  0.8584 -0.0110 -0.9754
24161SOL    HW273925   1.363   5.685  10.119  0.5117 -1.0188 -0.9714
24162SOL     OW73926   6.363   1.244  10.076  0.0348  0.0561  0.1621
24162SOL    HW173927   6.316   1.318  10.116  1.0733  0.3396  0.8949
24162SOL    HW273928   6.328   1.239   9.988 -1.2454  0.3735  0.6294
24163SOL     OW73929   5.415   3.666   4.066 -0.0845 -0.2144  0.1736
24163SOL    HW173930   5.321   3.685   4.062  0.3359  2.0032 -1.0195
24163SOL    HW273931   5.428   3.592   4.007 -1.0797 -0.5410  0.3543
24164SOL     OW73932   3.906   0.020   4.921 -0.1591  0.1539  0.1357
24164SOL    HW173933   3.853   0.088   4.962 -0.1440  0.2659 -0.0269
24164SOL    HW273934   3.996   0.039   4.948  0.0725  1.1961 -1.2265
24165SOL     OW73935   7.787   5.046   7.907  0.3710  0.1025  0.1231
24165SOL    HW173936   7.774   4.969   7.852  1.8397  0.4606 -0.7823
24165SOL    HW273937   7.813   5.115   7.847 -0.5941  1.2334  0.9671
24166SOL     OW73938   1.371   5.334   1.585  0.5375  0.1343 -0.0951
24166SOL    HW173939   1.275   5.336   1.584  0.3612 -2.5281  1.5034
24166SOL    HW273940   1.397   5.412   1.635 -0.7739  0.7678 -0.3639
24167SOL     OW73941   6.213   6.051  12.452  0.1696 -0.3778  0.2476
24167SOL    HW173942   6.250   5.973  12.410 -0.2914 -0.2198 -0.4786
24167SOL    HW273943   6.136   6.072  12.399  0.3241  0.6085  0.3960
24168SOL     OW73944   6.611   7.191   9.397  0.2858 -0.4717 -0.0556
24168SOL    HW173945   6.592   7.184   9.491  2.0346  0.2844  0.3819
24168SOL    HW273946   6.699   7.154   9.387 -0.4796 -2.0280 -1.6825
24169SOL     OW73947   0.026   5.945   0.756  0.0592 -0.0632  0.1496
24169SOL    HW173948   0.091   6.015   0.747  0.7291 -0.7218 -0.2529
24169SOL    HW273949  -0.033   5.977   0.824  0.3660  0.8811 -0.0021
24170SOL     OW73950   4.415   3.877  11.652  0.2094  0.1940 -0.2817
24170SOL    HW173951   4.472   3.934  11.600  1.7782 -0.7241  0.3687
24170SOL    HW273952   4.456   3.791  11.646  0.8749  0.1661  3.0148
24171SOL     OW73953   5.999   3.274   7.223 -0.3590  0.2151 -0.3696
24171SOL    HW173954   5.971   3.364   7.238  1.6596  0.6660  1.1801
24171SOL    HW273955   5.996   3.233   7.310  1.9066 -0.1926 -0.4264
24172SOL     OW73956   0.546   1.446  11.155  0.5572  0.4153  0.1620
24172SOL    HW173957   0.473   1.497  11.188 -0.7577 -1.7880  0.8449
24172SOL    HW273958   0.611   1.448  11.226  1.0569  2.0029 -0.2768
24173SOL     OW73959   3.993   4.651   7.585 -0.0040  0.1262  0.6461
24173SOL    HW173960   3.938   4.726   7.560  0.4192  0.3609  0.4013
24173SOL    HW273961   3.953   4.617   7.665 -0.5784  0.2169  0.4051
24174SOL     OW73962   6.178   3.787   2.011  0.0382  0.3841  0.8323
24174SOL    HW173963   6.243   3.773   1.942  0.2700 -0.8970  1.2825
24174SOL    HW273964   6.117   3.714   2.002 -0.2629  0.5270  1.6107
24175SOL     OW73965   2.751   2.785   2.216  0.4835 -0.1302 -0.0652
24175SOL    HW173966   2.692   2.828   2.278  0.2595  1.0686 -1.0834
24175SOL    HW273967   2.714   2.805   2.130  1.8550 -0.1545 -0.6822
24176SOL     OW73968   0.269   6.504   2.318  0.7970 -0.2742 -0.8101
24176SOL    HW173969   0.264   6.599   2.317 -1.5027 -0.2955  0.6131
24176SOL    HW273970   0.348   6.485   2.370 -0.3642  0.9488  1.5872
24177SOL     OW73971   5.270   2.627   1.827 -0.3850  0.0626  0.6740
24177SOL    HW173972   5.292   2.611   1.919 -0.0865 -1.1756  0.3989
24177SOL    HW273973   5.179   2.600   1.819 -0.3279 -0.0880  0.5407
24178SOL     OW73974   3.161   5.671   2.641  0.1104 -0.2496  0.0995
24178SOL    HW173975   3.091   5.662   2.706 -0.7080  0.4699 -0.6598
24178SOL    HW273976   3.235   5.706   2.690 -0.1663 -0.6990  0.8498
24179SOL     OW73977   6.718   7.397   9.742  0.1164  0.2354  0.1521
24179SOL    HW173978   6.749   7.418   9.830 -0.7215 -1.3370  0.8557
24179SOL    HW273979   6.791   7.353   9.700 -0.0736 -0.6154  0.6981
24180SOL     OW73980   1.080   0.178   0.495 -0.5344 -0.0485  0.1149
24180SOL    HW173981   1.021   0.194   0.568 -0.4416 -0.7198  0.3457
24180SOL    HW273982   1.023   0.143   0.426 -0.6669  0.8346 -0.2388
24181SOL     OW73983   4.684   5.590   7.185 -0.1592  0.5159  0.1781
24181SOL    HW173984   4.658   5.502   7.211 -0.9806  1.1025  1.4521
24181SOL    HW273985   4.759   5.577   7.128 -0.5275 -1.0232 -0.0053
24182SOL     OW73986   4.540   5.830   7.238 -0.1991  0.6643 -0.1208
24182SOL    HW173987   4.590   5.756   7.201 -0.7809 -0.0741  0.5270
24182SOL    HW273988   4.604   5.901   7.243  0.7114 -0.1558  0.3679
24183SOL     OW73989   4.260   0.527   5.405  0.0708 -0.1154 -0.0821
24183SOL    HW173990   4.225   0.463   5.343 -2.4347 -0.8396  1.8894
24183SOL    HW273991   4.321   0.477   5.459  1.7552  0.3631 -1.4725
24184SOL     OW73992   3.343   5.429   8.916 -0.1545 -0.4119  0.1092
24184SOL    HW173993   3.421   5.484   8.921 -0.0411 -0.5327 -0.3323
24184SOL    HW273994   3.344   5.392   8.828  0.3110 -1.9341  0.7180
24185SOL     OW73995   3.024   5.338   7.341  0.6357 -0.3659  0.1975
24185SOL    HW173996   3.051   5.301   7.257 -2.2389 -0.4800 -0.8007
24185SOL    HW273997   3.004   5.261   7.395  1.4916 -0.2863  0.6299
24186SOL     OW73998   4.229   2.285   9.594  0.5436 -0.5546 -0.3118
24186SOL    HW173999   4.235   2.190   9.586  0.5682 -0.4718 -1.6293
24186SOL    HW274000   4.153   2.300   9.650  1.1919 -1.3504  0.8226
24187SOL     OW74001   5.990   5.239   5.546  0.1106  0.3818  0.4289
24187SOL    HW174002   5.980   5.192   5.463 -1.2436  0.0642  0.7557
24187SOL    HW274003   5.901   5.256   5.575  0.5723  1.7519  1.1337
24188SOL     OW74004   4.980   3.557   2.840  0.1482 -0.4822  0.2382
24188SOL    HW174005   4.930   3.491   2.792 -0.0974 -1.3435  1.6202
24188SOL    HW274006   5.020   3.509   2.913  1.6495  0.5080  0.1292
24189SOL     OW74007   5.259   3.166  12.429 -0.3377  0.2150  0.2777
24189SOL    HW174008   5.190   3.194  12.490  0.0477 -0.7482  1.1919
24189SOL    HW274009   5.273   3.241  12.372 -3.2637 -0.0629 -0.9832
24190SOL     OW74010   1.217   1.997   6.375  1.0034  0.4557  0.3708
24190SOL    HW174011   1.172   1.975   6.457  2.2958  0.8685  1.2351
24190SOL    HW274012   1.300   1.949   6.380 -0.2401 -2.2531 -2.3088
24191SOL     OW74013   7.382   0.713   2.674  0.1089  0.4852  0.2493
24191SOL    HW174014   7.315   0.720   2.606  0.8654  0.6910 -0.4858
24191SOL    HW274015   7.449   0.776   2.648  0.6914  0.1259  0.8649
24192SOL     OW74016   5.480   5.381   7.772 -0.3623 -0.0268 -0.6548
24192SOL    HW174017   5.453   5.399   7.862  0.5316 -1.3093 -0.0918
24192SOL    HW274018   5.422   5.434   7.718 -0.6131  1.1340  0.6866
24193SOL     OW74019   1.818   2.231   8.574  0.0957  0.0966 -0.2244
24193SOL    HW174020   1.768   2.286   8.634  0.6061  2.0012 -1.4659
24193SOL    HW274021   1.753   2.176   8.532 -0.5833  0.5286  0.2441
24194SOL     OW74022   5.909   3.559   2.744 -0.6303  0.3308  0.2002
24194SOL    HW174023   5.823   3.599   2.744 -0.5862  0.5134 -1.8042
24194SOL    HW274024   5.947   3.582   2.660  0.8798 -0.8207  0.5074
24195SOL     OW74025   4.033   3.699   3.965 -0.3901 -0.0135 -0.0989
24195SOL    HW174026   4.050   3.605   3.959  0.1656  0.1573 -1.6285
24195SOL    HW274027   4.092   3.738   3.900 -0.7051  1.3782  0.4286
24196SOL     OW74028   6.373   3.427  10.156 -0.5053  0.0234 -0.5544
24196SOL    HW174029   6.368   3.491  10.227 -1.4896  2.2817 -2.4832
24196SOL    HW274030   6.464   3.400  10.154  0.1265  1.9299 -0.0693
24197SOL     OW74031   1.867   3.092   8.146 -0.7086  0.0129  0.2395
24197SOL    HW174032   1.778   3.102   8.180 -0.7363  0.2859  0.0896
24197SOL    HW274033   1.916   3.051   8.218 -0.7540  0.6221  0.6212
24198SOL     OW74034   2.251   5.843   6.490 -0.3710 -0.0118 -0.1685
24198SOL    HW174035   2.265   5.932   6.522  0.6789  0.3085 -1.4525
24198SOL    HW274036   2.219   5.795   6.567 -2.7260  1.8467  0.1190
24199SOL     OW74037   5.884   3.523   5.827  0.0322  0.2342  0.5773
24199SOL    HW174038   5.932   3.531   5.909  1.1918 -0.0050 -0.0468
24199SOL    HW274039   5.889   3.429   5.806  0.3020  0.3902 -0.0811
24200SOL     OW74040   5.784   5.525   3.521  0.2993 -0.2688 -0.1264
24200SOL    HW174041   5.697   5.543   3.556  0.6329  0.8077  0.1869
24200SOL    HW274042   5.795   5.430   3.530 -1.9056 -0.8858 -2.6491
24201SOL     OW74043   0.244   0.937   2.390  0.2484  0.5728  0.5373
24201SOL    HW174044   0.236   0.878   2.466 -0.6862 -0.8798 -0.6249
24201SOL    HW274045   0.159   0.982   2.387  0.6214  1.3109  0.8729
24202SOL     OW74046   0.803   6.566   1.490 -0.0994 -0.2985 -0.1930
24202SOL    HW174047   0.862   6.562   1.415 -0.7867 -2.5711 -0.6917
24202SOL    HW274048   0.860   6.554   1.566  0.2828 -1.0246 -0.5813
24203SOL     OW74049   7.581   5.624   6.714 -0.3488 -0.1323 -0.1580
24203SOL    HW174050   7.510   5.663   6.663  1.4887  1.3396 -1.8039
24203SOL    HW274051   7.552   5.628   6.805 -2.5557 -0.1185 -0.8185
24204SOL     OW74052   3.443   1.860  10.625 -0.2562  0.0479  0.0844
24204SOL    HW174053   3.456   1.769  10.601  1.4227  0.2047  0.2753
24204SOL    HW274054   3.479   1.910  10.551  2.7316  0.5207  1.6761
24205SOL     OW74055   5.001   4.240  10.917 -0.3080  0.5133  0.2775
24205SOL    HW174056   5.077   4.259  10.862  0.0181 -3.0287 -0.6946
24205SOL    HW274057   5.023   4.160  10.963 -2.6618  0.5238  1.6025
24206SOL     OW74058   5.742   1.733   7.434  0.4430  0.2044  0.9876
24206SOL    HW174059   5.697   1.793   7.375 -0.5484 -1.6721 -0.2907
24206SOL    HW274060   5.813   1.696   7.381  1.4083  0.6749  1.9349
24207SOL     OW74061   0.511   2.930  10.463  1.1392  0.5494  0.6300
24207SOL    HW174062   0.490   3.019  10.493 -0.6958  0.7106 -0.8755
24207SOL    HW274063   0.455   2.918  10.386  2.8595 -1.1753 -0.4312
24208SOL     OW74064   7.369   4.927   2.820 -0.2482 -0.1347 -0.0185
24208SOL    HW174065   7.296   4.953   2.764  0.0442  0.0998 -0.2923
24208SOL    HW274066   7.403   4.847   2.778 -0.5251 -0.4060  0.2692
24209SOL     OW74067   3.875   1.751   1.529 -0.1872  0.1660  0.1209
24209SOL    HW174068   3.970   1.743   1.542 -0.1707 -0.6113 -0.4589
24209SOL    HW274069   3.859   1.717   1.441 -1.0264  0.1764  0.2579
24210SOL     OW74070   1.448   5.469   4.935  0.0696  0.2747 -0.2011
24210SOL    HW174071   1.395   5.497   5.010  0.8832 -1.0407  0.9312
24210SOL    HW274072   1.394   5.488   4.859 -1.1146  0.9577  0.7594
24211SOL     OW74073   5.413   6.442   8.967  0.0321 -0.4310 -0.1036
24211SOL    HW174074   5.467   6.380   9.016 -2.3915 -1.5461  1.3163
24211SOL    HW274075   5.403   6.402   8.881 -0.3024 -1.2788  0.3258
24212SOL     OW74076   5.592   3.342   9.406  0.4685 -0.2969 -0.2271
24212SOL    HW174077   5.580   3.359   9.499  0.6405 -0.0115 -0.2519
24212SOL    HW274078   5.529   3.274   9.385 -1.3266  1.3350 -0.4336
24213SOL     OW74079   3.438   0.325   4.694 -0.3614  0.3909 -0.4945
24213SOL    HW174080   3.509   0.388   4.708 -1.4232  1.7174 -0.7863
24213SOL    HW274081   3.458   0.252   4.753  1.4309  0.5452 -0.8642
24214SOL     OW74082   7.420   1.242  10.815 -0.1035 -0.0895 -0.5866
24214SOL    HW174083   7.400   1.189  10.892 -0.9587  0.3266 -0.5099
24214SOL    HW274084   7.357   1.314  10.818 -0.6403 -0.4567 -2.0730
24215SOL     OW74085   2.447   5.407   1.985  0.6718  0.0814  0.5193
24215SOL    HW174086   2.457   5.495   2.020  0.9855 -0.1228  0.9589
24215SOL    HW274087   2.534   5.385   1.950  1.0915 -0.6955  1.9619
24216SOL     OW74088   5.087   5.927   3.624  0.2055 -0.1511 -0.0281
24216SOL    HW174089   5.067   5.913   3.531 -0.2831 -1.3078  0.2445
24216SOL    HW274090   5.058   6.017   3.640  1.6134  0.6037 -1.3251
24217SOL     OW74091   7.246   3.167   9.347 -0.0668  0.4377  0.3525
24217SOL    HW174092   7.329   3.179   9.394  1.0241  0.5293 -1.5250
24217SOL    HW274093   7.205   3.092   9.390  0.5628  0.9105  1.8569
24218SOL     OW74094   0.758   4.926   3.631 -0.0504  0.0298  0.8959
24218SOL    HW174095   0.682   4.957   3.581 -2.1253 -1.9704  2.5718
24218SOL    HW274096   0.782   4.844   3.588  1.2490  0.6519  0.3732
24219SOL     OW74097   3.631   4.047   9.557  0.0387  0.3583 -0.0847
24219SOL    HW174098   3.681   4.005   9.487 -1.9755  0.1553 -1.5128
24219SOL    HW274099   3.585   3.976   9.601  0.5046  0.5923  0.8035
24220SOL     OW74100   5.873   7.954   7.334  0.8418  0.1224  0.0086
24220SOL    HW174101   5.876   7.868   7.375 -1.7302 -0.2743 -0.4778
24220SOL    HW274102   5.885   7.937   7.240 -0.1261  0.2314 -0.1393
24221SOL     OW74103   1.959   0.938   9.514 -0.0182 -0.3135  0.7984
24221SOL    HW174104   1.917   1.009   9.562  1.0623  0.5362  0.4969
24221SOL    HW274105   1.939   0.955   9.422  1.3067  0.3341  0.6118
24222SOL     OW74106   2.621   2.777   8.090 -0.1060 -0.2410 -0.5967
24222SOL    HW174107   2.569   2.699   8.111  2.2177 -1.4228  1.2558
24222SOL    HW274108   2.672   2.752   8.012  2.9053 -1.9176  1.6994
24223SOL     OW74109   3.255   2.134   2.812 -0.3404 -0.0609  0.0384
24223SOL    HW174110   3.207   2.201   2.763 -1.0260  0.3772  1.2601
24223SOL    HW274111   3.341   2.173   2.827 -0.8749  0.7742  1.1224
24224SOL     OW74112   5.240   2.627   5.291  0.1529 -0.2993  0.2299
24224SOL    HW174113   5.228   2.646   5.198  0.0641 -0.5912  0.1790
24224SOL    HW274114   5.151   2.617   5.325  0.1903 -0.4363  0.2901
24225SOL     OW74115   3.116   2.324   6.622  0.4175 -0.0348 -0.1435
24225SOL    HW174116   3.078   2.409   6.600  0.6230  0.2423  0.5259
24225SOL    HW274117   3.132   2.281   6.538  0.9698  0.8760 -0.5140
24226SOL     OW74118   1.428   1.859   6.369 -0.3905 -0.0153 -0.0662
24226SOL    HW174119   1.483   1.813   6.432 -1.5052 -0.6028  0.5162
24226SOL    HW274120   1.427   1.803   6.292 -0.3129 -0.0954 -0.0089
24227SOL     OW74121   0.500   3.807   2.762  0.0707  0.4339  0.0254
24227SOL    HW174122   0.469   3.851   2.841  0.8251  2.7939 -0.9206
24227SOL    HW274123   0.576   3.756   2.791  1.1089  2.2623  0.6375
24228SOL     OW74124   7.946   7.348   2.447 -0.5511  0.3400 -0.0559
24228SOL    HW174125   8.015   7.334   2.382 -1.9640  0.0689 -1.5696
24228SOL    HW274126   7.964   7.284   2.515  0.7197  0.3147 -0.3886
24229SOL     OW74127   4.596   2.509  10.254 -0.0512 -0.4184 -0.0847
24229SOL    HW174128   4.554   2.517  10.340 -0.1634  3.1500 -0.3189
24229SOL    HW274129   4.544   2.565  10.197  0.9665 -1.4643 -2.1258
24230SOL     OW74130   7.201   7.633   7.867  0.2275  0.2533 -0.0242
24230SOL    HW174131   7.230   7.582   7.792 -0.1140  0.2763 -0.1733
24230SOL    HW274132   7.134   7.579   7.909  1.9027 -0.7337  1.5187
24231SOL     OW74133   7.037   5.048   2.376 -0.6832 -0.5342 -0.2339
24231SOL    HW174134   6.942   5.038   2.378 -0.6351 -1.2623 -1.2227
24231SOL    HW274135   7.051   5.134   2.335 -0.9038 -0.7891 -0.8551
24232SOL     OW74136   1.486   3.566   9.314 -0.3102  0.5791  0.2397
24232SOL    HW174137   1.527   3.609   9.389 -0.7107  1.9694 -0.2989
24232SOL    HW274138   1.456   3.639   9.259  0.5782 -0.3973 -1.6171
24233SOL     OW74139   4.057   2.210  11.948 -0.2455  0.3425 -0.1592
24233SOL    HW174140   3.966   2.189  11.926  0.0603 -0.0783 -1.0745
24233SOL    HW274141   4.061   2.205  12.044 -0.8822 -0.9090 -0.1862
24234SOL     OW74142   6.975   7.434   2.394 -0.5009  0.6905  0.4053
24234SOL    HW174143   7.014   7.520   2.411  0.2853 -0.1081  3.3883
24234SOL    HW274144   6.882   7.446   2.412 -0.2822  0.8094  1.5744
24235SOL     OW74145   3.993   3.598   3.655 -0.0367 -1.1749 -0.1103
24235SOL    HW174146   4.029   3.687   3.655 -0.5821 -0.9095  2.0844
24235SOL    HW274147   4.069   3.541   3.658  0.3009 -0.6867  1.2883
24236SOL     OW74148   7.625   1.061   2.098  0.2328  0.4746 -0.3721
24236SOL    HW174149   7.558   1.066   2.167  0.0613  0.3054 -0.5224
24236SOL    HW274150   7.708   1.069   2.144  0.1551 -0.4535 -0.0453
24237SOL     OW74151   5.159   2.263   2.358 -0.2017  0.1288  1.0897
24237SOL    HW174152   5.163   2.180   2.406 -1.0587 -0.2309  0.5528
24237SOL    HW274153   5.088   2.312   2.400  1.0304  1.1144  2.1673
24238SOL     OW74154   4.173   5.407  10.422 -0.0418  0.5260  0.1885
24238SOL    HW174155   4.140   5.443  10.339  0.4888 -2.9778 -1.7266
24238SOL    HW274156   4.103   5.350  10.454  0.1515  1.0796  1.6876
24239SOL     OW74157   1.557   0.344   3.088  0.4826 -0.3791  0.2233
24239SOL    HW174158   1.633   0.396   3.113 -0.1916 -0.0186  1.6670
24239SOL    HW274159   1.536   0.293   3.166 -0.5475 -0.7136 -0.2452
24240SOL     OW74160   1.850   7.403  10.798  0.7122  0.1463 -0.1109
24240SOL    HW174161   1.842   7.389  10.704  0.1885  1.0208 -0.2046
24240SOL    HW274162   1.906   7.481  10.805  1.4278 -0.3893  0.3301
24241SOL     OW74163   3.482   6.206  11.008 -0.0604  0.5083 -0.5876
24241SOL    HW174164   3.487   6.287  11.060 -0.4434 -0.0846  0.4156
24241SOL    HW274165   3.565   6.203  10.961  0.6207  0.7208  0.5514
24242SOL     OW74166   2.170   2.620   2.321  0.0389  0.5987  0.4425
24242SOL    HW174167   2.149   2.591   2.409  1.0561  1.0094  0.8415
24242SOL    HW274168   2.160   2.715   2.325 -0.3054  0.5851 -0.0057
24243SOL     OW74169   2.148   1.054   0.768 -0.3802 -0.0986  0.0127
24243SOL    HW174170   2.059   1.084   0.787 -0.0560  0.6235  0.4100
24243SOL    HW274171   2.179   1.018   0.851 -0.3910 -0.5979 -0.1957
24244SOL     OW74172   3.355   2.785   4.769 -0.2829 -0.0134  0.0422
24244SOL    HW174173   3.293   2.817   4.835 -0.0098  1.1713 -0.2577
24244SOL    HW274174   3.433   2.839   4.781  0.7036 -1.4432  0.3673
24245SOL     OW74175   7.847   6.998   0.665 -0.1321 -1.1069 -0.1032
24245SOL    HW174176   7.876   7.007   0.756  0.1768 -1.5918 -0.1510
24245SOL    HW274177   7.784   6.926   0.666  0.6816 -1.8403 -0.4465
24246SOL     OW74178   5.753   5.140   7.273  0.3408  0.4705 -0.0010
24246SOL    HW174179   5.734   5.050   7.247  0.3110  0.6933 -0.7575
24246SOL    HW274180   5.826   5.168   7.217  0.7381  0.7262  0.6269
24247SOL     OW74181   3.372   4.313   7.221  0.0399  0.0867  0.1149
24247SOL    HW174182   3.348   4.236   7.170  0.1250 -0.1051  0.3650
24247SOL    HW274183   3.418   4.278   7.298 -0.1525  0.3722  0.3610
24248SOL     OW74184   5.490   1.980   7.919  0.4378 -0.1135 -0.0908
24248SOL    HW174185   5.541   1.928   7.857  0.1577  0.7310 -1.0543
24248SOL    HW274186   5.409   1.930   7.931 -0.8396  1.1531 -2.8127
24249SOL     OW74187   2.382   0.747  11.347  0.1321 -0.5441 -0.0112
24249SOL    HW174188   2.375   0.801  11.426  0.3794 -0.0562 -0.3198
24249SOL    HW274189   2.447   0.792  11.293  0.9273 -1.5724  0.0626
24250SOL     OW74190   1.189   6.678  11.295 -0.1906  0.3913  0.2211
24250SOL    HW174191   1.117   6.739  11.278 -0.2244 -0.1524 -1.7858
24250SOL    HW274192   1.185   6.663  11.390 -2.0608  1.1955  0.3183
24251SOL     OW74193   0.913   3.028   2.362  0.3745  0.0697 -0.3219
24251SOL    HW174194   0.867   2.956   2.317 -0.2995 -1.0494  2.0238
24251SOL    HW274195   1.006   3.004   2.357  0.2016 -0.6726 -0.0786
24252SOL     OW74196   5.798   2.083   7.799 -0.4324  0.1693  0.1047
24252SOL    HW174197   5.780   2.155   7.739  1.4951  0.7394  0.1391
24252SOL    HW274198   5.753   2.106   7.880  0.7232  1.7162  0.3474
24253SOL     OW74199   7.186   5.015   5.478 -0.3483 -0.0870  0.1454
24253SOL    HW174200   7.227   5.094   5.515 -0.5646  0.6676 -1.1823
24253SOL    HW274201   7.159   5.041   5.390 -3.9915 -0.4489  1.0101
24254SOL     OW74202   0.378   6.603   0.456 -0.5146  0.1824 -0.1718
24254SOL    HW174203   0.327   6.640   0.384  0.8871 -1.9052 -2.3841
24254SOL    HW274204   0.315   6.552   0.506 -1.0520 -0.5469 -1.5405
24255SOL     OW74205   6.005   1.213   4.721 -0.3446 -0.1369 -0.4198
24255SOL    HW174206   6.058   1.250   4.791 -1.2383  0.2219  0.0799
24255SOL    HW274207   6.055   1.232   4.641  0.9127 -0.9612  0.1359
24256SOL     OW74208   7.120   0.694   5.955 -0.5325 -0.2985 -0.1166
24256SOL    HW174209   7.109   0.622   5.893  1.2365  0.1445 -1.0337
24256SOL    HW274210   7.107   0.773   5.902  0.0264  0.0695  0.2758
24257SOL     OW74211   1.854   0.232   7.638 -0.2955 -0.7608  0.1614
24257SOL    HW174212   1.847   0.292   7.712 -2.2764  0.0877 -0.6493
24257SOL    HW274213   1.915   0.164   7.668  1.1566  1.0247  1.5097
24258SOL     OW74214   2.090   1.076   2.222 -1.0901 -0.4000 -0.5003
24258SOL    HW174215   2.103   1.111   2.310  1.3464 -0.8821 -0.6077
24258SOL    HW274216   2.042   1.144   2.176 -0.7270  0.6803  0.6572
24259SOL     OW74217   1.658   4.998   1.486 -0.3441 -0.1647  0.0553
24259SOL    HW174218   1.750   4.977   1.496 -0.8845 -2.1059  1.4606
24259SOL    HW274219   1.623   4.998   1.575 -1.4884  1.7786 -0.3190
24260SOL     OW74220   7.624   1.670   0.543  0.0100  0.0616 -0.0922
24260SOL    HW174221   7.675   1.658   0.623 -0.2789 -1.6697 -0.1249
24260SOL    HW274222   7.634   1.763   0.521  3.2630 -0.2246 -0.2020
24261SOL     OW74223   7.168   3.502   3.888  0.6640  0.5518  0.3328
24261SOL    HW174224   7.235   3.560   3.925  1.7708 -0.4888  0.0484
24261SOL    HW274225   7.214   3.419   3.873 -0.4809  0.0662 -0.6858
24262SOL     OW74226   2.010   0.532   7.521 -0.0640 -0.5701 -0.2256
24262SOL    HW174227   2.049   0.475   7.587 -1.3940 -0.5530  0.6327
24262SOL    HW274228   2.075   0.601   7.507  0.0885 -0.3249  1.4254
24263SOL     OW74229   1.994   0.436   3.428  0.9640 -0.4213 -0.7008
24263SOL    HW174230   2.073   0.436   3.375  1.5015 -3.0377 -0.0433
24263SOL    HW274231   1.928   0.393   3.373  0.9650 -1.3000 -0.0406
24264SOL     OW74232   3.828   2.480   9.893 -0.1748  0.2886  0.0881
24264SOL    HW174233   3.851   2.441   9.977 -1.4472 -0.7522 -0.0142
24264SOL    HW274234   3.765   2.548   9.914  0.1915  0.6451  0.0463
24265SOL     OW74235   0.440   3.634   5.810  0.0018 -0.4232 -0.5645
24265SOL    HW174236   0.516   3.635   5.869 -0.4641 -0.4962  0.0521
24265SOL    HW274237   0.451   3.711   5.755 -0.0539  0.2134  0.2870
24266SOL     OW74238   3.099   4.981   4.583  0.2910 -0.0165 -0.3144
24266SOL    HW174239   3.193   4.964   4.591  0.0359 -0.9899  0.9505
24266SOL    HW274240   3.077   5.031   4.661  0.1286  2.1541 -1.6827
24267SOL     OW74241   3.041   0.673   4.541 -0.1880  0.9357  0.1810
24267SOL    HW174242   3.102   0.731   4.495 -2.0798  2.2489 -0.7791
24267SOL    HW274243   3.096   0.629   4.607  1.7560  2.1360 -0.5396
24268SOL     OW74244   6.632   4.212   5.815  0.2359 -0.1201 -0.3825
24268SOL    HW174245   6.615   4.256   5.898  0.5865 -1.5062  0.4548
24268SOL    HW274246   6.706   4.154   5.833  0.7196 -0.0116 -1.8327
24269SOL     OW74247   5.577   4.075   4.077  0.1092 -0.0147 -0.2843
24269SOL    HW174248   5.582   3.987   4.113  1.7655 -0.7161 -2.0332
24269SOL    HW274249   5.613   4.067   3.988  0.0371  2.3699 -0.6109
24270SOL     OW74250   5.122   4.214  11.663 -0.3190 -0.4300  0.1534
24270SOL    HW174251   5.190   4.156  11.629 -0.4033  0.4076 -1.5667
24270SOL    HW274252   5.041   4.165  11.653 -0.2853 -0.3680 -0.4490
24271SOL     OW74253   5.019   5.659   3.061 -0.2370 -0.1132  0.1663
24271SOL    HW174254   5.025   5.619   2.974 -0.4768 -0.0881  0.1400
24271SOL    HW274255   4.926   5.661   3.081 -0.3473  1.6148 -0.3738
24272SOL     OW74256   2.748   1.054   6.367 -0.2778  0.2403  0.1040
24272SOL    HW174257   2.760   0.960   6.386  0.4080  0.5879  1.5212
24272SOL    HW274258   2.831   1.081   6.330 -0.7989  0.1007 -1.2047
24273SOL     OW74259   2.693   5.363   0.813  0.5098  0.3040  0.0994
24273SOL    HW174260   2.651   5.396   0.733  0.0753  2.4029  1.1338
24273SOL    HW274261   2.785   5.353   0.788  0.0451 -1.0738 -1.2265
24274SOL     OW74262   1.874   2.220   9.545  0.2339 -0.0577 -0.4463
24274SOL    HW174263   1.872   2.306   9.504  0.8352 -0.5503 -1.5367
24274SOL    HW274264   1.794   2.177   9.515 -0.1145  0.1457  0.1751
24275SOL     OW74265   0.379   3.140   1.479 -0.4454 -0.6776  1.0565
24275SOL    HW174266   0.428   3.058   1.492  0.8468 -0.2289 -0.6271
24275SOL    HW274267   0.294   3.113   1.444  0.0755 -1.3072  0.2463
24276SOL     OW74268   6.051   4.428   1.588  0.0541  0.2640  0.0452
24276SOL    HW174269   6.073   4.381   1.668  0.0422  1.5852  0.8606
24276SOL    HW274270   6.100   4.510   1.594 -0.6858  0.7953 -0.8369
24277SOL     OW74271   6.686   1.508  11.412  0.1232  0.4516  0.7055
24277SOL    HW174272   6.673   1.588  11.361 -0.9728  0.4783  0.9890
24277SOL    HW274273   6.737   1.536  11.488  1.4718  0.4760 -0.1715
24278SOL     OW74274   1.862   5.086  11.623  0.4511  0.7756  0.4446
24278SOL    HW174275   1.851   5.071  11.529  1.2304  1.6235  0.2067
24278SOL    HW274276   1.774   5.079  11.659  0.3176 -1.0150 -0.1136
24279SOL     OW74277   4.273   2.668   9.143  0.3659  0.5424  0.2930
24279SOL    HW174278   4.191   2.637   9.181  0.6804  0.0892  0.6078
24279SOL    HW274279   4.257   2.670   9.049 -0.2751  1.2477  0.4084
24280SOL     OW74280   7.620   2.991  11.011  0.3020 -0.1605  0.0431
24280SOL    HW174281   7.562   3.053  10.966  0.3371  0.3516  0.6838
24280SOL    HW274282   7.567   2.958  11.084  0.1621 -1.1653 -0.4862
24281SOL     OW74283   1.023   1.306   0.881 -0.2383  0.1861 -0.1571
24281SOL    HW174284   0.972   1.348   0.951 -0.8267 -0.4001 -0.2266
24281SOL    HW274285   1.086   1.250   0.927 -0.4565 -0.0047 -0.0909
24282SOL     OW74286   5.894   7.625   3.610 -0.7429 -0.0821  0.1518
24282SOL    HW174287   5.912   7.542   3.655  0.0704  1.0059  1.9878
24282SOL    HW274288   5.889   7.602   3.517  2.2986 -1.8115  0.2635
24283SOL     OW74289   7.066   6.068  12.414 -0.7145  0.1655  0.0548
24283SOL    HW174290   7.088   6.042  12.504 -0.8126  0.0616  0.0491
24283SOL    HW274291   6.975   6.039  12.403 -1.6044  2.4294  0.8017
24284SOL     OW74292   2.807   2.322   8.969  0.5760 -0.2108 -0.3033
24284SOL    HW174293   2.876   2.385   8.949 -0.4620  1.6649  1.5446
24284SOL    HW274294   2.853   2.239   8.982  2.7357  1.2019  2.0976
24285SOL     OW74295   7.164   1.763   8.520  0.3634 -1.0903  0.5897
24285SOL    HW174296   7.116   1.758   8.437 -0.5564  0.8861  0.9359
24285SOL    HW274297   7.255   1.750   8.496  0.4300  1.7579 -1.1724
24286SOL     OW74298   3.617   1.616   7.786 -0.3516  0.5597 -0.2416
24286SOL    HW174299   3.701   1.652   7.758 -0.5259  0.7465 -0.5236
24286SOL    HW274300   3.552   1.675   7.749 -0.6653 -0.3509 -1.1944
24287SOL     OW74301   7.832   4.778   6.385 -0.3817  0.3452  0.7310
24287SOL    HW174302   7.909   4.793   6.440 -0.1222 -1.4648  0.9140
24287SOL    HW274303   7.793   4.697   6.418 -1.8311  0.7107  0.0213
24288SOL     OW74304   4.512   1.379   0.761  0.1489 -0.1292 -0.4548
24288SOL    HW174305   4.539   1.316   0.694  0.4224  2.0796 -2.5383
24288SOL    HW274306   4.585   1.440   0.768 -0.7031  0.8235  0.4123
24289SOL     OW74307   3.364   3.098   3.235  0.3303  0.0208 -0.4038
24289SOL    HW174308   3.424   3.093   3.309 -0.0236 -2.2828 -0.2048
24289SOL    HW274309   3.314   3.178   3.249 -0.3608 -0.8029  2.3678
24290SOL     OW74310   1.640   0.242   2.188 -0.3829  0.7265  0.0692
24290SOL    HW174311   1.595   0.240   2.103  0.5911  1.5585 -0.4935
24290SOL    HW274312   1.706   0.311   2.178  1.7925 -1.1812  0.4788
24291SOL     OW74313   6.654   3.436   5.923 -0.2251 -0.3576 -0.4200
24291SOL    HW174314   6.737   3.392   5.900 -1.1611 -1.0544 -2.7847
24291SOL    HW274315   6.672   3.529   5.911  0.1785 -0.5165 -1.1109
24292SOL     OW74316   0.719   1.567   9.078  0.4249 -0.1338 -0.0857
24292SOL    HW174317   0.695   1.648   9.033 -0.3667 -0.2622  0.0923
24292SOL    HW274318   0.790   1.530   9.025  0.1719  0.2141 -0.6823
24293SOL     OW74319   1.587   0.692   2.844 -0.1502 -0.1704  0.7096
24293SOL    HW174320   1.574   0.783   2.816 -0.1036 -0.6944 -1.1599
24293SOL    HW274321   1.510   0.646   2.811  0.7332 -1.1462 -0.0377
24294SOL     OW74322   0.525   0.877   4.469  0.5148  0.1991  0.0654
24294SOL    HW174323   0.457   0.916   4.413  1.1643  0.0786 -0.8288
24294SOL    HW274324   0.486   0.877   4.557 -0.4006  0.7003 -0.3201
24295SOL     OW74325   3.913   0.762  10.556  0.3501  0.3765  0.4132
24295SOL    HW174326   3.871   0.778  10.472  1.1246  1.6287  0.2249
24295SOL    HW274327   3.842   0.762  10.620 -0.3412 -1.4009 -0.3047
24296SOL     OW74328   0.406   6.076   0.898  0.0039  0.1776 -0.1392
24296SOL    HW174329   0.484   6.116   0.860 -0.0664  0.6289  0.1905
24296SOL    HW274330   0.333   6.128   0.865  0.0732  2.1592  2.4838
24297SOL     OW74331   0.481   2.030   2.245  0.7130  0.2299 -0.2844
24297SOL    HW174332   0.459   2.117   2.213  1.7904  0.3288 -0.7913
24297SOL    HW274333   0.540   2.046   2.319 -1.0306 -0.0235  1.2343
24298SOL     OW74334   0.704   0.774  12.316  0.4641 -0.3219  0.2090
24298SOL    HW174335   0.734   0.840  12.378 -0.3146  0.3562 -0.1224
24298SOL    HW274336   0.663   0.706  12.371  1.4602 -0.6520  0.5652
24299SOL     OW74337   4.722   4.212   6.903  0.1154  0.5818 -0.7474
24299SOL    HW174338   4.794   4.187   6.846  0.6600 -0.1824  0.2364
24299SOL    HW274339   4.743   4.301   6.931  0.2355  0.6761 -1.1309
24300SOL     OW74340   0.187   0.421  11.020 -0.4868 -0.3176  0.2375
24300SOL    HW174341   0.153   0.347  11.071 -1.0249  1.0868  2.0029
24300SOL    HW274342   0.127   0.493  11.038 -0.2508  0.4710 -1.8253
24301SOL     OW74343   7.812   2.723   8.284 -0.1936  0.3325  0.5117
24301SOL    HW174344   7.725   2.717   8.323 -0.4891  0.2085 -0.1410
24301SOL    HW274345   7.807   2.800   8.227 -0.3399 -0.4759 -0.6097
24302SOL     OW74346   6.959   7.518   7.940  0.3466 -0.1254  0.2969
24302SOL    HW174347   6.912   7.507   7.857  0.3870  0.6028  0.1742
24302SOL    HW274348   6.897   7.564   7.997 -0.1348 -1.6873  1.0850
24303SOL     OW74349   3.666   0.248   5.292 -0.2588 -0.3110 -0.3823
24303SOL    HW174350   3.591   0.300   5.263  0.0160  0.7603  0.7278
24303SOL    HW274351   3.627   0.172   5.337 -0.6667 -0.4979 -1.0509
24304SOL     OW74352   0.100   5.519   1.774 -0.2682  0.1912  0.4334
24304SOL    HW174353   0.039   5.457   1.733  1.1217 -0.6123 -0.5256
24304SOL    HW274354   0.047   5.597   1.791 -1.5343 -0.4315 -0.4673
24305SOL     OW74355   3.160   4.086   8.630 -0.1020  0.1726 -0.3628
24305SOL    HW174356   3.122   4.171   8.653  1.6997  0.8627  0.2025
24305SOL    HW274357   3.186   4.048   8.713 -0.7273 -0.8759 -0.6315
24306SOL     OW74358   5.750   6.430  10.759  0.4002 -0.3070 -0.1707
24306SOL    HW174359   5.809   6.472  10.822 -0.6870  1.4629 -0.2712
24306SOL    HW274360   5.766   6.476  10.677 -0.1165 -0.7663 -0.5363
24307SOL     OW74361   6.825   5.179   1.649  0.7039  0.2183 -0.9607
24307SOL    HW174362   6.806   5.208   1.559  0.2754  0.4364 -0.8030
24307SOL    HW274363   6.742   5.188   1.695  0.6122 -1.0858 -0.8500
24308SOL     OW74364   6.425   6.045   9.267  0.1099  0.1903  0.2420
24308SOL    HW174365   6.503   6.101   9.261 -0.2367  0.5460 -1.8183
24308SOL    HW274366   6.432   5.988   9.190 -0.2590 -1.6878  1.5501
24309SOL     OW74367   3.294   1.266   2.707  0.1945  0.3194 -0.2935
24309SOL    HW174368   3.389   1.265   2.693  0.3075  0.3246  0.4290
24309SOL    HW274369   3.281   1.329   2.779 -0.2445 -0.5188  0.3829
24310SOL     OW74370   2.889   4.973   6.535 -0.2974 -0.5839 -0.1952
24310SOL    HW174371   2.922   4.960   6.446  0.6328 -1.9876  0.3144
24310SOL    HW274372   2.906   5.065   6.554  1.1137 -0.6904 -0.8441
24311SOL     OW74373   2.030   1.619  11.455 -0.5490 -0.2031 -0.2896
24311SOL    HW174374   2.078   1.536  11.446 -1.8186 -1.1625  1.3690
24311SOL    HW274375   1.939   1.593  11.470 -0.9496  1.4956  0.4112
24312SOL     OW74376   4.734   4.676   9.526 -0.5327 -0.1145  0.9812
24312SOL    HW174377   4.715   4.686   9.619 -0.2612 -0.0968  1.0353
24312SOL    HW274378   4.680   4.603   9.498  1.4421 -1.9672  1.7631
24313SOL     OW74379   5.580   1.956   8.407 -0.2893  0.2330  0.7415
24313SOL    HW174380   5.504   1.976   8.352 -3.0532 -0.1944  4.0645
24313SOL    HW274381   5.641   1.912   8.348 -3.0129 -0.3049 -1.9459
24314SOL     OW74382   7.261   4.409   1.972 -0.3205  0.3542  0.5889
24314SOL    HW174383   7.328   4.433   1.909 -0.1058 -0.2946  0.5613
24314SOL    HW274384   7.180   4.406   1.920  0.0913 -1.7675 -0.0692
24315SOL     OW74385   2.307   3.784  11.207  0.2344 -0.3121  0.3422
24315SOL    HW174386   2.342   3.695  11.207 -0.1882 -0.4825  1.5258
24315SOL    HW274387   2.385   3.840  11.199  0.8148 -0.7057  2.5710
24316SOL     OW74388   0.053   3.988   5.549 -0.1170 -0.7155  0.8501
24316SOL    HW174389   0.038   3.989   5.454 -1.6172  0.2904  1.0728
24316SOL    HW274390   0.099   3.906   5.564  1.2573 -0.3230 -0.8991
24317SOL     OW74391   5.076   5.852  12.263  0.3899 -0.1420 -0.0210
24317SOL    HW174392   5.077   5.898  12.346  0.8325  1.4795 -0.8892
24317SOL    HW274393   5.130   5.906  12.205 -0.1854 -1.0565 -1.4586
24318SOL     OW74394   3.284   6.948  11.189  0.3861 -0.1651  0.3510
24318SOL    HW174395   3.276   6.975  11.098  2.5038 -0.9104 -0.1227
24318SOL    HW274396   3.281   6.853  11.187  0.4018 -0.1914  1.0638
24319SOL     OW74397   0.043   0.030   9.505  0.0932 -0.3277  0.2606
24319SOL    HW174398   0.021  -0.062   9.494  0.3289 -0.7011  2.3992
24319SOL    HW274399  -0.017   0.061   9.573 -0.4881  1.3202 -0.9500
24320SOL     OW74400   0.263   5.539   4.908 -0.5807  0.5004  0.1825
24320SOL    HW174401   0.274   5.581   4.822 -1.2584  0.8094  0.2441
24320SOL    HW274402   0.334   5.475   4.912 -0.0417  1.0549 -0.2643
24321SOL     OW74403   4.359   7.345   7.982  0.6770  0.0128 -0.5123
24321SOL    HW174404   4.451   7.353   8.008  0.3781 -0.4332  0.7361
24321SOL    HW274405   4.315   7.418   8.026  0.5042  0.5460 -1.5353
24322SOL     OW74406   7.761   7.078   8.903 -0.9091 -0.6391  0.4181
24322SOL    HW174407   7.784   7.127   8.982  0.4975 -0.6088  0.0208
24322SOL    HW274408   7.687   7.125   8.866 -0.4412  0.4088  0.7659
24323SOL     OW74409   0.903   5.443  12.301  0.2778  1.0006 -0.1214
24323SOL    HW174410   0.880   5.527  12.261 -1.8595  2.0157  2.8508
24323SOL    HW274411   0.875   5.451  12.392 -0.3413 -3.0680  0.2540
24324SOL     OW74412   3.605   3.669   0.405 -0.2630 -0.2941  0.5470
24324SOL    HW174413   3.593   3.643   0.314  2.0873  0.7842 -0.1463
24324SOL    HW274414   3.618   3.587   0.452  3.6238 -0.7689 -1.0317
24325SOL     OW74415   1.642   2.965   8.987 -0.0122  0.5988 -0.2253
24325SOL    HW174416   1.641   3.005   8.900  0.1378  2.4239  0.5751
24325SOL    HW274417   1.600   3.029   9.043 -1.2365 -1.0969  0.8582
24326SOL     OW74418   7.007   2.595   5.726 -0.2578  0.0309  0.0802
24326SOL    HW174419   7.006   2.500   5.711 -0.6676 -0.0280  0.4746
24326SOL    HW274420   6.947   2.629   5.660  0.6940  0.1248 -0.7562
24327SOL     OW74421   5.964   0.126   6.727  0.1710 -0.2158  0.3584
24327SOL    HW174422   6.052   0.094   6.748  0.2365 -0.3106 -0.0422
24327SOL    HW274423   5.907   0.051   6.740  0.1101 -0.0819  0.8755
24328SOL     OW74424   2.962   6.066   2.848 -0.2841 -0.2791 -0.1379
24328SOL    HW174425   3.048   6.103   2.827 -0.7085 -0.2543 -1.9596
24328SOL    HW274426   2.970   5.973   2.828 -0.1981 -0.6362  1.3690
24329SOL     OW74427   1.469   2.439   0.648 -0.2610  0.3143  0.2767
24329SOL    HW174428   1.543   2.458   0.591  0.4615  0.7811  1.3268
24329SOL    HW274429   1.486   2.490   0.727 -2.5581  1.7874 -0.0826
24330SOL     OW74430   4.631   4.042  10.613 -0.1526  0.3804  0.1080
24330SOL    HW174431   4.546   4.086  10.605 -0.0265  0.5325 -0.4295
24330SOL    HW274432   4.692   4.102  10.569  0.1295 -0.0250 -0.0498
24331SOL     OW74433   7.060   4.504   4.567 -0.2606 -0.3102 -0.9961
24331SOL    HW174434   6.966   4.494   4.548 -0.3836 -1.4909  0.1008
24331SOL    HW274435   7.099   4.421   4.542 -0.3722 -1.8428  3.1088
24332SOL     OW74436   6.126   6.806   3.660  0.2390  0.2488  0.2425
24332SOL    HW174437   6.214   6.839   3.681  0.5802 -1.2793  1.4192
24332SOL    HW274438   6.099   6.760   3.739 -1.4779  0.3583 -0.2594
24333SOL     OW74439   2.547   3.658   7.622  0.1130 -0.6777  0.4489
24333SOL    HW174440   2.517   3.568   7.633  0.7942 -1.0759 -0.7857
24333SOL    HW274441   2.548   3.671   7.527  0.9320  0.3179  0.5839
24334SOL     OW74442   2.469   7.572   2.270 -0.0888 -0.5369 -0.4504
24334SOL    HW174443   2.550   7.534   2.304  1.3519  0.1832 -2.8413
24334SOL    HW274444   2.478   7.666   2.283 -1.1941 -0.5489  0.5283
24335SOL     OW74445   2.400   1.005   5.113 -0.5267  0.4640 -0.0600
24335SOL    HW174446   2.491   1.036   5.118 -0.3989 -0.0710  1.4167
24335SOL    HW274447   2.408   0.914   5.085 -0.6038  0.4079  0.1017
24336SOL     OW74448   6.220   7.389   3.836 -0.1787  0.2335 -0.4383
24336SOL    HW174449   6.149   7.416   3.777 -0.3227 -0.8978 -0.8172
24336SOL    HW274450   6.268   7.470   3.855 -0.5673  0.7437 -1.5270
24337SOL     OW74451   2.247   5.320   7.185  0.2217  0.2950 -0.3822
24337SOL    HW174452   2.231   5.229   7.213  0.5332 -0.1649 -1.6107
24337SOL    HW274453   2.323   5.348   7.236  0.5695 -0.3963 -0.5063
24338SOL     OW74454   1.188   2.144  10.555 -0.1175  0.1430  0.0089
24338SOL    HW174455   1.099   2.160  10.526  0.5662  0.2837 -2.2054
24338SOL    HW274456   1.183   2.062  10.605 -1.6543  0.8362  1.0645
24339SOL     OW74457   5.355   7.749  12.419  0.2780  0.1131  0.1825
24339SOL    HW174458   5.317   7.758  12.506  0.1716  0.0720  0.1403
24339SOL    HW274459   5.436   7.700  12.433  0.5496  0.6078  0.3312
24340SOL     OW74460   5.027   2.590   6.622  0.2165 -0.6903 -0.8008
24340SOL    HW174461   5.023   2.683   6.647 -0.7732 -1.3723  1.9745
24340SOL    HW274462   5.116   2.563   6.644 -0.1016 -0.8435  0.3582
24341SOL     OW74463   7.171   6.189   0.527 -0.5367  0.3331  0.1494
24341SOL    HW174464   7.097   6.171   0.585 -1.5869 -0.4122 -1.3517
24341SOL    HW274465   7.132   6.230   0.450  0.3561 -1.5096 -1.3645
24342SOL     OW74466   3.273   5.230  11.111 -0.0093 -0.0706 -0.4863
24342SOL    HW174467   3.332   5.201  11.180 -0.3301  0.2852 -0.0564
24342SOL    HW274468   3.293   5.173  11.037  0.2329 -0.5642 -0.0507
24343SOL     OW74469   2.475   0.655   1.981 -0.1950  0.3940  0.5445
24343SOL    HW174470   2.420   0.722   2.022 -0.5682  0.0328  0.6467
24343SOL    HW274471   2.551   0.647   2.038 -0.3618  0.4168  0.7711
24344SOL     OW74472   4.700   1.960   0.994  0.0669  0.1508 -0.0040
24344SOL    HW174473   4.739   1.927   1.074 -0.9811  0.2612  0.5762
24344SOL    HW274474   4.606   1.968   1.014 -0.2161  0.1846 -1.2336
24345SOL     OW74475   3.662   4.437   5.034  0.0491 -0.1926  0.0654
24345SOL    HW174476   3.742   4.476   5.069 -0.3629  1.2185 -0.4704
24345SOL    HW274477   3.597   4.507   5.040 -0.8262 -0.9135 -0.6463
24346SOL     OW74478   7.183   0.384   0.518  0.0964 -0.3849  0.5775
24346SOL    HW174479   7.116   0.386   0.450  0.0101  0.3055  0.6807
24346SOL    HW274480   7.153   0.317   0.579 -0.0540 -0.6915  0.1699
24347SOL     OW74481   0.647   6.202   1.732 -0.4545 -0.1639 -0.4988
24347SOL    HW174482   0.556   6.232   1.731 -0.7915 -1.1484 -0.5739
24347SOL    HW274483   0.698   6.278   1.705 -1.3651  0.0589 -1.6795
24348SOL     OW74484   3.568   3.501   8.624 -0.1984  0.1391 -0.4429
24348SOL    HW174485   3.511   3.448   8.568 -0.5253  1.4614 -1.4173
24348SOL    HW274486   3.577   3.584   8.577  0.2347  0.9807  1.0581
24349SOL     OW74487   2.693   4.267   7.378 -0.0496  0.0223 -0.4500
24349SOL    HW174488   2.749   4.336   7.412  1.7540 -0.4439 -2.2725
24349SOL    HW274489   2.753   4.201   7.344 -1.6953 -2.4131  1.0278
24350SOL     OW74490   2.939   3.012   7.200 -0.4850  0.3616  0.0380
24350SOL    HW174491   2.870   3.063   7.157  0.8053  1.1573 -1.1854
24350SOL    HW274492   2.916   2.921   7.181 -1.2108  0.6096 -0.3397
24351SOL     OW74493   6.445   5.660  10.405 -0.2298 -0.1081  0.0801
24351SOL    HW174494   6.439   5.665  10.501 -1.5855 -1.2939  0.0864
24351SOL    HW274495   6.535   5.685  10.386  0.3988 -0.9316  1.7592
24352SOL     OW74496   3.490   4.114   1.612 -0.3530  0.0926  0.0933
24352SOL    HW174497   3.566   4.075   1.570 -0.1447  0.0806  0.4831
24352SOL    HW274498   3.443   4.040   1.651 -0.5746  0.0975 -0.1609
24353SOL     OW74499   3.705   6.339   1.410  0.0410  0.2175  0.0179
24353SOL    HW174500   3.730   6.299   1.493  1.6225  0.4351 -0.3234
24353SOL    HW274501   3.691   6.265   1.351  1.2515  0.0908 -0.1395
24354SOL     OW74502   3.204   2.968  10.586  0.2827  0.2526 -0.1072
24354SOL    HW174503   3.202   2.977  10.491  0.2186 -1.5990 -0.3161
24354SOL    HW274504   3.284   2.919  10.604 -0.4830 -0.7707  0.6382
24355SOL     OW74505   1.813   7.487   4.085  0.5904 -0.5080 -0.0621
24355SOL    HW174506   1.783   7.396   4.095  0.1467 -0.3893 -0.2888
24355SOL    HW274507   1.762   7.521   4.012  1.0580 -0.2009 -0.2524
24356SOL     OW74508   2.190   3.855   9.348  0.1775  0.7539 -0.0657
24356SOL    HW174509   2.128   3.900   9.291  1.5189  0.3423 -1.9663
24356SOL    HW274510   2.230   3.925   9.400 -1.0473  1.1474  0.3702
24357SOL     OW74511   2.273   2.075   9.765 -0.2537 -0.3612  0.0238
24357SOL    HW174512   2.355   2.051   9.722  0.4831  0.3958  0.9756
24357SOL    HW274513   2.297   2.092   9.855 -1.1645  1.5031 -0.0515
24358SOL     OW74514   0.479   7.689   1.807  0.0120 -0.2515 -0.1457
24358SOL    HW174515   0.518   7.776   1.818  1.9839 -1.0096 -0.6736
24358SOL    HW274516   0.544   7.629   1.842 -1.0404 -1.5762 -0.3582
24359SOL     OW74517   4.632   4.486   0.330  0.7347  0.5125  0.6283
24359SOL    HW174518   4.657   4.394   0.316  0.4076  0.3271  1.2440
24359SOL    HW274519   4.580   4.508   0.253  1.7513  0.5394 -0.0847
24360SOL     OW74520   7.633   5.289   0.162 -0.3866 -0.0950  0.0096
24360SOL    HW174521   7.543   5.255   0.166  0.0019 -1.7972 -2.8527
24360SOL    HW274522   7.636   5.341   0.082  0.9622  0.7947  0.5937
24361SOL     OW74523   0.408   6.284   2.720  0.6578  0.6235 -0.4257
24361SOL    HW174524   0.443   6.346   2.656 -2.5968  2.2661 -0.8263
24361SOL    HW274525   0.394   6.203   2.671  0.0326  1.2519 -1.3112
24362SOL     OW74526   4.596   5.156   5.542  0.2711 -0.3487 -0.1935
24362SOL    HW174527   4.633   5.235   5.503 -0.2047 -0.6105 -1.2021
24362SOL    HW274528   4.618   5.086   5.481 -1.2327 -0.6309 -0.4669
24363SOL     OW74529   4.432   2.336   7.994 -0.0701 -0.4773  0.5220
24363SOL    HW174530   4.511   2.283   7.982 -1.4210 -2.3713 -0.6032
24363SOL    HW274531   4.434   2.398   7.921  0.9219  0.2473  1.1495
24364SOL     OW74532   3.300   2.810   5.631  0.2211  0.0835 -0.1031
24364SOL    HW174533   3.324   2.812   5.724 -0.8231 -2.4648  0.2895
24364SOL    HW274534   3.212   2.848   5.628 -0.9218 -2.3000  0.4655
24365SOL     OW74535   3.350   6.007   6.719 -0.2013  0.5255 -0.1748
24365SOL    HW174536   3.386   5.927   6.679  0.9984  0.7848  0.3445
24365SOL    HW274537   3.422   6.042   6.771 -0.8870  1.6707  0.0272
24366SOL     OW74538   5.102   0.009  11.227  0.3079 -0.3861  0.0394
24366SOL    HW174539   5.181  -0.032  11.263  0.9157  1.1070  0.4768
24366SOL    HW274540   5.038   0.002  11.298 -0.0895 -1.8732 -0.4236
24367SOL     OW74541   5.770   3.249  11.677 -0.3683  0.3520 -0.2825
24367SOL    HW174542   5.686   3.213  11.647 -0.0666 -1.8784  1.2654
24367SOL    HW274543   5.834   3.184  11.648  0.7248  1.5212 -0.5549
24368SOL     OW74544   2.534   3.605   2.043  0.6229 -0.2748 -0.3533
24368SOL    HW174545   2.500   3.516   2.040  0.0232 -0.0424 -0.8363
24368SOL    HW274546   2.629   3.596   2.037  0.6068 -0.9043  0.1972
24369SOL     OW74547   3.912   7.514   4.397 -0.9096  0.1684 -0.3098
24369SOL    HW174548   3.999   7.511   4.437 -1.1041 -0.4132  0.0824
24369SOL    HW274549   3.854   7.474   4.462 -1.2177 -0.8895 -1.1983
24370SOL     OW74550   4.801   6.090  10.418 -0.2442  0.1920  0.4213
24370SOL    HW174551   4.868   6.157  10.435 -2.9603  3.6546 -1.0588
24370SOL    HW274552   4.779   6.056  10.504  2.7673 -0.5149  1.0214
24371SOL     OW74553   2.912   2.704   6.364  0.5036 -0.4212 -0.1045
24371SOL    HW174554   2.926   2.799   6.363  1.6064 -0.5581 -1.7579
24371SOL    HW274555   2.827   2.692   6.323  0.1559 -0.1398  0.5153
24372SOL     OW74556   4.625   3.080   3.524  0.0014  0.5799 -0.4412
24372SOL    HW174557   4.689   3.016   3.555  1.0022  0.9993 -1.5298
24372SOL    HW274558   4.540   3.042   3.544  0.5735 -1.1090 -1.1161
24373SOL     OW74559   1.323   2.234   3.566  0.2314 -0.0739 -0.2214
24373SOL    HW174560   1.256   2.182   3.611 -0.4022  1.8251  1.1320
24373SOL    HW274561   1.313   2.210   3.474  0.8537 -3.2742  0.4267
24374SOL     OW74562   1.488   5.921   2.987 -0.0880  0.2361 -0.8313
24374SOL    HW174563   1.401   5.951   3.015 -0.0960 -0.4135 -0.1341
24374SOL    HW274564   1.539   6.002   2.979 -0.6244  0.5872 -0.7958
24375SOL     OW74565   5.971   2.512   6.247 -0.3982 -0.0521 -0.6236
24375SOL    HW174566   5.907   2.561   6.195  0.7768  2.0119 -0.2230
24375SOL    HW274567   6.021   2.579   6.294  0.5646 -1.7067  0.8486
24376SOL     OW74568   7.686   0.698   9.343  0.0057 -0.2049  0.0386
24376SOL    HW174569   7.617   0.761   9.365  1.4517  1.1680  0.8538
24376SOL    HW274570   7.714   0.664   9.428 -0.3637 -1.5458 -0.3613
24377SOL     OW74571   6.518   4.367   9.502  0.3154 -0.2008  0.0307
24377SOL    HW174572   6.583   4.355   9.572  0.6284 -1.5105 -0.4626
24377SOL    HW274573   6.565   4.348   9.422 -0.8092 -1.7892 -0.2940
24378SOL     OW74574   0.304   6.879   5.975  0.1548 -0.3670 -0.2700
24378SOL    HW174575   0.268   6.859   5.889 -0.3105  0.1120 -0.1960
24378SOL    HW274576   0.291   6.799   6.026 -0.7180 -0.2481 -0.2829
24379SOL     OW74577   5.094   6.258   7.624 -0.1774 -0.6697  0.1069
24379SOL    HW174578   5.119   6.342   7.586  0.1797 -1.1614 -0.7789
24379SOL    HW274579   5.029   6.222   7.563 -0.8150 -0.7488  0.8228
24380SOL     OW74580   5.437   4.909   4.727 -0.6075 -0.1286  0.0653
24380SOL    HW174581   5.492   4.840   4.764 -0.9306  0.5451  1.9444
24380SOL    HW274582   5.348   4.885   4.755 -0.8812  0.3629 -0.3825
24381SOL     OW74583   4.351   7.712   7.776  0.1809 -0.1660 -0.5378
24381SOL    HW174584   4.409   7.675   7.842 -0.6439 -0.4001  0.0705
24381SOL    HW274585   4.334   7.640   7.715 -0.5609 -0.5093  0.0511
24382SOL     OW74586   6.914   5.641   6.808  0.1937 -0.0906  0.0281
24382SOL    HW174587   6.999   5.683   6.792  0.6065 -1.1469 -0.6777
24382SOL    HW274588   6.861   5.665   6.732  0.3871 -0.7025 -0.3106
24383SOL     OW74589   4.968   7.670  11.418 -0.0676 -0.2165  0.5083
24383SOL    HW174590   4.986   7.657  11.325 -1.7892 -1.1242  0.2562
24383SOL    HW274591   4.925   7.756  11.423  0.2713 -0.0444  0.5186
24384SOL     OW74592   0.094   1.893   8.167 -0.2574  0.0137  0.6280
24384SOL    HW174593   0.103   1.874   8.260 -0.8379 -0.5166  0.5847
24384SOL    HW274594   0.139   1.821   8.123  1.0695  0.8959  0.5012
24385SOL     OW74595   1.641   4.774  11.013 -0.5726 -0.3071 -0.2852
24385SOL    HW174596   1.636   4.826  11.093  2.3221  1.2302 -0.9378
24385SOL    HW274597   1.633   4.839  10.942 -2.1283 -1.5070 -1.2608
24386SOL     OW74598   2.719   5.390   7.463 -0.0833 -0.6802 -0.4832
24386SOL    HW174599   2.704   5.296   7.451  0.1475 -0.7100 -0.5500
24386SOL    HW274600   2.794   5.409   7.406 -0.6033 -0.3060 -1.0443
24387SOL     OW74601   3.769   5.604   0.095  0.4210 -0.2238  0.1849
24387SOL    HW174602   3.719   5.616   0.014 -0.0245  1.7613  0.6976
24387SOL    HW274603   3.766   5.510   0.111 -1.2190 -0.4256 -1.0082
24388SOL     OW74604   5.448   7.710   7.695  0.4923 -0.0609  0.0937
24388SOL    HW174605   5.402   7.667   7.623  1.4905 -1.4617  0.2555
24388SOL    HW274606   5.495   7.782   7.652 -0.7012  0.5300 -0.2777
24389SOL     OW74607   7.239   5.028   3.351 -0.3268 -0.8934  0.4597
24389SOL    HW174608   7.285   5.018   3.267  0.8584  0.2955  0.9278
24389SOL    HW274609   7.285   5.100   3.395 -1.2936 -1.1089  1.8904
24390SOL     OW74610   3.614   3.615   9.911  0.2806  0.0055  0.2928
24390SOL    HW174611   3.529   3.612   9.867  0.3055  0.4881  0.2029
24390SOL    HW274612   3.654   3.530   9.893 -0.1772 -0.2212  0.3267
24391SOL     OW74613   7.644   6.827  11.495 -0.0598 -0.1532  0.1081
24391SOL    HW174614   7.720   6.884  11.507 -0.9143  1.0869 -0.1456
24391SOL    HW274615   7.648   6.803  11.402  0.5785 -0.9504  0.3257
24392SOL     OW74616   7.360   6.333   1.889 -0.3145 -0.7797 -0.1657
24392SOL    HW174617   7.426   6.278   1.847  0.8138  0.0211  0.5029
24392SOL    HW274618   7.388   6.422   1.872  0.1923 -0.4078  2.2213
24393SOL     OW74619   5.869   3.140   9.464  0.3240 -0.6248 -0.2512
24393SOL    HW174620   5.847   3.170   9.376 -2.1780  1.4774  0.9394
24393SOL    HW274621   5.857   3.045   9.462  0.2275 -0.5977 -2.1179
24394SOL     OW74622   6.343   4.240   7.719  0.2131 -0.3743 -0.5187
24394SOL    HW174623   6.300   4.154   7.714  1.2245 -0.9836  0.8147
24394SOL    HW274624   6.354   4.256   7.813  2.3054  0.0617 -0.7971
24395SOL     OW74625   4.753   4.568   4.069  0.1170  0.2825 -0.1829
24395SOL    HW174626   4.679   4.593   4.124 -1.2335 -0.7516 -1.4484
24395SOL    HW274627   4.783   4.650   4.030 -1.1428  0.5835 -0.5739
24396SOL     OW74628   2.189   6.054   9.327  0.2067  0.5422 -0.0662
24396SOL    HW174629   2.199   6.130   9.384 -4.1835  0.7435  0.7839
24396SOL    HW274630   2.163   5.983   9.385 -1.3812 -0.0498 -1.4115
24397SOL     OW74631   5.434   0.559  10.745 -0.1583  0.3062 -0.2995
24397SOL    HW174632   5.342   0.563  10.773 -0.7517  1.8294 -2.2570
24397SOL    HW274633   5.484   0.556  10.827 -1.9106 -0.1070  0.8102
24398SOL     OW74634   0.856   4.230  11.841 -0.0716  0.0398 -0.3724
24398SOL    HW174635   0.899   4.212  11.757 -0.3011  1.4065 -0.8057
24398SOL    HW274636   0.926   4.262  11.897  0.0898 -0.9148 -0.0177
24399SOL     OW74637   1.125   4.248  10.269  0.1364 -0.0386  0.0857
24399SOL    HW174638   1.160   4.302  10.199 -0.8777 -1.1860 -1.3563
24399SOL    HW274639   1.155   4.160  10.249 -0.5522 -0.4567  0.8375
24400SOL     OW74640   7.552   1.000  10.462  0.1708  0.2118 -0.0422
24400SOL    HW174641   7.640   0.979  10.432  1.0731  1.8927  1.2392
24400SOL    HW274642   7.522   0.921  10.506  0.9450 -0.4562 -0.6809
24401SOL     OW74643   0.974   5.227   8.168  0.3215  0.3150 -0.3337
24401SOL    HW174644   0.891   5.252   8.208  0.9176  1.1273  0.4425
24401SOL    HW274645   1.025   5.191   8.240  0.3167 -1.0736 -0.9924
24402SOL     OW74646   0.226   3.908   5.825 -0.1242  0.8668  0.1752
24402SOL    HW174647   0.306   3.904   5.877 -0.7651 -0.8612  1.0920
24402SOL    HW274648   0.235   3.837   5.761 -1.9705 -1.1310  1.9624
24403SOL     OW74649   6.729   3.124   7.153  0.1531 -0.3385  1.0472
24403SOL    HW174650   6.658   3.166   7.201 -0.8705 -0.7189 -0.0821
24403SOL    HW274651   6.754   3.188   7.086  0.9401 -0.1698  1.4983
24404SOL     OW74652   1.664   2.675   4.569 -0.4666 -0.4680 -0.0508
24404SOL    HW174653   1.668   2.579   4.562 -2.2992 -0.5933 -0.0253
24404SOL    HW274654   1.581   2.691   4.615  0.7155  1.0839  1.6577
24405SOL     OW74655   5.895   7.239  10.047  0.1922  0.4398  0.2511
24405SOL    HW174656   5.810   7.196  10.034 -0.5632  1.4978  1.4682
24405SOL    HW274657   5.949   7.207   9.974 -1.6144  0.6810 -1.2825
24406SOL     OW74658   0.194   1.015   3.706 -0.0529 -0.2587 -0.5026
24406SOL    HW174659   0.144   0.945   3.662 -0.4282  0.4406 -1.2050
24406SOL    HW274660   0.200   1.085   3.641  0.8596  0.1281 -0.0211
24407SOL     OW74661   1.150   3.248   7.631  0.3380 -0.0936 -0.2625
24407SOL    HW174662   1.111   3.164   7.654  0.8323  0.2679  2.1195
24407SOL    HW274663   1.224   3.225   7.574 -0.7797 -1.0724 -1.3668
24408SOL     OW74664   3.905   5.942  10.067 -0.3296  0.7390  0.0643
24408SOL    HW174665   3.826   5.895  10.040  1.2434 -1.4064 -1.1955
24408SOL    HW274666   3.925   5.999   9.993 -0.2539  0.6491  0.0145
24409SOL     OW74667   3.250   0.404   1.405  0.2005  0.1246 -0.0389
24409SOL    HW174668   3.200   0.356   1.340 -1.0439  0.6525  0.5072
24409SOL    HW274669   3.200   0.396   1.486  2.0681 -1.1122  1.0748
24410SOL     OW74670   5.534   3.455  11.776 -0.4122  0.3038  0.1493
24410SOL    HW174671   5.484   3.485  11.853 -0.6260  0.7598 -0.1589
24410SOL    HW274672   5.475   3.395  11.731 -0.4574  0.3867  0.0985
24411SOL     OW74673   4.663   5.512  11.992  0.0733  0.3990  0.7774
24411SOL    HW174674   4.683   5.605  12.004  1.5394  0.0817  1.0146
24411SOL    HW274675   4.621   5.507  11.906  1.3744  1.1170  0.0652
24412SOL     OW74676   2.774   5.938   0.411 -0.3701 -0.0395  0.3233
24412SOL    HW174677   2.813   6.021   0.440  0.6085  0.0276 -1.1004
24412SOL    HW274678   2.796   5.932   0.318 -0.9216 -1.6225  0.2652
24413SOL     OW74679   1.147   4.603   6.760 -0.4291 -0.0168 -0.4525
24413SOL    HW174680   1.133   4.537   6.692 -1.2002 -0.1013 -0.2185
24413SOL    HW274681   1.195   4.556   6.829 -2.9252 -1.0043  0.7164
24414SOL     OW74682   1.504   1.282   5.881 -0.9190  0.1111 -0.0297
24414SOL    HW174683   1.410   1.275   5.897 -0.7904 -0.1959  0.6196
24414SOL    HW274684   1.517   1.238   5.797 -1.4325  0.6734 -0.4117
24415SOL     OW74685   7.907   6.524   4.393  0.1941  0.1232  0.3951
24415SOL    HW174686   7.897   6.496   4.302 -1.9391  1.3058  0.1982
24415SOL    HW274687   8.002   6.533   4.405  0.5848 -1.1197 -1.3541
24416SOL     OW74688   0.914   6.871   5.070 -1.1689 -0.0011  0.5789
24416SOL    HW174689   0.841   6.858   5.131 -0.9688  0.4072  0.9158
24416SOL    HW274690   0.899   6.959   5.035 -1.4285 -0.3402 -0.1646
24417SOL     OW74691   6.798   1.092  11.377  0.5620 -0.5306 -0.7467
24417SOL    HW174692   6.809   1.152  11.304 -0.0409 -0.2635 -0.6263
24417SOL    HW274693   6.704   1.072  11.377  0.3494  0.3215  0.6180
24418SOL     OW74694   1.477   0.375   3.472  0.2806  0.4824  0.5371
24418SOL    HW174695   1.445   0.461   3.497  1.3311  1.3113 -0.8186
24418SOL    HW274696   1.501   0.333   3.555  0.8282  1.9493  1.1509
24419SOL     OW74697   3.002   5.487   1.742 -0.7904  0.2257 -0.1868
24419SOL    HW174698   2.960   5.520   1.821  0.3880  0.3492  0.4128
24419SOL    HW274699   3.001   5.392   1.753  0.8995  0.2859  0.8361
24420SOL     OW74700   5.532   6.949   7.661  0.3185 -0.1852  0.3179
24420SOL    HW174701   5.440   6.955   7.687  0.4319 -0.9853  0.9332
24420SOL    HW274702   5.536   6.872   7.605  0.6145 -0.1667  0.3141
24421SOL     OW74703   5.950   1.404   3.503  0.5322  0.3226 -0.0246
24421SOL    HW174704   5.973   1.450   3.584  2.2485  2.0394 -1.3951
24421SOL    HW274705   5.964   1.312   3.523  0.0483  0.6229  1.8863
24422SOL     OW74706   3.689   5.780   9.968 -0.1735 -0.3321 -0.2464
24422SOL    HW174707   3.600   5.810   9.987 -0.2290 -1.2841  1.1697
24422SOL    HW274708   3.688   5.761   9.874 -1.0909  0.8375 -0.4995
24423SOL     OW74709   1.295   4.634   7.535  0.1774 -0.1030  0.1617
24423SOL    HW174710   1.214   4.631   7.484  0.8645 -2.2343 -0.9156
24423SOL    HW274711   1.323   4.725   7.529 -0.9919  0.2086 -1.3291
24424SOL     OW74712   1.321   7.093   1.506 -0.5381  0.1352 -0.7194
24424SOL    HW174713   1.317   7.105   1.601  2.0475 -1.6666 -0.2953
24424SOL    HW274714   1.377   7.164   1.475 -2.0182  1.2072 -1.0919
24425SOL     OW74715   7.400   1.113   9.032 -0.4513 -0.2416  0.0884
24425SOL    HW174716   7.325   1.169   9.053  0.5298  0.6596  1.3078
24425SOL    HW274717   7.470   1.173   9.009  0.8568 -0.8516  2.1743
24426SOL     OW74718   1.628   6.179  11.545  0.3352 -0.3930 -0.4634
24426SOL    HW174719   1.600   6.135  11.465 -0.6440 -0.9588  0.1614
24426SOL    HW274720   1.723   6.188  11.537  0.4641 -1.9599 -0.9325
24427SOL     OW74721   3.972   5.970   6.732  0.4670  0.1111 -0.2187
24427SOL    HW174722   3.906   6.003   6.670 -0.0503  0.7111  0.6372
24427SOL    HW274723   3.934   5.987   6.818  1.6721  0.3032  0.2847
24428SOL     OW74724   0.508   2.430  11.343  0.4447 -0.0292 -0.2702
24428SOL    HW174725   0.455   2.435  11.263  0.7950 -0.0091 -0.5043
24428SOL    HW274726   0.449   2.458  11.413  0.1935  0.1427 -0.5490
24429SOL     OW74727   4.832   2.991   7.301 -0.4017  0.1981  0.6296
24429SOL    HW174728   4.741   2.969   7.278 -0.3508  0.4421  0.1827
24429SOL    HW274729   4.845   3.078   7.262  0.7665 -0.7859 -1.3328
24430SOL     OW74730   1.767   2.682   7.071  0.3898  0.2576 -0.2315
24430SOL    HW174731   1.826   2.611   7.045  1.7043  1.0723  0.3794
24430SOL    HW274732   1.683   2.660   7.031  1.1453 -0.8708 -1.2742
24431SOL     OW74733   6.427   1.578   9.844 -0.3147  0.2628 -0.1568
24431SOL    HW174734   6.445   1.618   9.758  0.5661 -0.6663 -0.4211
24431SOL    HW274735   6.396   1.490   9.823 -0.5525  0.1906  0.4733
24432SOL     OW74736   5.998   7.455   8.771 -0.0783 -0.3166 -0.6007
24432SOL    HW174737   6.044   7.458   8.687 -1.2731  1.5971 -1.2403
24432SOL    HW274738   5.919   7.403   8.754 -0.0157 -0.4468 -0.4971
24433SOL     OW74739   1.737   6.970   0.099 -0.0471 -0.2868  0.3484
24433SOL    HW174740   1.723   6.949   0.191  0.2769 -1.3671  0.1739
24433SOL    HW274741   1.695   6.897   0.052  1.8717 -1.0344 -0.2863
24434SOL     OW74742   3.357   2.397   5.358  0.1926  0.4141  0.2121
24434SOL    HW174743   3.386   2.452   5.431 -0.4588 -0.5064  1.1912
24434SOL    HW274744   3.262   2.406   5.357  0.2384  0.9243 -0.9572
24435SOL     OW74745   3.572   7.109  11.237  0.1441 -0.1094  0.1817
24435SOL    HW174746   3.609   7.177  11.293 -0.3031  0.1675  0.1447
24435SOL    HW274747   3.524   7.053  11.297  0.5610 -0.4297  0.2201
24436SOL     OW74748   3.881   4.000   8.021 -0.4104 -0.5888 -0.2411
24436SOL    HW174749   3.832   3.923   7.993 -1.5030  0.1300 -0.3622
24436SOL    HW274750   3.922   4.033   7.941  1.2224 -1.8311  0.0527
24437SOL     OW74751   4.965   1.915   8.017 -0.2304  0.4537 -0.1657
24437SOL    HW174752   4.995   1.882   8.101  0.2304 -1.5851 -1.0674
24437SOL    HW274753   4.984   2.008   8.019  1.9372  0.0313  1.0859
24438SOL     OW74754   5.796   4.415   0.152  0.7209  0.1091  0.1187
24438SOL    HW174755   5.729   4.368   0.202  1.4644  1.3743  2.4947
24438SOL    HW274756   5.786   4.383   0.062 -1.3345 -1.6304  0.8648
24439SOL     OW74757   4.687   7.867  10.476  0.1959 -0.0620  0.0579
24439SOL    HW174758   4.696   7.812  10.554 -0.6463  0.0103  0.2152
24439SOL    HW274759   4.729   7.950  10.500  1.6343 -0.6913 -0.2470
24440SOL     OW74760   1.600   2.503  11.342  0.5232 -0.0820  0.0162
24440SOL    HW174761   1.553   2.534  11.419  1.2708 -1.0835  0.9059
24440SOL    HW274762   1.592   2.574  11.278  0.1939  0.9078  1.1367
24441SOL     OW74763   1.934   4.031   5.539 -0.2041 -0.1731  0.0299
24441SOL    HW174764   1.949   3.937   5.531 -0.4987 -0.0768 -2.5016
24441SOL    HW274765   2.011   4.063   5.587  1.5525 -1.3087 -1.8543
24442SOL     OW74766   4.605   5.774   2.284  0.4982  0.0231  0.0182
24442SOL    HW174767   4.652   5.746   2.205  1.3546  0.4605  0.3631
24442SOL    HW274768   4.512   5.761   2.262  0.6769  0.7898 -1.3296
24443SOL     OW74769   7.743   5.503   3.771 -0.4282  0.9604  0.6983
24443SOL    HW174770   7.666   5.524   3.718 -0.9829 -0.2624  0.9951
24443SOL    HW274771   7.726   5.415   3.804  0.9281  0.8331  1.0905
24444SOL     OW74772   5.548   2.508   9.394  0.4847  0.3700 -0.5859
24444SOL    HW174773   5.554   2.413   9.380 -1.1441  0.6112 -3.7914
24444SOL    HW274774   5.455   2.525   9.408  0.8237  1.4828  0.5398
24445SOL     OW74775   5.980   2.385   9.734  0.4275 -0.5003  0.2550
24445SOL    HW174776   5.945   2.378   9.823  1.8017  0.5217  0.9307
24445SOL    HW274777   6.063   2.336   9.738  0.1385 -1.0800 -0.6825
24446SOL     OW74778   4.280   0.136   6.416  0.3196 -0.2417 -0.8892
24446SOL    HW174779   4.350   0.175   6.364  0.6151  1.9746  1.0300
24446SOL    HW274780   4.319   0.058   6.455  1.3492  0.3340 -0.7488
24447SOL     OW74781   3.669   0.814   2.200  0.0418  0.2176 -0.1089
24447SOL    HW174782   3.723   0.735   2.195 -0.9455 -0.6464  1.7934
24447SOL    HW274783   3.579   0.781   2.205 -0.3574  1.3982  1.4779
24448SOL     OW74784   7.426   7.777   2.838  0.1354 -0.0987  0.3687
24448SOL    HW174785   7.334   7.772   2.863  0.5694  0.2439  2.1684
24448SOL    HW274786   7.460   7.852   2.886  1.7326 -1.1888  1.0357
24449SOL     OW74787   5.984   6.345   2.507 -0.2341 -1.0061 -0.6540
24449SOL    HW174788   6.013   6.374   2.421 -1.3146  0.1617 -0.6612
24449SOL    HW274789   5.988   6.250   2.504  0.4331 -0.9534 -1.7359
24450SOL     OW74790   0.055   3.917  12.315 -0.0642  0.3716 -0.2465
24450SOL    HW174791   0.108   3.984  12.272 -0.2011  0.9772  0.5165
24450SOL    HW274792   0.097   3.834  12.291  0.9169  0.8155 -0.0855
24451SOL     OW74793   4.027   2.910   2.523  0.3020 -0.2870  0.0995
24451SOL    HW174794   3.950   2.854   2.518  0.8084 -1.1838  1.6634
24451SOL    HW274795   4.002   2.990   2.477 -1.9342 -0.1043  1.5080
24452SOL     OW74796   2.037   0.833   8.683  0.7704 -0.0617  0.1131
24452SOL    HW174797   2.073   0.765   8.739  1.6789  0.3897  0.0912
24452SOL    HW274798   2.076   0.817   8.597  0.8278  0.3599  0.0579
24453SOL     OW74799   0.156   6.723  12.226 -0.4268  0.1222 -0.2152
24453SOL    HW174800   0.194   6.635  12.222  0.3335  0.4772 -1.3326
24453SOL    HW274801   0.225   6.780  12.192 -0.9462  1.1428  0.4038
24454SOL     OW74802   4.512   3.389   1.110  0.1085  0.5615  0.3562
24454SOL    HW174803   4.440   3.349   1.060 -0.6946  2.5710 -0.2016
24454SOL    HW274804   4.587   3.382   1.051 -0.2613  0.7430 -0.1535
24455SOL     OW74805   6.651   7.606   9.014  0.0008 -0.5090  0.1975
24455SOL    HW174806   6.633   7.518   8.981  2.0672 -0.9442  0.0898
24455SOL    HW274807   6.743   7.623   8.990 -0.3396  1.6987  0.1795
24456SOL     OW74808   5.011   7.266   7.997 -0.2936 -0.1837 -0.6456
24456SOL    HW174809   4.929   7.219   7.981 -1.0579  0.7229  0.3954
24456SOL    HW274810   5.002   7.299   8.086  1.9701 -1.5244  0.1530
24457SOL     OW74811   1.057   4.285   0.029 -0.0032 -0.1395 -0.1883
24457SOL    HW174812   1.020   4.373   0.021  1.2652  0.7413  2.5115
24457SOL    HW274813   1.113   4.275  -0.048 -0.3514  1.3071 -0.6612
24458SOL     OW74814   5.754   7.214   9.779 -0.2366  0.4775 -0.2675
24458SOL    HW174815   5.828   7.179   9.730 -1.8349 -0.9885 -1.7450
24458SOL    HW274816   5.771   7.309   9.783  1.2385  0.2981 -1.3603
24459SOL     OW74817   3.798   3.273   0.682 -0.1323 -0.2970 -0.0813
24459SOL    HW174818   3.886   3.262   0.719  0.3448 -0.6939 -1.2863
24459SOL    HW274819   3.787   3.198   0.624 -1.0779  0.0147 -0.3224
24460SOL     OW74820   0.326   6.861   4.497 -0.2247  0.1111 -0.3624
24460SOL    HW174821   0.232   6.854   4.510 -0.5561 -0.4049 -2.5997
24460SOL    HW274822   0.337   6.932   4.434  0.5898 -1.6278 -2.3133
24461SOL     OW74823   2.914   0.455  10.438  0.5325  0.1370  0.1979
24461SOL    HW174824   2.916   0.471  10.532 -2.2751  0.2312  0.3057
24461SOL    HW274825   2.901   0.360  10.430 -0.4911  0.2911 -0.0513
24462SOL     OW74826   4.119   0.333  12.088 -0.5165  0.3258 -0.3997
24462SOL    HW174827   4.041   0.342  12.034 -0.2880 -1.2787 -1.0523
24462SOL    HW274828   4.152   0.245  12.069  0.9243  0.6119  0.5655
24463SOL     OW74829   5.661   5.405  11.317 -0.4417  0.4121  0.0012
24463SOL    HW174830   5.657   5.312  11.340  0.2801  0.7512  1.6347
24463SOL    HW274831   5.594   5.416  11.250 -1.0649 -1.1299  0.3232
24464SOL     OW74832   2.080   1.073   1.249  0.0300  0.2464  0.0184
24464SOL    HW174833   2.168   1.104   1.269  0.1287 -0.5107  0.8222
24464SOL    HW274834   2.090   0.978   1.239 -0.7666  0.0905  0.6093
24465SOL     OW74835   3.650   6.415   5.567 -0.1071 -0.1432  0.1765
24465SOL    HW174836   3.681   6.438   5.480  0.1992 -0.5455  0.1750
24465SOL    HW274837   3.725   6.431   5.625 -0.2048 -0.1886  0.3163
24466SOL     OW74838   5.697   5.333   4.374 -0.4643 -0.0498  0.1603
24466SOL    HW174839   5.662   5.293   4.453 -0.3008  0.8069  0.6891
24466SOL    HW274840   5.655   5.287   4.302 -0.3624 -1.0714  0.7395
24467SOL     OW74841   0.741   4.263   1.201  0.0658  0.0368  0.3815
24467SOL    HW174842   0.748   4.257   1.106  1.4581  0.8993  0.4107
24467SOL    HW274843   0.647   4.252   1.218 -0.4022  1.1665 -1.1921
24468SOL     OW74844   7.465   5.477   9.224  0.0435 -0.0299 -0.0480
24468SOL    HW174845   7.436   5.477   9.315  1.3070 -1.4751  0.3977
24468SOL    HW274846   7.412   5.410   9.182 -1.5237  1.5754 -0.7777
24469SOL     OW74847   2.085   4.661   6.881 -0.1695 -0.2274 -0.5693
24469SOL    HW174848   2.046   4.702   6.804 -1.3626 -0.2398  0.0148
24469SOL    HW274849   2.014   4.611   6.921  0.8764 -1.6563 -0.4207
24470SOL     OW74850   1.708   0.843   6.133 -0.6861 -0.5557  0.3447
24470SOL    HW174851   1.769   0.780   6.173 -1.1575 -1.0915  0.2310
24470SOL    HW274852   1.763   0.917   6.109 -0.1723 -0.7902  0.7755
24471SOL     OW74853   7.947   6.603   4.718  0.2352 -0.2042  0.1314
24471SOL    HW174854   8.020   6.565   4.768 -0.7190 -0.5750  1.2887
24471SOL    HW274855   7.963   6.576   4.628  0.9161 -1.2582  0.5539
24472SOL     OW74856   7.859   4.677   1.703  0.1388  0.3442  0.2473
24472SOL    HW174857   7.875   4.771   1.690 -1.0987  0.6013  0.4363
24472SOL    HW274858   7.874   4.663   1.797  0.9486  0.2113  0.1040
24473SOL     OW74859   0.163   0.612   2.440  0.2508  0.3699  0.1091
24473SOL    HW174860   0.103   0.629   2.367  1.5220 -0.9862 -1.3380
24473SOL    HW274861   0.181   0.518   2.434  2.9067  0.8025  0.1445
24474SOL     OW74862   1.877   3.192   2.129 -0.0701 -0.5546  0.0229
24474SOL    HW174863   1.896   3.255   2.059  0.7361 -0.6403  0.1591
24474SOL    HW274864   1.803   3.141   2.096 -1.3743  1.0820  0.3126
24475SOL     OW74865   5.705   7.667   8.942 -0.0157 -0.0911 -0.0393
24475SOL    HW174866   5.800   7.656   8.948 -0.1490 -2.0042 -0.6654
24475SOL    HW274867   5.671   7.578   8.947 -1.6558  0.3773 -1.7047
24476SOL     OW74868   6.576   7.249   8.623 -0.1847  0.4365 -0.1530
24476SOL    HW174869   6.488   7.265   8.656  0.0204  1.3093  0.0105
24476SOL    HW274870   6.563   7.217   8.534 -0.6840 -0.1515  0.1303
24477SOL     OW74871   5.559   7.295   2.080  0.2415  0.3860  0.3175
24477SOL    HW174872   5.522   7.287   2.168 -0.1764  1.4439  0.2508
24477SOL    HW274873   5.619   7.370   2.086  0.1791  0.4874 -0.3068
24478SOL     OW74874   7.855   7.932   7.053 -0.0223  0.1743 -0.0794
24478SOL    HW174875   7.784   7.926   7.116  0.0151 -0.2579 -0.0729
24478SOL    HW274876   7.858   8.025   7.028 -0.5327  0.2082 -0.0195
24479SOL     OW74877   0.683   5.224   5.289  0.3983 -0.2412 -0.1159
24479SOL    HW174878   0.603   5.172   5.288 -0.0844  0.4886  0.1603
24479SOL    HW274879   0.662   5.302   5.237  0.7835  0.1671  0.3363
24480SOL     OW74880   1.563   6.959   4.756  0.0096 -0.0820  0.1785
24480SOL    HW174881   1.517   6.876   4.768  2.0736 -1.3297 -0.0492
24480SOL    HW274882   1.516   7.001   4.684 -0.7060 -1.3388 -0.1300
24481SOL     OW74883   1.585   0.423   4.618  0.0278 -0.2804  0.5956
24481SOL    HW174884   1.642   0.347   4.612 -0.5515 -0.6799 -0.0475
24481SOL    HW274885   1.609   0.477   4.542 -3.0473 -2.3294 -2.1346
24482SOL     OW74886   2.082   6.768   1.006 -0.2288  0.6659 -1.1544
24482SOL    HW174887   2.065   6.773   1.100 -1.7927  0.8327 -1.4230
24482SOL    HW274888   2.091   6.859   0.978  1.1015  0.5889 -1.0436
24483SOL     OW74889   2.026   2.810   3.250 -0.3501  0.4333  0.0144
24483SOL    HW174890   2.040   2.815   3.345  0.0714 -0.6969  0.0350
24483SOL    HW274891   2.105   2.766   3.217 -1.0140 -0.2529 -0.7041
24484SOL     OW74892   0.438   6.336   3.897 -0.0964  0.3375 -0.0846
24484SOL    HW174893   0.344   6.346   3.884 -0.2545  1.5660  1.6070
24484SOL    HW274894   0.475   6.419   3.866  0.2903  0.3315  0.3570
24485SOL     OW74895   7.133   0.798   1.009  0.4134 -0.2360 -0.3099
24485SOL    HW174896   7.226   0.809   1.030  0.0355  1.5678  0.6708
24485SOL    HW274897   7.116   0.705   1.022  1.9420 -0.4845  0.1129
24486SOL     OW74898   4.967   6.843   8.931  0.0852 -0.1907 -0.1672
24486SOL    HW174899   4.995   6.763   8.977 -0.7611 -0.2159  0.3176
24486SOL    HW274900   5.014   6.914   8.975 -1.6566 -0.0741  1.6141
24487SOL     OW74901   3.495   0.407   6.235 -0.2351 -0.0599 -0.4574
24487SOL    HW174902   3.529   0.481   6.184  0.9909 -0.9256 -0.9525
24487SOL    HW274903   3.401   0.423   6.242  0.1083  1.9365  0.1135
24488SOL     OW74904   4.348   7.861   0.974 -0.0516  0.7492  0.5423
24488SOL    HW174905   4.266   7.903   0.949  0.1395  0.8778  0.1359
24488SOL    HW274906   4.321   7.778   1.014 -0.4051  1.0444  0.9278
24489SOL     OW74907   6.001   2.843   8.933 -0.4496  0.0559  0.3226
24489SOL    HW174908   6.018   2.758   8.891  1.4686  1.2222 -1.4096
24489SOL    HW274909   6.082   2.864   8.978 -1.8971 -0.3443  3.3878
24490SOL     OW74910   7.347   3.415   2.909  0.3957 -0.2007 -0.0621
24490SOL    HW174911   7.295   3.366   2.846  2.6539 -0.1865 -2.0689
24490SOL    HW274912   7.341   3.364   2.990 -1.0921 -1.2081 -0.7649
24491SOL     OW74913   4.511   7.155   7.432 -0.5020  0.2555 -0.3227
24491SOL    HW174914   4.562   7.157   7.513 -0.3345  1.3537 -0.4408
24491SOL    HW274915   4.463   7.073   7.436  0.0355 -0.0261  0.5650
24492SOL     OW74916   5.455   2.563   1.656 -0.1327 -0.1151  0.1118
24492SOL    HW174917   5.396   2.594   1.724  1.2167 -1.5380  2.0364
24492SOL    HW274918   5.433   2.471   1.644  1.1395 -0.4813  0.3486
24493SOL     OW74919   2.994   7.736   4.616  0.6789  0.1981 -0.1595
24493SOL    HW174920   2.927   7.669   4.610  0.8829  0.0586 -0.9826
24493SOL    HW274921   2.979   7.778   4.701 -0.1577 -0.1330 -0.1375
24494SOL     OW74922   3.876   7.120   4.449 -0.1087  0.2820  0.3908
24494SOL    HW174923   3.780   7.116   4.444 -0.0395 -0.5311 -0.9970
24494SOL    HW274924   3.894   7.165   4.531 -1.6926  1.3258  0.2168
24495SOL     OW74925   0.908   3.150   5.906 -0.1900  0.3336  0.2317
24495SOL    HW174926   0.927   3.119   5.817 -0.1606  2.3530 -0.5143
24495SOL    HW274927   0.813   3.163   5.907 -0.3986 -1.0342  0.9975
24496SOL     OW74928   6.740   1.124   0.559 -0.1350 -0.5262  0.0350
24496SOL    HW174929   6.729   1.169   0.475 -0.8322 -0.2480  0.2581
24496SOL    HW274930   6.657   1.077   0.571 -0.1088 -0.4247  0.6378
24497SOL     OW74931   4.955   4.406   7.791  0.6174 -0.1550  0.0548
24497SOL    HW174932   4.951   4.369   7.879  1.6531 -0.4886 -0.0203
24497SOL    HW274933   4.870   4.385   7.752  0.2994 -0.3475  0.8367
24498SOL     OW74934   2.395   7.381   7.037  0.1257 -0.1748 -0.0074
24498SOL    HW174935   2.317   7.412   6.992 -0.8344 -0.6505  1.2453
24498SOL    HW274936   2.430   7.313   6.980  0.4914  1.0613 -1.2873
24499SOL     OW74937   4.678   2.429   4.608 -0.0495 -0.0344  0.0659
24499SOL    HW174938   4.593   2.385   4.606  1.7586 -3.9849  0.9425
24499SOL    HW274939   4.667   2.499   4.672 -2.9936  0.6541 -1.0209
24500SOL     OW74940   4.339   1.922   4.285 -0.8112 -0.6531 -0.2826
24500SOL    HW174941   4.287   1.964   4.216 -0.1007  0.0196 -0.4220
24500SOL    HW274942   4.389   1.994   4.324  0.3702 -1.3515 -0.4721
24501SOL     OW74943   0.218   5.285  10.721 -0.4205  0.6745 -0.3020
24501SOL    HW174944   0.141   5.268  10.775  0.3400  0.4624  0.7372
24501SOL    HW274945   0.290   5.296  10.783  0.6671 -0.4832 -1.2827
24502SOL     OW74946   6.733   4.346  11.438  0.0877  0.2089  0.6037
24502SOL    HW174947   6.823   4.375  11.454  0.1657  0.5272 -0.3405
24502SOL    HW274948   6.679   4.411  11.482  0.2480  2.1612 -1.8058
24503SOL     OW74949   7.152   1.261   6.940 -0.2855  0.5358  0.1573
24503SOL    HW174950   7.195   1.271   6.855  1.0364  0.0066  0.7297
24503SOL    HW274951   7.215   1.212   6.992 -1.6843 -0.4093  1.0055
24504SOL     OW74952   7.260   0.899   1.440 -0.1689  0.0674 -0.8046
24504SOL    HW174953   7.210   0.968   1.485 -0.2249  0.0046 -0.7697
24504SOL    HW274954   7.258   0.924   1.348  0.1756  0.3404 -0.7395
24505SOL     OW74955   6.349   7.016   8.688  0.6591  0.5568 -0.3057
24505SOL    HW174956   6.278   6.953   8.695  1.0689  0.2357  1.4935
24505SOL    HW274957   6.375   7.013   8.596  1.3038 -2.6009 -0.1115
24506SOL     OW74958   7.672   6.308   4.964  0.0279 -0.7617  0.3626
24506SOL    HW174959   7.718   6.245   5.021 -0.7782 -1.5725  0.1471
24506SOL    HW274960   7.691   6.278   4.876 -0.5959 -0.8847  0.2633
24507SOL     OW74961   3.101   3.966   0.573 -0.1584  0.4810 -0.6535
24507SOL    HW174962   3.175   3.931   0.523 -0.4796 -0.7571 -0.2928
24507SOL    HW274963   3.024   3.930   0.530 -0.4414 -0.5043  0.6291
24508SOL     OW74964   4.613   2.237   8.847  0.4846 -0.4124 -0.5443
24508SOL    HW174965   4.551   2.264   8.915 -0.3283  2.9800 -2.4059
24508SOL    HW274966   4.699   2.251   8.887  0.0334  0.9917 -0.0012
24509SOL     OW74967   4.589   4.500   5.133 -0.2442  0.3218 -0.1772
24509SOL    HW174968   4.658   4.479   5.196 -0.4955 -0.2437 -0.0847
24509SOL    HW274969   4.598   4.594   5.118  0.6816  0.2244 -0.3212
24510SOL     OW74970   5.656   0.193   3.908  0.3610  0.3457  0.3480
24510SOL    HW174971   5.729   0.166   3.852 -0.5231 -1.0486 -0.1815
24510SOL    HW274972   5.697   0.218   3.990  1.2988 -3.5428  1.2543
24511SOL     OW74973   6.405   0.820   6.841  0.4836  0.2416  0.4867
24511SOL    HW174974   6.318   0.822   6.801  0.5011  1.3504  0.4739
24511SOL    HW274975   6.447   0.901   6.811  1.8704 -0.7165 -0.2795
24512SOL     OW74976   4.238   4.012   3.053  0.1702 -0.6929 -0.3528
24512SOL    HW174977   4.330   4.011   3.081 -0.0894 -0.0956  0.5661
24512SOL    HW274978   4.194   4.066   3.118 -0.3744  1.2721 -2.2471
24513SOL     OW74979   5.738   6.242   6.687  0.2094  0.4485 -0.3973
24513SOL    HW174980   5.767   6.222   6.777 -0.1674 -0.3184 -0.4333
24513SOL    HW274981   5.819   6.253   6.638  0.4891 -1.5851 -0.4817
24514SOL     OW74982   3.796   4.092   4.817  0.2200 -0.2897  0.2735
24514SOL    HW174983   3.802   4.054   4.729 -1.2804 -2.1999  0.9086
24514SOL    HW274984   3.842   4.030   4.873  0.1186  0.2729  0.9947
24515SOL     OW74985   6.422   7.377   7.338 -0.1751  0.2859  0.0484
24515SOL    HW174986   6.384   7.446   7.393  0.6194  1.0339 -0.3239
24515SOL    HW274987   6.511   7.407   7.318  1.3268 -2.2228  2.3285
24516SOL     OW74988   6.907   4.374   0.544  0.2517 -0.4821  0.2662
24516SOL    HW174989   6.819   4.410   0.530  0.1182 -1.5285 -2.0246
24516SOL    HW274990   6.904   4.340   0.634 -1.2845  0.5149  0.6473
24517SOL     OW74991   7.363   0.357   9.898 -0.0625  0.3465 -0.3026
24517SOL    HW174992   7.287   0.415   9.908  0.2405  0.6657  0.1649
24517SOL    HW274993   7.327   0.269   9.913 -0.6355  0.3376 -1.5567
24518SOL     OW74994   2.360   3.486   4.638  0.3347  0.5423  0.6480
24518SOL    HW174995   2.311   3.560   4.604  0.4689  1.2357  1.9094
24518SOL    HW274996   2.339   3.484   4.731 -1.7992 -2.6202  0.2774
24519SOL     OW74997   3.420   5.526   7.736  0.3043  0.0200  0.4259
24519SOL    HW174998   3.329   5.507   7.713  0.0307 -1.2160  2.2839
24519SOL    HW274999   3.420   5.530   7.832  2.1504  0.3236  0.4473
24520SOL     OW75000   3.817   5.701   5.022  0.2547  0.2454 -0.0167
24520SOL    HW175001   3.806   5.643   5.097  1.9770 -0.2411 -0.1133
24520SOL    HW275002   3.850   5.783   5.059 -0.6851  0.6668 -0.0637
24521SOL     OW75003   0.035   1.441   0.646 -0.3411 -0.2792  0.0923
24521SOL    HW175004  -0.017   1.463   0.569 -0.2812  1.3045  0.4705
24521SOL    HW275005   0.048   1.525   0.691  1.4215 -0.8313  0.6963
24522SOL     OW75006   4.492   3.152   1.625  0.2419 -0.0040 -0.5064
24522SOL    HW175007   4.517   3.234   1.668 -0.0139  0.0125 -0.3879
24522SOL    HW275008   4.542   3.152   1.543  1.1553 -0.2851  0.0256
24523SOL     OW75009   6.966   5.792   7.397 -0.0734 -0.4911  0.1052
24523SOL    HW175010   6.908   5.744   7.455 -3.7722  3.2907  0.0014
24523SOL    HW275011   6.926   5.782   7.310  0.4556  0.6899 -0.2994
24524SOL     OW75012   2.617   1.022   4.490  0.2165  0.0990 -0.1820
24524SOL    HW175013   2.547   0.986   4.436 -0.5397 -0.0342  0.8611
24524SOL    HW275014   2.662   0.945   4.525  1.2492  0.1771 -1.2682
24525SOL     OW75015   6.066   2.726   6.366 -0.1068 -0.3065 -0.3191
24525SOL    HW175016   6.050   2.767   6.281 -0.5847  0.8470  0.3034
24525SOL    HW275017   6.021   2.783   6.428  2.7771  0.6106  1.0726
24526SOL     OW75018   5.909   4.710   1.967 -0.9095 -0.3804  0.0032
24526SOL    HW175019   5.851   4.783   1.945 -0.7919 -0.4544 -0.5606
24526SOL    HW275020   5.863   4.632   1.933  0.0452 -0.3232 -1.4959
24527SOL     OW75021   4.053   5.842   3.834  0.3005  0.6211 -0.0551
24527SOL    HW175022   4.036   5.778   3.764  1.3410  0.4348 -0.1561
24527SOL    HW275023   4.080   5.789   3.909 -2.7367  0.6547  1.1790
24528SOL     OW75024   0.017   5.115   3.456 -0.1436 -0.6375  0.7634
24528SOL    HW175025  -0.039   5.189   3.480  0.1414 -0.4099  0.7387
24528SOL    HW275026   0.001   5.102   3.362 -0.8253 -1.1528  0.9504
24529SOL     OW75027   5.282   5.785   5.892  0.4149 -0.1026 -0.2288
24529SOL    HW175028   5.330   5.711   5.930 -0.1913  0.3967  1.6358
24529SOL    HW275029   5.217   5.807   5.959 -2.9124 -1.1453 -2.8531
24530SOL     OW75030   0.851   5.875   9.153 -0.3289  0.3353  0.7751
24530SOL    HW175031   0.823   5.877   9.062  0.3740  0.2523  0.5457
24530SOL    HW275032   0.944   5.899   9.149 -0.2233  0.0514  1.4350
24531SOL     OW75033   4.428   6.253   8.216 -0.4434  0.3290 -0.3007
24531SOL    HW175034   4.497   6.318   8.229  0.3469 -0.4785 -0.3476
24531SOL    HW275035   4.436   6.228   8.124  1.5259 -2.2704  0.4537
24532SOL     OW75036   6.225   3.018   8.130  1.1379 -0.3191 -0.0424
24532SOL    HW175037   6.217   2.932   8.088  3.2720  0.7790 -3.1373
24532SOL    HW275038   6.307   3.012   8.180  0.1339 -0.6911  1.6360
24533SOL     OW75039   1.371   7.265   7.593  0.2637  0.0055 -0.4421
24533SOL    HW175040   1.359   7.342   7.649 -1.6533 -1.4213  1.2564
24533SOL    HW275041   1.298   7.207   7.616  0.6344 -1.5849 -2.9300
24534SOL     OW75042   5.381   5.007  10.496  0.2017 -0.0104  0.1467
24534SOL    HW175043   5.361   4.982  10.586  1.7571  0.9578  0.8241
24534SOL    HW275044   5.400   4.925  10.451  0.3539 -0.4365  0.9742
24535SOL     OW75045   5.602   0.911  11.003  0.3395 -0.4328  0.2870
24535SOL    HW175046   5.651   0.880  10.927  1.1788 -0.9671  1.0313
24535SOL    HW275047   5.657   0.979  11.041  0.1259 -0.4738  0.6674
24536SOL     OW75048   1.545   4.545   9.514  0.1332 -0.0055 -0.3169
24536SOL    HW175049   1.597   4.616   9.551 -0.7616 -0.1171  1.2512
24536SOL    HW275050   1.475   4.588   9.465  0.3846  0.1625 -0.5320
24537SOL     OW75051   7.176   6.488   0.704  0.7972 -0.0029  0.4398
24537SOL    HW175052   7.100   6.527   0.662 -0.1257 -0.2210  1.8194
24537SOL    HW275053   7.238   6.472   0.633 -0.7796 -0.6214 -0.8559
24538SOL     OW75054   2.965   0.388  11.743  0.3270  0.7522 -0.1882
24538SOL    HW175055   2.992   0.446  11.814  1.6620  0.2378 -0.2594
24538SOL    HW275056   3.013   0.419  11.666 -0.1327  0.5042 -0.5866
24539SOL     OW75057   6.210   7.446   5.070 -0.0061  0.3291 -0.5562
24539SOL    HW175058   6.294   7.471   5.109 -0.9805  1.4758  0.9556
24539SOL    HW275059   6.145   7.497   5.118 -1.3197  2.5463 -4.2454
24540SOL     OW75060   0.888   1.378   8.889  0.0084  0.4893  0.3605
24540SOL    HW175061   0.977   1.350   8.907  0.2404 -0.0189 -1.3233
24540SOL    HW275062   0.834   1.333   8.954  0.8513 -0.2571  0.5534
24541SOL     OW75063   7.399   7.397   9.553 -0.0726 -0.3468  0.2869
24541SOL    HW175064   7.337   7.397   9.626  1.4497 -0.6716  1.6345
24541SOL    HW275065   7.438   7.309   9.555  0.5491 -0.1003 -0.4399
24542SOL     OW75066   5.755   1.327   4.746 -0.3909 -0.4348 -0.0925
24542SOL    HW175067   5.705   1.246   4.755 -1.0368  0.1379  2.2164
24542SOL    HW275068   5.846   1.299   4.738 -0.5011 -1.4387  1.5778
24543SOL     OW75069   7.059   2.080  11.269 -0.2694 -0.1214 -0.3866
24543SOL    HW175070   7.114   2.060  11.194  0.5595  0.8532 -0.0651
24543SOL    HW275071   7.094   2.027  11.341 -1.3411 -1.3916 -0.7729
24544SOL     OW75072   1.487   5.939  11.450 -0.8293 -0.4258  0.2507
24544SOL    HW175073   1.529   5.856  11.426 -0.4871  0.2140 -1.4390
24544SOL    HW275074   1.506   5.998  11.377  1.3352  2.0723  2.6436
24545SOL     OW75075   0.381   1.754   9.920  0.3171 -0.0326 -0.0570
24545SOL    HW175076   0.434   1.827   9.888  1.1365  0.1883  1.6606
24545SOL    HW275077   0.372   1.770  10.014 -4.0386  0.6897 -0.3969
24546SOL     OW75078   1.548   3.908   9.839  1.1498  0.6748 -0.2578
24546SOL    HW175079   1.466   3.872   9.805  1.1197  0.8533 -0.3729
24546SOL    HW275080   1.589   3.950   9.764  2.1187 -0.8038 -0.5977
24547SOL     OW75081   2.820   7.671   5.330 -0.5192  0.1162  0.1097
24547SOL    HW175082   2.755   7.603   5.311 -0.4348  0.1354 -0.2516
24547SOL    HW275083   2.781   7.752   5.297  0.4023 -0.1265 -1.7187
24548SOL     OW75084   2.982   1.641   1.405  0.4929 -0.2728 -0.0400
24548SOL    HW175085   3.027   1.705   1.460  0.4171 -0.6776  0.5063
24548SOL    HW275086   2.962   1.569   1.465 -2.0419  0.4396  0.0766
24549SOL     OW75087   4.529   3.717   3.192  0.4257  1.0920  0.1972
24549SOL    HW175088   4.536   3.805   3.155 -0.5263  1.0029 -0.2062
24549SOL    HW275089   4.580   3.721   3.273 -0.5619  2.3478  0.7871
24550SOL     OW75090   0.105   4.093   0.049 -0.1822 -0.7962  0.1497
24550SOL    HW175091   0.105   4.059   0.138  1.8820  0.1080  0.5412
24550SOL    HW275092   0.073   4.020  -0.004 -1.3612 -1.3750  1.5984
24551SOL     OW75093   7.178   0.771   2.497  0.0690  0.2922  0.4056
24551SOL    HW175094   7.091   0.747   2.530 -0.1359  1.4290  0.7668
24551SOL    HW275095   7.167   0.861   2.465  0.2212 -0.7733 -2.9999
24552SOL     OW75096   7.435   4.311  10.015 -0.0594  0.3478  0.4968
24552SOL    HW175097   7.350   4.313   9.971 -0.3381  1.4928  1.0529
24552SOL    HW275098   7.423   4.249  10.087 -0.1963 -0.0673  0.1158
24553SOL     OW75099   5.124   6.033   4.126  0.1079 -0.0802  0.0092
24553SOL    HW175100   5.090   6.107   4.176 -0.7031  1.8560 -3.1273
24553SOL    HW275101   5.046   5.985   4.097  0.5112 -0.6617 -0.1415
24554SOL     OW75102   7.018   0.762   3.719  0.0954  0.4002  0.6501
24554SOL    HW175103   7.113   0.772   3.729  0.2438 -0.9595  0.8014
24554SOL    HW275104   6.991   0.715   3.798 -0.3468 -1.1768 -0.3937
24555SOL     OW75105   0.716   2.985   3.294  0.2610 -0.6763 -0.0546
24555SOL    HW175106   0.792   3.035   3.323 -0.5627  0.4202  0.2855
24555SOL    HW275107   0.692   3.025   3.211 -0.8202 -0.0094  0.5531
24556SOL     OW75108   1.793   5.367  11.499  0.0102 -0.0795 -0.8413
24556SOL    HW175109   1.802   5.431  11.429 -2.1505  1.4569  0.1598
24556SOL    HW275110   1.817   5.414  11.579  0.5487 -1.2033 -0.3143
24557SOL     OW75111   7.544   3.947   1.929  0.5196  0.3948 -0.2139
24557SOL    HW175112   7.611   3.972   1.993  1.4267  0.4706 -1.1697
24557SOL    HW275113   7.565   3.856   1.907 -0.6174 -0.0902  0.5867
24558SOL     OW75114   7.144   7.149   5.006 -0.5004  0.4352 -0.4002
24558SOL    HW175115   7.160   7.104   5.089 -1.5903  1.5093  0.4188
24558SOL    HW275116   7.232   7.170   4.973 -0.0449 -0.2866  0.3130
24559SOL     OW75117   4.460   6.569  10.148 -0.0526  0.0648  0.6208
24559SOL    HW175118   4.366   6.567  10.162 -0.3515  2.6932 -0.4513
24559SOL    HW275119   4.496   6.604  10.230 -0.5255  3.1138 -0.3419
24560SOL     OW75120   2.416   6.282   6.403  0.1339 -0.7292  0.3723
24560SOL    HW175121   2.457   6.363   6.371  0.8879 -1.4920 -0.6266
24560SOL    HW275122   2.361   6.252   6.331  0.0861 -1.2707  0.6311
24561SOL     OW75123   6.211   1.120   1.809 -0.7107  0.1641 -0.3108
24561SOL    HW175124   6.237   1.066   1.734  0.0098  1.2148 -0.8384
24561SOL    HW275125   6.223   1.063   1.885 -0.8885 -0.7274 -0.9368
24562SOL     OW75126   2.836   0.693  11.608 -0.2347  0.2728  0.8312
24562SOL    HW175127   2.813   0.786  11.602  1.5437  0.7091 -0.0121
24562SOL    HW275128   2.785   0.651  11.539  1.5166  1.2627 -1.2302
24563SOL     OW75129   5.201   0.494   0.114 -0.2401 -0.0574 -0.0540
24563SOL    HW175130   5.267   0.436   0.075  0.9306 -0.2019  2.0066
24563SOL    HW275131   5.242   0.580   0.116 -0.9488  0.3074 -0.6586
24564SOL     OW75132   5.384   1.290  11.138  0.6987 -0.2143  0.2456
24564SOL    HW175133   5.309   1.319  11.086  0.5435 -0.3900  0.3721
24564SOL    HW275134   5.417   1.213  11.092  1.0141  0.0653 -0.0008
24565SOL     OW75135   2.575   7.127   5.073  0.3091 -0.0780  0.3825
24565SOL    HW175136   2.581   7.124   4.977  0.5193  0.8898  0.3493
24565SOL    HW275137   2.485   7.101   5.092  0.6887 -1.7452  0.0251
24566SOL     OW75138   2.455   4.429   4.910 -0.1655  0.5600  0.1654
24566SOL    HW175139   2.526   4.408   4.848 -0.7388  0.4452 -0.4698
24566SOL    HW275140   2.379   4.383   4.874 -0.5686  0.7125  0.8237
24567SOL     OW75141   4.675   7.728  12.350  0.3181  0.3304 -0.0619
24567SOL    HW175142   4.597   7.776  12.324  0.0567 -0.4805 -0.8120
24567SOL    HW275143   4.748   7.786  12.326  0.0486  0.0025 -1.8025
24568SOL     OW75144   4.134   1.348   9.861  0.0795 -0.1696 -0.0458
24568SOL    HW175145   4.096   1.275   9.911 -0.2902  0.0700  0.0285
24568SOL    HW275146   4.069   1.418   9.868  0.5682  0.2727  0.1341
24569SOL     OW75147   3.936   3.150   1.676 -0.0528 -0.6217  0.0779
24569SOL    HW175148   3.944   3.062   1.639  0.2557  0.0897 -1.6623
24569SOL    HW275149   3.941   3.208   1.600 -0.2813  0.9036  1.1844
24570SOL     OW75150   2.725   2.974  11.741 -0.6879  0.0724  0.1479
24570SOL    HW175151   2.813   2.963  11.778 -0.6348 -1.5219 -0.4099
24570SOL    HW275152   2.687   2.886  11.742 -1.1504  0.1749 -2.4293
24571SOL     OW75153   7.083   4.235  10.355  0.0525 -0.6091 -0.9724
24571SOL    HW175154   7.119   4.149  10.337 -0.3251 -0.4046 -2.9891
24571SOL    HW275155   7.047   4.264  10.271 -0.5186  1.1854 -0.1674
24572SOL     OW75156   1.968   0.039   5.328 -0.2586  0.5053 -0.5228
24572SOL    HW175157   1.893  -0.019   5.315  0.7398 -1.4223  1.5675
24572SOL    HW275158   2.038   0.000   5.276 -0.4855  1.9484 -1.9763
24573SOL     OW75159   7.570   0.050   0.722  0.0503  0.2980  0.4411
24573SOL    HW175160   7.503  -0.016   0.706 -1.6170  2.4650 -2.3174
24573SOL    HW275161   7.633   0.038   0.651  0.9375  0.2665  1.2180
24574SOL     OW75162   0.747   6.695   7.845 -0.0729 -0.1663 -0.2320
24574SOL    HW175163   0.734   6.644   7.924  1.5025 -2.4138 -1.3189
24574SOL    HW275164   0.810   6.763   7.870 -0.5811 -0.0372  0.7256
24575SOL     OW75165   3.331   5.091   8.974  0.4499  0.7737  0.4155
24575SOL    HW175166   3.423   5.084   8.949  0.4046  0.1246  0.4113
24575SOL    HW275167   3.287   5.022   8.924 -0.1933  1.6631 -0.2760
24576SOL     OW75168   4.538   1.676   9.953  0.1585  0.5991  0.2847
24576SOL    HW175169   4.467   1.695   9.892 -1.3290 -1.3885  1.2908
24576SOL    HW275170   4.497   1.677  10.039  0.9557 -2.1135  0.7804
24577SOL     OW75171   1.718   5.879   0.050  0.6011 -0.1577 -0.0881
24577SOL    HW175172   1.653   5.841   0.109  0.5233 -0.1068 -0.1413
24577SOL    HW275173   1.783   5.918   0.109  0.8689 -0.6858 -0.0313
24578SOL     OW75174   7.790   6.002  11.318 -0.0288  0.6525  0.3490
24578SOL    HW175175   7.856   5.989  11.387  0.0231  0.5207  0.2751
24578SOL    HW275176   7.815   5.940  11.250 -1.3959 -0.8813  1.1713
24579SOL     OW75177   7.201   2.423  11.510  0.0290  0.4101  0.0247
24579SOL    HW175178   7.209   2.516  11.485  1.4568  0.5755  0.9622
24579SOL    HW275179   7.255   2.377  11.446  3.6658  0.8309  2.4804
24580SOL     OW75180   2.233   5.249   6.520 -0.1868 -0.4161 -0.0682
24580SOL    HW175181   2.185   5.223   6.598  0.3278 -1.2681 -0.0181
24580SOL    HW275182   2.202   5.189   6.452 -1.2956  0.9079 -0.7552
24581SOL     OW75183   5.385   3.343  12.273 -0.2570 -0.2390  0.0616
24581SOL    HW175184   5.460   3.319  12.218 -0.0151  0.4714  0.0613
24581SOL    HW275185   5.344   3.416  12.226 -0.1038  0.3173  0.7725
24582SOL     OW75186   0.961   5.206  10.272  0.2050  0.0373 -0.1505
24582SOL    HW175187   1.025   5.186  10.203  0.4800 -1.3025  0.4637
24582SOL    HW275188   0.932   5.121  10.304 -0.7905  0.6309  0.6100
24583SOL     OW75189   1.691   3.102   0.555  0.0400  0.1704 -0.1097
24583SOL    HW175190   1.683   3.119   0.462 -1.9195  0.0074 -0.0159
24583SOL    HW275191   1.668   3.009   0.564 -0.5039  0.3632  0.5928
24584SOL     OW75192   1.924   6.833   2.607 -0.3016 -0.9930 -0.1306
24584SOL    HW175193   1.849   6.867   2.557  0.5432  1.3397  0.0849
24584SOL    HW275194   1.987   6.905   2.608  0.4642 -1.5864  2.7974
24585SOL     OW75195   1.914   5.839   1.952  0.1021 -0.7761 -0.4254
24585SOL    HW175196   1.840   5.834   1.891  0.4636 -1.0106 -0.8496
24585SOL    HW275197   1.877   5.879   2.031 -0.8851 -2.4815  0.0244
24586SOL     OW75198   5.295   5.700   7.103  0.1743  0.2023 -0.7730
24586SOL    HW175199   5.337   5.616   7.087  1.1242 -0.2108  2.8736
24586SOL    HW275200   5.202   5.680   7.112  0.1197 -0.0796 -1.8319
24587SOL     OW75201   1.935   3.291   3.303  0.2378 -0.1024  0.5081
24587SOL    HW175202   1.958   3.281   3.211  0.9105  0.3628  0.6199
24587SOL    HW275203   2.014   3.266   3.350  0.2364  0.6572  0.9292
24588SOL     OW75204   7.334   7.008   7.439  0.4226  0.2852 -0.5938
24588SOL    HW175205   7.351   6.938   7.503 -0.0284  0.2186 -0.5405
24588SOL    HW275206   7.275   6.968   7.376 -0.2266  0.7638 -0.2978
24589SOL     OW75207   0.098   7.662   2.275  0.1711  0.0581 -0.2759
24589SOL    HW175208   0.130   7.573   2.262  1.9856  0.4809  0.9451
24589SOL    HW275209   0.146   7.714   2.211 -0.6329  0.2334 -0.7509
24590SOL     OW75210   1.848   5.225   1.146  0.0312 -0.4308  0.4810
24590SOL    HW175211   1.767   5.191   1.185 -0.7697  0.3013 -0.4772
24590SOL    HW275212   1.842   5.319   1.157  0.1865 -0.2785 -0.6419
24591SOL     OW75213   6.799   5.234   7.816  0.8428  0.2055  0.5055
24591SOL    HW175214   6.706   5.238   7.796  0.9006  1.6760  0.3734
24591SOL    HW275215   6.839   5.194   7.738  0.4511  0.8259 -0.0287
24592SOL     OW75216   0.486   1.906   6.185 -0.3444  0.3473  0.2481
24592SOL    HW175217   0.448   1.976   6.133 -0.7277  0.4566  0.6679
24592SOL    HW275218   0.430   1.901   6.263  1.0326  1.1220  1.3180
24593SOL     OW75219   0.280   5.900  12.066 -0.5388  0.7539  0.1553
24593SOL    HW175220   0.367   5.939  12.080 -0.8839  1.2946  0.8088
24593SOL    HW275221   0.222   5.949  12.124 -1.3286  0.5436 -0.4524
24594SOL     OW75222   0.379   2.855   3.475 -0.4925  0.3789 -0.0198
24594SOL    HW175223   0.465   2.819   3.496 -1.3024 -0.2850  2.4993
24594SOL    HW275224   0.388   2.948   3.496 -0.1871  0.4635 -0.5030
24595SOL     OW75225   4.952   2.718   4.313 -0.8093  0.0414 -0.5273
24595SOL    HW175226   5.012   2.652   4.277  0.0589 -0.2755  1.3423
24595SOL    HW275227   4.868   2.672   4.320 -0.2296 -0.9004  0.6988
24596SOL     OW75228   2.441   0.981   7.215  0.2580  0.4580  0.1627
24596SOL    HW175229   2.500   0.973   7.290 -0.5759  0.1937  0.8125
24596SOL    HW275230   2.362   1.021   7.251 -0.6367 -0.8048 -0.2911
24597SOL     OW75231   1.223   2.020   5.866 -0.0983 -0.3701 -0.1911
24597SOL    HW175232   1.138   2.042   5.828 -0.7134 -1.3750  0.5335
24597SOL    HW275233   1.208   2.025   5.961  0.6578 -0.5330 -0.0580
24598SOL     OW75234   1.126   6.891   4.003 -0.2244 -0.3481 -0.3393
24598SOL    HW175235   1.039   6.930   4.004 -0.6959 -1.3576 -0.4226
24598SOL    HW275236   1.111   6.798   3.983  0.8323 -0.6335  0.0839
24599SOL     OW75237   0.650   7.256   1.401 -0.2417  0.3417 -0.2152
24599SOL    HW175238   0.657   7.175   1.351 -0.3446 -0.4875  1.0562
24599SOL    HW275239   0.732   7.261   1.450 -0.5470  0.6144  0.2766
24600SOL     OW75240   4.106   2.673   6.414 -0.0546 -0.6118 -0.1044
24600SOL    HW175241   4.086   2.601   6.474  1.7738 -1.5405 -0.5568
24600SOL    HW275242   4.058   2.747   6.450 -1.0503 -1.7525  1.0470
24601SOL     OW75243   7.156   5.316   4.688  0.2477  0.2469  0.1053
24601SOL    HW175244   7.144   5.376   4.614  3.6535  1.4802  0.3421
24601SOL    HW275245   7.177   5.232   4.647  0.5025  0.5140 -0.3194
24602SOL     OW75246   7.573   7.902   2.118 -0.3494  0.3751  0.3473
24602SOL    HW175247   7.556   7.897   2.024  0.2995 -1.3000  0.2875
24602SOL    HW275248   7.605   7.991   2.132  1.2970  0.1173 -1.3477
24603SOL     OW75249   1.837   6.154  12.143  0.3270 -0.4585 -0.6539
24603SOL    HW175250   1.851   6.246  12.122 -1.6926 -0.6777 -3.5047
24603SOL    HW275251   1.871   6.106  12.068  1.3829 -2.0855  0.8038
24604SOL     OW75252   2.683   6.099   2.879 -0.3480  0.7203  0.5431
24604SOL    HW175253   2.777   6.103   2.862 -0.4956  0.9992 -0.2250
24604SOL    HW275254   2.642   6.125   2.796 -1.1034  0.4235  0.8138
24605SOL     OW75255   6.366   5.012   2.402 -0.4621 -0.2238  0.1127
24605SOL    HW175256   6.316   5.033   2.323 -1.9010  0.4112  1.1683
24605SOL    HW275257   6.312   4.950   2.450  0.1721 -0.2215  0.8559
24606SOL     OW75258   3.347   4.848   6.736 -0.0058  0.1977 -0.0747
24606SOL    HW175259   3.253   4.862   6.723 -0.0755 -0.8028 -0.7807
24606SOL    HW275260   3.357   4.838   6.831 -0.9870 -1.9225 -0.1285
24607SOL     OW75261   1.422   0.830   6.699 -0.1254  0.1661 -0.5081
24607SOL    HW175262   1.512   0.860   6.713 -0.0377 -0.3366  0.0845
24607SOL    HW275263   1.415   0.751   6.754 -0.1171 -1.3236 -2.5406
24608SOL     OW75264   3.778   7.562  10.868  0.2674 -0.4905  0.2726
24608SOL    HW175265   3.837   7.592  10.799 -0.3192 -0.8616 -0.4013
24608SOL    HW275266   3.691   7.563  10.828 -0.3626  1.0023  1.5452
24609SOL     OW75267   1.114   7.558   2.355 -0.0952 -0.3825 -0.2079
24609SOL    HW175268   1.202   7.594   2.369 -0.5329  0.8061 -0.3292
24609SOL    HW275269   1.111   7.542   2.261 -0.8881  2.1842 -0.7039
24610SOL     OW75270   1.943   2.794   0.198 -0.4343  0.4076 -0.3448
24610SOL    HW175271   1.942   2.754   0.111 -1.0242 -1.5802  0.5042
24610SOL    HW275272   1.880   2.866   0.193  0.2996  0.9874 -1.8088
24611SOL     OW75273   2.504   6.514   4.878  0.2230  0.5946 -0.5261
24611SOL    HW175274   2.479   6.422   4.871  1.4236  0.1284  0.7747
24611SOL    HW275275   2.424   6.563   4.860 -0.1241 -0.6272 -2.6749
24612SOL     OW75276   1.627   4.100   8.889 -0.2767 -0.0516 -0.6464
24612SOL    HW175277   1.609   4.018   8.935  1.0546 -0.0231 -0.0503
24612SOL    HW275278   1.594   4.084   8.800 -1.2207 -0.7529 -0.1953
24613SOL     OW75279   5.646   5.262   2.700 -0.0912 -0.4733 -0.0261
24613SOL    HW175280   5.554   5.248   2.720 -0.0318 -1.4739 -0.4097
24613SOL    HW275281   5.693   5.235   2.779 -0.0269 -1.6930 -0.4698
24614SOL     OW75282   7.733   6.792   2.458  0.4054 -0.1598  0.4287
24614SOL    HW175283   7.824   6.770   2.438  0.5185 -0.3024  1.0664
24614SOL    HW275284   7.729   6.887   2.446  0.6996 -0.1203  0.6167
24615SOL     OW75285   1.409   2.773   8.930 -0.0804  0.5118  0.0518
24615SOL    HW175286   1.495   2.814   8.934  1.1578 -1.7179 -1.0781
24615SOL    HW275287   1.392   2.742   9.019  0.9722 -0.2183  0.0164
24616SOL     OW75288   5.829   1.593   8.893 -0.0916 -0.2996  0.4081
24616SOL    HW175289   5.741   1.617   8.921 -0.0449  2.2354 -1.2865
24616SOL    HW275290   5.817   1.543   8.812  0.0278 -1.0806  0.8558
24617SOL     OW75291   7.308   7.143   8.243  0.0755 -0.2094  0.0975
24617SOL    HW175292   7.391   7.183   8.221 -0.1071  0.3179  0.3523
24617SOL    HW275293   7.281   7.185   8.325 -1.7247  1.6006 -1.3167
24618SOL     OW75294   7.020   1.111   7.937  0.2448  0.0726 -0.0319
24618SOL    HW175295   6.973   1.089   7.856 -0.0715  1.7229 -0.3268
24618SOL    HW275296   7.112   1.115   7.911  0.0206  2.0442 -0.7045
24619SOL     OW75297   3.176   4.412  12.454  0.6246  0.0403  0.4236
24619SOL    HW175298   3.132   4.493  12.480 -0.4493  0.4388 -2.2641
24619SOL    HW275299   3.250   4.404  12.514 -0.5918  1.7362  2.2650
24620SOL     OW75300   0.152   0.218   6.881 -0.9133 -0.2881 -0.2403
24620SOL    HW175301   0.123   0.305   6.909 -3.0849 -0.7992 -0.6942
24620SOL    HW275302   0.209   0.188   6.952 -1.2363  0.9315  0.5825
24621SOL     OW75303   2.923   2.874   7.662  0.1271 -0.4685 -0.3654
24621SOL    HW175304   2.971   2.933   7.604 -1.1558  1.3388  0.3005
24621SOL    HW275305   2.949   2.901   7.750 -0.8764 -0.5368 -0.0357
24622SOL     OW75306   3.500   7.021   9.587 -1.3207 -0.0654 -0.3998
24622SOL    HW175307   3.452   7.098   9.557 -0.8698 -0.0604 -1.1276
24622SOL    HW275308   3.524   6.975   9.507 -0.7668 -0.4649 -0.0105
24623SOL     OW75309   5.579   1.850   7.187  0.3212 -0.4354 -0.2726
24623SOL    HW175310   5.600   1.798   7.109  0.2787 -0.9834  0.0766
24623SOL    HW275311   5.531   1.789   7.244  0.0081  0.0764  0.0130
24624SOL     OW75312   3.542   1.440   5.372 -0.5459  0.7193 -0.0027
24624SOL    HW175313   3.614   1.383   5.345  0.5655  1.7460  0.7073
24624SOL    HW275314   3.514   1.404   5.457 -0.5473  0.6189 -0.0458
24625SOL     OW75315   4.401   6.896   7.436 -0.6116 -0.0507 -0.1807
24625SOL    HW175316   4.471   6.833   7.418 -0.7289 -0.3967  0.5191
24625SOL    HW275317   4.382   6.883   7.529 -0.3806  1.2771  0.0693
24626SOL     OW75318   1.746   1.992   6.669  0.1421  0.3829 -0.2194
24626SOL    HW175319   1.706   1.927   6.611  2.9237 -0.7483 -1.0512
24626SOL    HW275320   1.716   1.968   6.756  0.1656 -1.3219 -0.6416
24627SOL     OW75321   4.780   6.631   5.284  0.6017 -0.3280 -0.2705
24627SOL    HW175322   4.706   6.586   5.242  1.7464  0.4124 -3.2908
24627SOL    HW275323   4.746   6.718   5.303 -0.0435 -0.7887  0.8499
24628SOL     OW75324   1.816   1.155  10.605  0.2735 -0.0418  0.1325
24628SOL    HW175325   1.803   1.138  10.699 -0.3391  1.2120  0.2943
24628SOL    HW275326   1.759   1.092  10.561  0.7691 -0.8217  0.5837
24629SOL     OW75327   1.082   2.503   6.438  0.2121  0.4558  0.2917
24629SOL    HW175328   1.099   2.535   6.527  0.3725  1.0148  0.0681
24629SOL    HW275329   1.142   2.430   6.427  1.2503  1.3093  0.1350
24630SOL     OW75330   5.607   4.546  11.474 -0.0057 -0.4024  0.0117
24630SOL    HW175331   5.560   4.492  11.537  1.4807 -0.2375  1.3482
24630SOL    HW275332   5.539   4.594  11.426 -1.2263 -1.5718  0.5372
24631SOL     OW75333   3.652   6.678  10.727 -0.0375  0.0239 -0.5911
24631SOL    HW175334   3.557   6.692  10.725 -0.1898  0.0038  2.0441
24631SOL    HW275335   3.662   6.583  10.728 -0.1915 -0.0215  1.3922
24632SOL     OW75336   7.891   0.641   4.968  0.0829 -0.2752  0.6556
24632SOL    HW175337   7.797   0.658   4.979  0.5887  1.7448  2.6479
24632SOL    HW275338   7.927   0.645   5.057  2.5755  2.9085 -0.3107
24633SOL     OW75339   5.954   4.639   3.577 -0.5901 -0.3892 -0.4339
24633SOL    HW175340   5.952   4.732   3.599  0.2692 -0.4089 -0.2275
24633SOL    HW275341   6.000   4.598   3.650 -2.4257 -1.2467  0.3105
24634SOL     OW75342   0.375   6.920   1.707  0.6781  0.0400  0.0229
24634SOL    HW175343   0.381   6.969   1.625 -0.3011  0.1006 -0.0238
24634SOL    HW275344   0.336   6.836   1.682 -1.4588  0.7790  0.6734
24635SOL     OW75345   6.382   6.729   0.471  0.1481  0.9719  0.2882
24635SOL    HW175346   6.425   6.675   0.537 -0.6088  0.0781  0.0598
24635SOL    HW275347   6.454   6.773   0.425  1.0013 -1.9530 -1.3802
24636SOL     OW75348   1.255   4.547   4.391  0.7349  0.3897 -0.1416
24636SOL    HW175349   1.340   4.556   4.434  1.9179 -0.8319 -2.0538
24636SOL    HW275350   1.242   4.630   4.344  1.0328  0.4389 -0.1341
24637SOL     OW75351   7.082   2.470  10.930 -0.0537  0.3016 -0.1487
24637SOL    HW175352   7.002   2.501  10.887 -1.4708 -3.7442 -0.7840
24637SOL    HW275353   7.062   2.474  11.023 -0.6453  0.1951 -0.2667
24638SOL     OW75354   3.934   5.248  11.404  0.1644 -0.6962  0.1612
24638SOL    HW175355   3.889   5.325  11.440  1.2354 -0.3401  0.7996
24638SOL    HW275356   3.880   5.221  11.330  0.2928  1.2938 -0.7184
24639SOL     OW75357   3.915   1.534   6.041 -0.5161  0.0949 -0.2828
24639SOL    HW175358   3.912   1.506   6.132 -0.1662 -0.6695 -0.4933
24639SOL    HW275359   3.913   1.452   5.991 -0.4131  0.4911 -0.9505
24640SOL     OW75360   6.103   1.902  12.389  0.0743 -0.2497 -0.1476
24640SOL    HW175361   6.050   1.825  12.410 -0.3498 -0.4459 -1.8096
24640SOL    HW275362   6.072   1.970  12.450 -1.7988 -0.4912 -0.7490
24641SOL     OW75363   0.952   5.458   0.812 -0.3257  0.1730 -0.4319
24641SOL    HW175364   0.976   5.402   0.886 -0.7180 -1.8539 -1.7628
24641SOL    HW275365   0.869   5.498   0.838 -0.8013 -1.0385 -0.0186
24642SOL     OW75366   0.446   0.283   9.719  1.0823  0.4118  0.1241
24642SOL    HW175367   0.439   0.226   9.796  2.3143 -0.7647 -0.5972
24642SOL    HW275368   0.356   0.312   9.703  0.3140 -1.7763  0.1939
24643SOL     OW75369   0.868   4.525  10.346  0.3675  0.5053 -0.1767
24643SOL    HW175370   0.952   4.569  10.351  1.3861 -1.4373  1.9568
24643SOL    HW275371   0.889   4.432  10.351 -1.8847 -0.0725 -0.1340
24644SOL     OW75372   6.060   1.854  10.378 -0.1825 -0.1003 -0.7427
24644SOL    HW175373   5.994   1.922  10.370  0.8230  1.0324  0.2891
24644SOL    HW275374   6.100   1.869  10.463 -0.6097 -2.6239 -0.0056
24645SOL     OW75375   4.863   0.584   8.383 -1.1379  0.1092  0.5930
24645SOL    HW175376   4.934   0.646   8.365 -1.0013 -0.7457 -2.3091
24645SOL    HW275377   4.799   0.635   8.432  0.5226  1.5057  1.4438
24646SOL     OW75378   3.803   3.834   2.893  0.0865 -0.1314 -0.3098
24646SOL    HW175379   3.709   3.849   2.900 -0.2702 -2.3867  0.7386
24646SOL    HW275380   3.836   3.853   2.981  0.8225  1.5734 -0.9094
24647SOL     OW75381   6.004   4.575   8.142  0.2471 -0.4750 -0.4228
24647SOL    HW175382   5.993   4.604   8.052  1.5337 -0.4191 -0.5793
24647SOL    HW275383   6.090   4.532   8.143  1.0755  1.0865  1.1656
24648SOL     OW75384   3.432   5.963   4.759  0.1635  0.1708 -0.2325
24648SOL    HW175385   3.412   5.870   4.762  0.6722  0.0449 -0.6115
24648SOL    HW275386   3.348   6.007   4.774 -0.2624 -0.3396 -1.1102
24649SOL     OW75387   1.160   0.606   7.285  0.4200 -0.4077  0.0220
24649SOL    HW175388   1.079   0.655   7.269  0.1110 -1.2893 -1.2691
24649SOL    HW275389   1.147   0.567   7.372 -0.3863 -0.2408 -0.0142
24650SOL     OW75390   2.840   7.237  10.242  0.0962 -0.2941 -0.0124
24650SOL    HW175391   2.823   7.256  10.149 -0.6635 -0.6354  0.0456
24650SOL    HW275392   2.754   7.214  10.277 -0.4899  3.7986  1.7854
24651SOL     OW75393   3.532   6.603   5.268  0.5077 -0.4444  0.1701
24651SOL    HW175394   3.532   6.668   5.197  0.4978 -0.9107 -0.2660
24651SOL    HW275395   3.617   6.560   5.260  1.4503  0.9782  1.8417
24652SOL     OW75396   4.581   4.418   1.777  0.1922 -0.0564 -0.6229
24652SOL    HW175397   4.556   4.471   1.701  1.5092 -0.5333 -1.4455
24652SOL    HW275398   4.660   4.460   1.810  1.0234 -1.2309 -1.0384
24653SOL     OW75399   5.949   4.571   2.942  0.7439  0.0222  0.2978
24653SOL    HW175400   6.039   4.604   2.935  0.2275  1.7456  1.0941
24653SOL    HW275401   5.898   4.632   2.889 -0.0468 -0.4724  0.4901
24654SOL     OW75402   6.315   4.324   1.200  0.6260  0.1306 -0.2115
24654SOL    HW175403   6.392   4.379   1.213 -0.3346  1.3917  0.3129
24654SOL    HW275404   6.243   4.375   1.235 -0.7382 -0.2642 -2.2771
24655SOL     OW75405   5.471   1.244   6.362  0.3537  0.5565  0.2115
24655SOL    HW175406   5.396   1.249   6.302  0.1279  0.1735  0.4630
24655SOL    HW275407   5.548   1.255   6.305  0.2419 -1.6173 -0.4197
24656SOL     OW75408   0.884   6.794  11.928 -0.1785  0.1344  0.0674
24656SOL    HW175409   0.977   6.787  11.905 -0.0445 -1.6608  0.9975
24656SOL    HW275410   0.855   6.874  11.883  2.0437  1.3504  0.6240
24657SOL     OW75411   6.419   5.936  11.757  0.5173 -0.1107 -0.6583
24657SOL    HW175412   6.488   5.996  11.728 -2.0636  4.1797  1.1345
24657SOL    HW275413   6.341   5.962  11.708 -0.4824 -3.1476 -0.8812
24658SOL     OW75414   7.169   4.200   7.986 -0.1417 -0.0290 -0.3573
24658SOL    HW175415   7.132   4.138   8.049 -0.1873  0.2924 -0.0649
24658SOL    HW275416   7.157   4.158   7.901 -1.8138  0.3686 -0.3409
24659SOL     OW75417   3.096   0.119   1.575 -0.2748 -1.0228  0.7042
24659SOL    HW175418   3.156   0.154   1.640 -0.1813 -1.3195  0.7822
24659SOL    HW275419   3.153   0.081   1.508 -0.0712  3.9600 -2.4243
24660SOL     OW75420   4.489   2.532   2.976 -0.1701 -0.2113  0.0356
24660SOL    HW175421   4.472   2.482   3.057 -0.4975  1.3107  0.9394
24660SOL    HW275422   4.584   2.524   2.963 -0.1010 -0.4160  0.6112
24661SOL     OW75423   1.686   2.041   0.623 -0.3013 -0.0409  0.1834
24661SOL    HW175424   1.617   1.997   0.672  1.1901 -0.1221  2.3683
24661SOL    HW275425   1.737   1.971   0.583 -0.4844 -0.0529 -0.0349
24662SOL     OW75426   2.638   1.361   8.230  0.1346  0.3507 -0.3608
24662SOL    HW175427   2.598   1.286   8.185 -0.0893  0.2361  0.0326
24662SOL    HW275428   2.694   1.322   8.297  1.9487  0.4495 -1.7308
24663SOL     OW75429   5.182   0.649   3.282  0.5188  0.5161  0.0334
24663SOL    HW175430   5.148   0.652   3.371 -0.8936  2.6796 -0.4980
24663SOL    HW275431   5.276   0.661   3.291  0.3689  0.9072  1.2278
24664SOL     OW75432   4.540   1.178   6.618  0.6645 -0.0208  0.5686
24664SOL    HW175433   4.501   1.245   6.563 -1.6500 -1.4021  0.4005
24664SOL    HW275434   4.624   1.158   6.577 -0.0277  0.5280 -1.1882
24665SOL     OW75435   6.995   0.138   0.116 -0.8534  0.2388 -0.3464
24665SOL    HW175436   7.001   0.191   0.037 -4.0395  1.9368  0.3747
24665SOL    HW275437   6.961   0.053   0.086  1.5109 -0.5214 -1.1381
24666SOL     OW75438   7.356   6.788   6.865 -0.2446  0.4855 -0.5731
24666SOL    HW175439   7.283   6.770   6.923 -0.2184  1.9704 -0.0295
24666SOL    HW275440   7.356   6.715   6.803 -2.5374  0.7327 -0.9506
24667SOL     OW75441   2.171   2.415   5.398 -0.6265  0.3664  0.5442
24667SOL    HW175442   2.163   2.423   5.303 -0.9205  1.6365  0.6476
24667SOL    HW275443   2.249   2.362   5.412 -0.6143  0.1250 -0.4102
24668SOL     OW75444   6.092   1.829   7.439  0.0640 -0.0154  0.1268
24668SOL    HW175445   6.173   1.781   7.457  0.6054  0.8760  0.1595
24668SOL    HW275446   6.093   1.901   7.502  0.0400  0.9117 -0.8920
24669SOL     OW75447   0.994   3.179   0.082 -0.1303 -0.1072 -0.1892
24669SOL    HW175448   0.987   3.272   0.104 -1.9393 -0.0020 -1.0784
24669SOL    HW275449   0.923   3.163   0.020 -0.1396 -2.1999  0.2853
24670SOL     OW75450   0.667   2.888   0.527 -0.9025  0.8058 -0.0704
24670SOL    HW175451   0.691   2.914   0.438 -1.4091  2.9239  0.3530
24670SOL    HW275452   0.690   2.964   0.581 -0.0387 -0.6433  1.7383
24671SOL     OW75453   1.038   1.478   7.314  0.0124  0.0730  0.1518
24671SOL    HW175454   1.032   1.573   7.326  0.4099  0.0790  0.3462
24671SOL    HW275455   0.956   1.443   7.348 -1.7460  0.6141 -3.1616
24672SOL     OW75456   2.937   7.501   3.402  0.0189  0.0253 -0.1680
24672SOL    HW175457   2.931   7.562   3.476 -0.1760 -0.7959  0.5095
24672SOL    HW275458   2.944   7.415   3.443  1.8652 -0.3077 -1.0729
24673SOL     OW75459   5.646   4.861   5.071 -0.0479 -0.3345  0.3272
24673SOL    HW175460   5.609   4.808   5.000  1.8414  0.3179 -1.2258
24673SOL    HW275461   5.570   4.889   5.122 -1.2888 -2.5979 -0.1550
24674SOL     OW75462   0.538   5.067   8.412 -0.0501 -0.8293  0.0293
24674SOL    HW175463   0.469   5.062   8.478  0.7167 -0.9925  0.8234
24674SOL    HW275464   0.540   4.979   8.374 -1.3390 -0.4059 -1.1114
24675SOL     OW75465   2.370   4.422   4.400 -0.5795  0.5584  0.1038
24675SOL    HW175466   2.328   4.368   4.333 -0.2006  2.4564 -1.7651
24675SOL    HW275467   2.298   4.455   4.453 -0.9974 -0.1284 -0.0271
24676SOL     OW75468   4.514   4.698   2.467 -0.2083  0.0942 -0.5753
24676SOL    HW175469   4.558   4.710   2.551 -2.0527  0.6111  0.3677
24676SOL    HW275470   4.585   4.681   2.405  1.1910 -0.3763  1.0827
24677SOL     OW75471   6.287   0.017   0.161 -0.9432  0.4494  0.0888
24677SOL    HW175472   6.353  -0.052   0.172 -1.6600 -0.1083  1.1361
24677SOL    HW275473   6.205  -0.030   0.150 -1.0296  1.1050 -2.7271
24678SOL     OW75474   2.872   1.447   2.701  0.3070  0.5704  0.2061
24678SOL    HW175475   2.871   1.541   2.687  0.4302  0.2645 -2.4562
24678SOL    HW275476   2.918   1.435   2.784 -1.3687  2.8941  1.5874
24679SOL     OW75477   0.965   1.136   1.228  0.0556 -0.0181  0.3485
24679SOL    HW175478   1.001   1.198   1.291 -2.4576  0.0397  1.8600
24679SOL    HW275479   0.913   1.189   1.167 -1.3744 -0.4611  1.1204
24680SOL     OW75480   1.622   0.036   0.719  0.4233  0.2231 -0.3245
24680SOL    HW175481   1.672   0.116   0.738 -1.4486  1.1486  0.9841
24680SOL    HW275482   1.650   0.011   0.631  1.6192  1.8834 -0.4713
24681SOL     OW75483   2.727   4.970   3.075 -0.1879  0.2296  0.3473
24681SOL    HW175484   2.727   4.960   2.980 -0.4708  4.5333 -0.3286
24681SOL    HW275485   2.819   4.962   3.099 -0.2154 -1.8343 -0.0758
24682SOL     OW75486   5.650   7.772   5.398  0.4026  0.4103 -0.5327
24682SOL    HW175487   5.710   7.698   5.406  0.8924  0.5765 -2.2424
24682SOL    HW275488   5.566   7.733   5.373  0.3375  0.3352 -0.1955
24683SOL     OW75489   6.109   0.050   0.988 -0.0457 -0.0734 -0.6913
24683SOL    HW175490   6.024   0.050   1.032  0.5904  0.4604  0.5999
24683SOL    HW275491   6.096   0.108   0.913 -0.9350 -0.3337 -0.7583
24684SOL     OW75492   6.817   5.951   7.103  0.3500 -0.1264 -0.0388
24684SOL    HW175493   6.724   5.942   7.082  0.1272  0.2049  0.8026
24684SOL    HW275494   6.860   5.885   7.047 -0.2566  0.4990 -1.2885
24685SOL     OW75495   0.344   3.518   7.543  0.1108 -0.0057 -0.2113
24685SOL    HW175496   0.258   3.487   7.573 -0.0785 -0.0992 -0.8259
24685SOL    HW275497   0.324   3.568   7.464  0.6162  0.0675 -0.2941
24686SOL     OW75498   0.832   4.069   0.383 -1.0609 -0.3425 -0.0962
24686SOL    HW175499   0.849   4.156   0.420  0.0465 -0.7002  0.2693
24686SOL    HW275500   0.771   4.085   0.311 -3.6751  0.3400  2.1150
24687SOL     OW75501   1.184   1.290   5.942 -0.7505 -0.0109  0.4668
24687SOL    HW175502   1.229   1.229   5.884 -0.5768  0.2918  0.2808
24687SOL    HW275503   1.162   1.237   6.019 -0.2023 -0.1985  0.5021
24688SOL     OW75504   7.913   7.588   4.974  0.2133 -0.1193 -0.5655
24688SOL    HW175505   7.880   7.532   4.904  1.0625 -0.4931 -0.6748
24688SOL    HW275506   8.007   7.597   4.956  0.4998 -0.4423  0.6789
24689SOL     OW75507   2.525   0.910  10.943 -0.0075 -0.0524  0.4129
24689SOL    HW175508   2.434   0.924  10.914  0.2032  3.2711  0.9830
24689SOL    HW275509   2.578   0.950  10.874  1.1963 -2.8625 -0.4407
24690SOL     OW75510   0.526   7.872   2.921 -0.9654 -0.2785  0.0646
24690SOL    HW175511   0.546   7.787   2.882 -0.5893  0.5424 -1.6258
24690SOL    HW275512   0.461   7.910   2.862 -1.2100  0.5588  0.8593
24691SOL     OW75513   5.054   7.102   0.525 -0.1057  0.4574  0.4375
24691SOL    HW175514   5.109   7.028   0.499 -0.3777  0.7495 -1.0244
24691SOL    HW275515   5.097   7.179   0.488 -1.8384  0.6199 -1.3601
24692SOL     OW75516   5.072   7.008   9.574 -0.0934  0.3686  0.1615
24692SOL    HW175517   5.103   6.920   9.551  0.9645  0.4033  1.3299
24692SOL    HW275518   5.002   6.993   9.638  0.0246  0.3703  0.2924
24693SOL     OW75519   2.910   7.971   5.474 -0.2106  0.4031 -0.2012
24693SOL    HW175520   2.859   7.965   5.394  0.2826  2.0522 -0.6726
24693SOL    HW275521   2.904   8.062   5.501  1.8159  0.4901  0.1546
24694SOL     OW75522   7.746   7.329   8.434  0.0685  0.1330 -0.1422
24694SOL    HW175523   7.774   7.396   8.497  0.4070 -0.6114  0.5204
24694SOL    HW275524   7.651   7.339   8.430  0.2497  1.8962 -1.5057
24695SOL     OW75525   4.721   0.714   7.214  0.4291  0.2878  0.0198
24695SOL    HW175526   4.722   0.712   7.309  0.2722 -0.1526  0.0136
24695SOL    HW275527   4.813   0.716   7.188  0.4683  0.5826  0.1827
24696SOL     OW75528   1.297   0.517  11.647 -0.1048 -0.0177  0.2882
24696SOL    HW175529   1.309   0.495  11.739 -0.4599 -2.1633 -0.1381
24696SOL    HW275530   1.292   0.433  11.602 -0.3594  0.9736 -1.6552
24697SOL     OW75531   7.630   2.364   7.737  0.1340  0.2025  0.5494
24697SOL    HW175532   7.632   2.360   7.833  0.5276 -0.8867  0.5113
24697SOL    HW275533   7.721   2.348   7.711  0.0354  0.5420 -0.0056
24698SOL     OW75534   2.839   6.177   4.076  0.4575  0.0322 -0.2201
24698SOL    HW175535   2.855   6.231   4.153 -0.9984  0.0680  0.0925
24698SOL    HW275536   2.853   6.087   4.106 -1.0815 -0.0309  0.4010
24699SOL     OW75537   6.790   2.295  10.556  0.1459 -0.4988 -0.0691
24699SOL    HW175538   6.794   2.265  10.647  0.4834 -3.0403 -0.8299
24699SOL    HW275539   6.702   2.329  10.546 -0.5100 -1.8502  0.7803
24700SOL     OW75540   2.613   7.574   6.911  0.2412  0.0951 -0.2053
24700SOL    HW175541   2.543   7.509   6.917 -0.9591  1.4460  1.5161
24700SOL    HW275542   2.572   7.655   6.941  2.0709  1.3585 -0.9574
24701SOL     OW75543   0.575   0.943   3.235 -0.3503 -0.6612  0.0338
24701SOL    HW175544   0.511   0.942   3.164 -0.3806  2.5522 -0.1550
24701SOL    HW275545   0.529   0.909   3.311 -2.2575  1.2623 -0.1755
24702SOL     OW75546   5.981   3.135   6.611  0.1257 -0.3074  0.3034
24702SOL    HW175547   6.003   3.228   6.601 -1.2375  0.2392  1.9961
24702SOL    HW275548   6.027   3.107   6.690 -0.0225 -0.9033  0.1886
24703SOL     OW75549   2.518   2.561   4.567  0.3856 -0.3648  0.0956
24703SOL    HW175550   2.479   2.591   4.649  0.5696  0.4257 -0.1010
24703SOL    HW275551   2.601   2.520   4.593  0.4917 -0.0256  0.2977
24704SOL     OW75552   4.072   4.409  11.616  0.4613  0.2772  0.2616
24704SOL    HW175553   4.131   4.481  11.638 -0.3286  0.8681  0.5016
24704SOL    HW275554   4.122   4.355  11.554  1.5117  0.3513  1.0109
24705SOL     OW75555   5.023   3.593  11.643  0.1547 -0.1335 -0.4411
24705SOL    HW175556   4.947   3.613  11.588  0.3904  0.1166 -0.6860
24705SOL    HW275557   5.008   3.643  11.723  0.6354  0.8975 -0.9658
24706SOL     OW75558   2.341   0.003   9.799  0.0730  0.6363  0.6327
24706SOL    HW175559   2.380   0.025   9.884  1.1646  1.7785 -0.1308
24706SOL    HW275560   2.415   0.006   9.738 -0.7836  0.2643 -0.4381
24707SOL     OW75561   5.821   1.698   0.974 -0.4016  0.1949 -0.0575
24707SOL    HW175562   5.809   1.714   0.880  2.7807 -2.1139 -1.0180
24707SOL    HW275563   5.790   1.608   0.987  0.3801  0.0334  0.7846
24708SOL     OW75564   6.556   2.029   9.814  0.0372 -0.0955  0.3995
24708SOL    HW175565   6.647   2.034   9.842  0.4344 -2.1220 -0.3088
24708SOL    HW275566   6.552   2.082   9.735  0.3534  0.7865  0.9639
24709SOL     OW75567   0.407   3.918   3.006  0.1263 -0.1761 -0.6173
24709SOL    HW175568   0.469   3.913   3.079 -1.3368 -0.8495  0.6201
24709SOL    HW275569   0.387   4.011   2.998 -0.6809 -0.2101  0.7257
24710SOL     OW75570   3.502   6.479   2.191 -0.4389 -0.2626 -0.2331
24710SOL    HW175571   3.475   6.551   2.134 -0.5140  0.2449  0.4271
24710SOL    HW275572   3.472   6.504   2.278  0.8767 -0.3609  0.2826
24711SOL     OW75573   5.747   2.504   0.527 -0.2669 -0.4263  0.0833
24711SOL    HW175574   5.755   2.469   0.615 -0.8308 -0.1464  0.2538
24711SOL    HW275575   5.835   2.534   0.504 -0.3252  0.4750  0.9684
24712SOL     OW75576   6.662   3.349   1.340  0.1400 -0.0861  0.3926
24712SOL    HW175577   6.588   3.344   1.401 -0.9934 -0.1526 -0.9318
24712SOL    HW275578   6.643   3.426   1.286  1.1170 -0.0291  0.1118
24713SOL     OW75579   4.344   4.633   2.765 -0.4037  0.0234 -0.6665
24713SOL    HW175580   4.428   4.598   2.735  0.3195  1.1437 -0.0165
24713SOL    HW275581   4.330   4.590   2.849  0.1067  0.6783 -0.2318
24714SOL     OW75582   0.773   0.345   4.883  0.0542 -0.4848  0.3615
24714SOL    HW175583   0.771   0.284   4.810  1.2754 -0.0668 -0.0581
24714SOL    HW275584   0.801   0.428   4.844 -3.0384  0.8006  0.6462
24715SOL     OW75585   4.905   3.816   7.321 -0.7053  0.3203  0.3960
24715SOL    HW175586   4.848   3.800   7.247 -0.1312  1.4457 -0.3202
24715SOL    HW275587   4.922   3.911   7.319  0.0328  0.2365  1.4310
24716SOL     OW75588   4.119   2.670   2.013 -0.0580  0.2217 -0.4338
24716SOL    HW175589   4.157   2.688   2.099  1.2952  0.7925 -1.1195
24716SOL    HW275590   4.110   2.757   1.973  0.4865 -0.1236 -1.3285
24717SOL     OW75591   7.658   0.174   2.114 -0.0298  0.2371 -0.9130
24717SOL    HW175592   7.709   0.220   2.047  0.2674  1.6185  0.2145
24717SOL    HW275593   7.595   0.239   2.144  0.3868 -0.0891  0.7220
24718SOL     OW75594   1.401   6.168   7.422  0.0655 -0.7930 -0.1212
24718SOL    HW175595   1.363   6.203   7.341  3.2728 -1.1771 -1.9717
24718SOL    HW275596   1.464   6.235   7.450 -1.5169 -0.3002  2.6423
24719SOL     OW75597   5.786   2.207   4.913  0.3607 -0.0293  0.0206
24719SOL    HW175598   5.806   2.115   4.930  0.5579  0.1558  0.7926
24719SOL    HW275599   5.694   2.217   4.938  0.5770  0.1801  0.7441
24720SOL     OW75600   6.580   4.398   3.598  0.0970 -0.0351 -0.3971
24720SOL    HW175601   6.610   4.405   3.689  1.7222  0.7401 -0.9526
24720SOL    HW275602   6.638   4.333   3.559 -0.7697 -0.5576 -0.8165
24721SOL     OW75603   1.159   7.806   2.094 -0.5217  0.3176  0.7611
24721SOL    HW175604   1.192   7.774   2.178 -0.3283  0.3205  0.6866
24721SOL    HW275605   1.064   7.797   2.101 -0.5039  0.2729  0.9619
24722SOL     OW75606   1.950   1.821   7.189  0.3135 -0.2402 -0.2473
24722SOL    HW175607   1.936   1.772   7.108 -0.8640 -1.3159  0.5720
24722SOL    HW275608   1.867   1.813   7.236  1.2201 -0.2604  1.4063
24723SOL     OW75609   6.449   5.039   4.466  0.1723 -0.0894 -0.0471
24723SOL    HW175610   6.500   4.964   4.435 -0.0890  0.5167 -2.0778
24723SOL    HW275611   6.381   5.000   4.521 -0.1828 -1.4055 -1.3582
24724SOL     OW75612   5.678   0.427   5.800 -0.0419 -0.0242  0.6491
24724SOL    HW175613   5.676   0.462   5.710  4.2162 -1.3461 -0.1778
24724SOL    HW275614   5.659   0.503   5.855 -0.2161  1.4450 -1.3155
24725SOL     OW75615   4.430   0.615   9.222  0.2164 -0.2446 -0.2712
24725SOL    HW175616   4.445   0.581   9.134  0.3642  0.6079 -0.5810
24725SOL    HW275617   4.451   0.541   9.280  3.9257  0.2659 -0.7335
24726SOL     OW75618   6.425   6.384   5.820  0.4506  0.1379 -0.4147
24726SOL    HW175619   6.520   6.386   5.807  0.2707  0.9517 -1.7395
24726SOL    HW275620   6.396   6.306   5.773  0.6411 -1.1421  1.5042
24727SOL     OW75621   2.529   2.398  10.737  0.1092  0.3663  0.2423
24727SOL    HW175622   2.568   2.483  10.755 -2.5114  1.8599 -0.6045
24727SOL    HW275623   2.498   2.368  10.823  1.3667  0.0391  0.6059
24728SOL     OW75624   1.344   6.113   9.848 -0.3531  0.2099  0.2868
24728SOL    HW175625   1.407   6.184   9.833 -0.8628  0.6036 -0.0052
24728SOL    HW275626   1.396   6.043   9.888  1.1410 -0.9075 -3.2448
24729SOL     OW75627   4.349   2.232   5.729  0.2243  0.1257  0.6590
24729SOL    HW175628   4.295   2.278   5.665  0.3468  0.4462  0.7880
24729SOL    HW275629   4.406   2.176   5.676  0.4785  0.5562  0.4778
24730SOL     OW75630   5.973   3.558   2.448  0.0093  0.2383 -0.5581
24730SOL    HW175631   6.037   3.629   2.447  0.2175  0.0969  0.8956
24730SOL    HW275632   5.896   3.595   2.403  0.5712  0.9183 -0.9895
24731SOL     OW75633   6.647   5.501   3.904  0.5438 -0.3963  0.7293
24731SOL    HW175634   6.612   5.549   3.829 -0.5309 -1.3649  0.5679
24731SOL    HW275635   6.721   5.451   3.868  0.5173 -0.2609  0.4863
24732SOL     OW75636   6.408   6.632   9.391  0.1518  0.2350  0.0638
24732SOL    HW175637   6.387   6.651   9.299  1.0242  1.5968  0.1106
24732SOL    HW275638   6.395   6.716   9.436  1.2517 -0.0075  0.8834
24733SOL     OW75639   6.024   6.625  11.988  0.0678 -0.8019 -0.2401
24733SOL    HW175640   5.953   6.571  12.023 -0.5387  0.7488  1.0301
24733SOL    HW275641   6.090   6.627  12.058 -0.4311  0.9874  0.2391
24734SOL     OW75642   7.288   1.630   1.099 -0.1081  0.2401  0.0464
24734SOL    HW175643   7.346   1.602   1.028 -0.6039  0.8749 -0.6226
24734SOL    HW275644   7.200   1.614   1.066 -0.3574  1.0941  0.2876
24735SOL     OW75645   2.850   2.922   8.179  0.0042  0.5769  0.3258
24735SOL    HW175646   2.943   2.910   8.199 -0.2536  2.1037  2.8313
24735SOL    HW275647   2.807   2.848   8.220 -0.1690  1.8150  2.5309
24736SOL     OW75648   1.250   7.207  11.194 -0.3023 -0.1229 -0.6537
24736SOL    HW175649   1.211   7.256  11.266 -0.0241 -0.2438 -0.4197
24736SOL    HW275650   1.251   7.269  11.121  1.7045  0.8396  0.1310
24737SOL     OW75651   5.438   4.880   7.088  0.3672  0.0656  0.1248
24737SOL    HW175652   5.431   4.784   7.082  1.0413  0.0814 -1.3955
24737SOL    HW275653   5.522   4.895   7.130 -0.1957 -0.0043  1.2992
24738SOL     OW75654   5.871   4.628   6.634 -0.0906 -0.1489  0.5349
24738SOL    HW175655   5.801   4.620   6.569  1.6009  0.1276 -1.4289
24738SOL    HW275656   5.915   4.543   6.632  1.3762  0.5915 -0.4312
24739SOL     OW75657   4.481   4.210   3.315 -0.1095  0.2856  0.1253
24739SOL    HW175658   4.535   4.288   3.301 -0.4328  0.2845 -1.2566
24739SOL    HW275659   4.399   4.243   3.350 -0.1830  0.5580 -0.2997
24740SOL     OW75660   7.299   3.171   4.198  0.2099 -0.6282 -0.3447
24740SOL    HW175661   7.241   3.097   4.215 -1.4236  0.6292 -0.0931
24740SOL    HW275662   7.337   3.191   4.284  0.2851 -0.8947 -0.3169
24741SOL     OW75663   7.070   4.705   7.235  0.1147  0.1336 -0.0838
24741SOL    HW175664   7.105   4.618   7.257 -2.0797 -0.3707  1.7873
24741SOL    HW275665   7.093   4.717   7.143  0.1313 -2.6281 -0.5227
24742SOL     OW75666   5.488   2.601   6.045 -0.5922  0.1487  0.0840
24742SOL    HW175667   5.453   2.643   6.123 -1.2975 -0.5169  0.1331
24742SOL    HW275668   5.474   2.664   5.975  1.4522  1.4069  0.7443
24743SOL     OW75669   5.742   3.333   8.677  0.1299 -0.2065 -0.2678
24743SOL    HW175670   5.733   3.283   8.596  1.5262 -0.7111 -0.1376
24743SOL    HW275671   5.742   3.424   8.648  0.9062 -0.3911 -0.8816
24744SOL     OW75672   4.209   2.864  11.461  0.2667  0.2406 -0.1283
24744SOL    HW175673   4.292   2.832  11.496  1.1908  3.7368  1.2288
24744SOL    HW275674   4.233   2.916  11.385 -1.0612 -1.0768 -1.5416
24745SOL     OW75675   1.935   3.304   7.980  0.1803 -0.5381  0.5264
24745SOL    HW175676   1.890   3.228   8.017 -0.7056  0.0923  0.7573
24745SOL    HW275677   1.885   3.380   8.009  1.0466  0.1523  0.2903
24746SOL     OW75678   6.216   0.179  10.246 -0.2877 -0.0303 -0.3553
24746SOL    HW175679   6.226   0.187  10.341 -0.2472 -2.4963 -0.0891
24746SOL    HW275680   6.269   0.251  10.211 -0.9736  1.4643  1.4529
24747SOL     OW75681   7.426   7.218  10.701 -0.6167 -0.1328  1.0302
24747SOL    HW175682   7.360   7.186  10.763  1.0059 -1.6354  2.0722
24747SOL    HW275683   7.495   7.253  10.757 -0.2474  0.8823 -0.0262
24748SOL     OW75684   3.216   4.481   2.226  0.4357 -0.0929  0.2541
24748SOL    HW175685   3.282   4.420   2.191  0.7581  0.1832  0.3741
24748SOL    HW275686   3.235   4.564   2.183 -0.2937 -0.1791 -0.2551
24749SOL     OW75687   2.933   0.174  10.400 -0.1498 -0.3127 -0.2339
24749SOL    HW175688   3.023   0.142  10.391  0.1167  0.6854 -1.4213
24749SOL    HW275689   2.894   0.118  10.466  0.8322 -1.8838 -0.9331
24750SOL     OW75690   3.115   5.536  10.441  0.1834  0.2375  0.7085
24750SOL    HW175691   3.136   5.624  10.473 -0.0580  0.6736 -0.2799
24750SOL    HW275692   3.178   5.479  10.485  1.6935  1.1623 -0.1547
24751SOL     OW75693   4.134   0.739  11.781 -0.4687  0.0229 -0.5086
24751SOL    HW175694   4.071   0.754  11.710 -0.1160  1.5903 -0.5370
24751SOL    HW275695   4.080   0.710  11.855 -0.9585 -0.6412 -1.1139
24752SOL     OW75696   2.014   3.833   6.124 -0.5660  0.0691  0.0951
24752SOL    HW175697   1.991   3.888   6.049  1.8029  1.1288  0.0559
24752SOL    HW275698   1.969   3.875   6.198 -1.9796 -0.3117 -0.5085
24753SOL     OW75699   3.978   1.914   8.722 -0.6007  0.8407 -0.5097
24753SOL    HW175700   4.006   1.944   8.635 -1.6541  1.1051 -0.7652
24753SOL    HW275701   3.916   1.843   8.704 -0.3188  0.4495  0.0422
24754SOL     OW75702   3.837   6.151   3.465  0.4272 -0.1859 -0.0566
24754SOL    HW175703   3.863   6.063   3.495  3.1767  0.2987 -0.6889
24754SOL    HW275704   3.743   6.145   3.451  0.3638 -2.7301  0.9231
24755SOL     OW75705   4.227   0.395   0.973  0.0615  0.1496  0.0870
24755SOL    HW175706   4.311   0.361   0.942  0.2546  0.1173  0.6374
24755SOL    HW275707   4.243   0.421   1.064  0.0603  2.1790 -0.4509
24756SOL     OW75708   6.028   2.785   5.889 -0.2464  0.3182  0.3615
24756SOL    HW175709   6.117   2.765   5.861 -0.5641 -1.2948  0.4307
24756SOL    HW275710   6.037   2.814   5.980  0.2182  0.3904  0.2926
24757SOL     OW75711   7.467   4.159  10.988 -0.3419  0.3169 -0.0055
24757SOL    HW175712   7.411   4.164  10.910 -0.5168  1.9332  0.1920
24757SOL    HW275713   7.419   4.206  11.056  1.5496  2.5379 -0.0539
24758SOL     OW75714   6.069   0.682   6.499  0.4927  0.6429  0.2751
24758SOL    HW175715   6.108   0.594   6.493  0.4160  0.6217  0.0804
24758SOL    HW275716   6.016   0.690   6.420 -0.2802  0.4904  0.7709
24759SOL     OW75717   6.763   3.225   2.811 -0.8747 -0.2665  0.4021
24759SOL    HW175718   6.761   3.220   2.716  0.2448 -0.2198  0.3613
24759SOL    HW275719   6.781   3.318   2.830  0.0026 -0.4748  0.6228
24760SOL     OW75720   3.228   1.051   3.579 -0.3480  0.3464 -0.3121
24760SOL    HW175721   3.225   1.020   3.489 -0.4324  0.4946 -0.3612
24760SOL    HW275722   3.153   1.110   3.586 -1.4878 -1.1187  0.3956
24761SOL     OW75723   7.743   5.094   9.566 -0.1223  0.3443  0.0452
24761SOL    HW175724   7.656   5.118   9.535 -0.4044 -0.8888 -0.1582
24761SOL    HW275725   7.758   5.152   9.641 -0.0111  2.3732 -1.4827
24762SOL     OW75726   5.646   2.851   8.771 -0.5536 -0.1716  0.2982
24762SOL    HW175727   5.684   2.908   8.838 -0.9357  0.6794 -0.1941
24762SOL    HW275728   5.615   2.775   8.819  0.1439 -0.0596  0.9460
24763SOL     OW75729   7.450   0.332   5.141  0.5668  0.1354 -0.2039
24763SOL    HW175730   7.399   0.280   5.204 -0.1055  1.3268  0.2733
24763SOL    HW275731   7.476   0.269   5.073 -1.0127 -0.6593 -0.1293
24764SOL     OW75732   3.557   1.550   9.690 -0.0989  0.0839  0.1844
24764SOL    HW175733   3.584   1.639   9.713  0.6881  0.3017 -1.4337
24764SOL    HW275734   3.639   1.505   9.669 -0.4547 -1.1533  1.2800
24765SOL     OW75735   2.837   5.635   4.760 -0.2680 -0.4569 -0.0558
24765SOL    HW175736   2.832   5.634   4.664 -1.3325 -0.2273 -0.0151
24765SOL    HW275737   2.854   5.727   4.782  0.8968 -0.6633 -0.0517
24766SOL     OW75738   3.946   2.834  11.338  0.2585  0.3874 -0.3659
24766SOL    HW175739   3.960   2.795  11.251  1.2346  1.8821 -0.9182
24766SOL    HW275740   4.034   2.856  11.368 -0.0451 -0.3894  1.1681
24767SOL     OW75741   7.727   5.047   3.567  0.1142  0.4184  0.2398
24767SOL    HW175742   7.711   4.962   3.607 -0.9701  0.9108  0.8959
24767SOL    HW275743   7.768   5.026   3.483 -1.5430 -0.8446 -0.3055
24768SOL     OW75744   3.310   7.750   7.275 -0.0912  0.7580 -0.1287
24768SOL    HW175745   3.233   7.723   7.326  0.6287  0.6128  0.9044
24768SOL    HW275746   3.277   7.760   7.186 -1.1142 -0.1894  0.1269
24769SOL     OW75747   1.159   1.541   7.875  0.6045 -0.4060 -0.4646
24769SOL    HW175748   1.120   1.612   7.824 -0.7185 -1.0421 -0.3723
24769SOL    HW275749   1.146   1.462   7.822  0.0982 -0.9170  0.4051
24770SOL     OW75750   4.687   2.880   5.252 -0.6425 -0.2595 -0.0239
24770SOL    HW175751   4.605   2.857   5.296 -0.2168 -0.3232  0.7596
24770SOL    HW275752   4.753   2.824   5.293 -0.2794 -0.5533 -0.9834
24771SOL     OW75753   4.273   4.702   7.514 -0.2020  0.1464  0.3932
24771SOL    HW175754   4.254   4.649   7.592 -2.5207 -2.1449 -1.5256
24771SOL    HW275755   4.224   4.783   7.527  0.2351  0.2106  1.7234
24772SOL     OW75756   5.443   1.324   1.469 -0.0895 -0.0329  0.2023
24772SOL    HW175757   5.495   1.267   1.413 -0.3559  0.6367 -0.7535
24772SOL    HW275758   5.507   1.363   1.529  0.1335 -1.0675  0.6635
24773SOL     OW75759   1.275   0.286   1.686 -0.0956  0.2304 -0.2821
24773SOL    HW175760   1.286   0.370   1.640 -1.5700  0.4974 -0.2050
24773SOL    HW275761   1.360   0.270   1.727  0.1787  1.7579 -0.1869
24774SOL     OW75762   2.970   1.537   1.703  0.1712  0.3834 -0.7907
24774SOL    HW175763   2.965   1.446   1.673 -0.7192 -0.1134  0.7670
24774SOL    HW275764   3.035   1.578   1.646  0.4477 -1.1792 -1.6318
24775SOL     OW75765   1.843   7.630   0.382 -0.3344  0.2445 -0.4183
24775SOL    HW175766   1.887   7.636   0.297 -1.0704 -2.4725 -1.1075
24775SOL    HW275767   1.749   7.634   0.361 -0.5157  0.8698  0.4427
24776SOL     OW75768   3.973   2.714  10.074 -0.1810  0.3778  0.3084
24776SOL    HW175769   3.987   2.764  10.154 -0.1062  0.5589  0.1834
24776SOL    HW275770   3.883   2.734  10.048  0.2687  1.5178 -0.4723
24777SOL     OW75771   0.781   2.697   5.311  0.3443  0.6248 -0.1652
24777SOL    HW175772   0.836   2.623   5.336  1.2491  0.5488 -2.2189
24777SOL    HW275773   0.760   2.740   5.395  0.2336 -1.5845  1.0175
24778SOL     OW75774   6.779   7.791   6.402  0.1764 -0.1178 -0.7090
24778SOL    HW175775   6.831   7.758   6.475 -0.2779 -0.7882 -0.6777
24778SOL    HW275776   6.761   7.713   6.349 -1.2211  0.0192 -0.4561
24779SOL     OW75777   1.462   5.088   4.140 -0.5147  0.2274  0.1224
24779SOL    HW175778   1.417   5.041   4.069  0.0671 -1.0124  0.5465
24779SOL    HW275779   1.393   5.141   4.180 -1.2797 -0.5231 -0.1618
24780SOL     OW75780   1.161   7.047   1.078  0.0656 -0.7993 -0.0129
24780SOL    HW175781   1.154   6.956   1.049 -1.1722 -0.6303 -0.2978
24780SOL    HW275782   1.109   7.097   1.016 -0.8242 -0.1391  1.2114
24781SOL     OW75783   3.858   3.042   8.838 -0.0823 -0.0574 -0.4078
24781SOL    HW175784   3.889   2.962   8.882  0.8097  0.3014 -0.3618
24781SOL    HW275785   3.801   3.010   8.768  1.0643 -0.8017 -1.0275
24782SOL     OW75786   2.017   0.557   7.854 -0.1135  0.6585 -0.2044
24782SOL    HW175787   2.076   0.560   7.778  1.1053  1.1981  0.7317
24782SOL    HW275788   1.980   0.645   7.858  0.2713  0.8057  0.1625
24783SOL     OW75789   7.085   2.132   4.932  0.3883  0.4002 -0.5350
24783SOL    HW175790   7.129   2.093   5.008  1.2141  2.7610  0.2677
24783SOL    HW275791   6.996   2.098   4.937 -0.0588  1.7006  2.4911
24784SOL     OW75792   6.582   4.083   9.685 -0.1090 -0.0728  0.2276
24784SOL    HW175793   6.596   3.990   9.665 -0.6010 -0.0743 -0.1144
24784SOL    HW275794   6.648   4.103   9.751  0.4330 -0.5034 -0.1677
24785SOL     OW75795   0.561   1.349  10.240  0.2148  0.4086  0.4232
24785SOL    HW175796   0.656   1.351  10.243  0.2085  1.7317  0.6269
24785SOL    HW275797   0.540   1.338  10.147  0.5691  0.4698  0.3357
24786SOL     OW75798   2.408   1.306  11.448  0.1347 -0.4499  0.1636
24786SOL    HW175799   2.412   1.259  11.364 -0.9670  1.5585 -1.0884
24786SOL    HW275800   2.316   1.302  11.474  0.3322 -0.3770  0.8967
24787SOL     OW75801   3.801   7.586   3.137  0.1294  0.3391  0.0735
24787SOL    HW175802   3.836   7.545   3.058  0.7810 -2.6744  1.7796
24787SOL    HW275803   3.744   7.656   3.105  1.3919  0.1173 -2.9892
24788SOL     OW75804   1.268   3.632  10.230  0.1555  0.0941  0.2107
24788SOL    HW175805   1.344   3.656  10.177  0.8748 -0.8536  0.7809
24788SOL    HW275806   1.304   3.608  10.315 -0.5644 -2.1921 -0.0592
24789SOL     OW75807   6.876   4.023   4.934 -0.1743  0.2893  0.0896
24789SOL    HW175808   6.889   4.020   5.029 -1.6918  0.4240  0.3336
24789SOL    HW275809   6.839   3.937   4.913 -1.7456  0.9577 -0.0293
24790SOL     OW75810   2.914   7.525   6.899  0.0773  0.3992  0.8183
24790SOL    HW175811   2.942   7.456   6.959 -1.0181  0.5200  1.4878
24790SOL    HW275812   2.821   7.536   6.916  0.0139  1.3379 -0.0091
24791SOL     OW75813   3.302   1.219   6.621 -0.8783  0.2725  0.0190
24791SOL    HW175814   3.254   1.235   6.540  1.2766 -0.0563 -1.4182
24791SOL    HW275815   3.262   1.277   6.685 -1.9630  1.3431 -1.5634
24792SOL     OW75816   3.824   5.492   7.001 -0.6758  0.1889 -0.0316
24792SOL    HW175817   3.793   5.581   7.019 -0.0731  0.3561  0.1929
24792SOL    HW275818   3.861   5.497   6.913 -1.7823 -0.1468 -0.5313
24793SOL     OW75819   2.427   4.274   2.968 -0.1480 -0.3740 -0.0064
24793SOL    HW175820   2.405   4.212   3.037  0.1726  0.7328  1.1430
24793SOL    HW275821   2.354   4.336   2.967 -0.1070 -0.3321 -0.6106
24794SOL     OW75822   3.642   1.214   4.699  0.5524 -0.2588  0.1580
24794SOL    HW175823   3.733   1.187   4.703  0.4400 -0.9808 -1.3942
24794SOL    HW275824   3.593   1.135   4.721  0.2759  0.2968  1.6761
24795SOL     OW75825   3.839   0.342   0.036 -0.7378 -0.0712 -0.1802
24795SOL    HW175826   3.766   0.385  -0.008 -0.0212 -0.2026 -1.5220
24795SOL    HW275827   3.797   0.283   0.099 -1.7573  0.7187 -0.0779
24796SOL     OW75828   5.286   0.560  12.268 -0.3425 -0.7879 -0.2685
24796SOL    HW175829   5.191   0.564  12.278 -0.5740 -0.0625 -2.3000
24796SOL    HW275830   5.315   0.500  12.337 -2.0918  0.0941  1.3276
24797SOL     OW75831   4.118   1.590   1.826  0.3684 -0.0416  0.0253
24797SOL    HW175832   4.159   1.504   1.819 -0.0056 -0.3109  0.9121
24797SOL    HW275833   4.060   1.582   1.902  0.8784  1.2206  0.5638
24798SOL     OW75834   7.359   5.880   1.232 -0.3216  0.4526  0.3253
24798SOL    HW175835   7.344   5.899   1.324 -2.7573  0.6203 -0.0581
24798SOL    HW275836   7.337   5.961   1.186 -1.6470 -0.3656 -0.5674
24799SOL     OW75837   4.671   3.128  10.552  0.5916 -0.3035 -0.6683
24799SOL    HW175838   4.649   3.221  10.558  1.5680 -0.0425 -0.9183
24799SOL    HW275839   4.751   3.126  10.500  0.9754 -1.2256 -0.0668
24800SOL     OW75840   5.692   0.202   7.250  0.3199  0.4790 -0.2454
24800SOL    HW175841   5.712   0.172   7.339 -0.7400 -1.5391 -0.6193
24800SOL    HW275842   5.772   0.244   7.220  1.0458  0.2528  1.2874
24801SOL     OW75843   2.883   2.218   0.299  0.1823  0.1097  0.0291
24801SOL    HW175844   2.900   2.257   0.213 -1.8442  0.1745 -0.3892
24801SOL    HW275845   2.790   2.195   0.297  0.2015 -0.3338  2.0439
24802SOL     OW75846   4.432   5.033   4.366  0.4483  0.1842 -0.0882
24802SOL    HW175847   4.369   4.976   4.411  0.7124 -0.0604 -0.0266
24802SOL    HW275848   4.384   5.064   4.289 -0.3798  1.4492  0.8877
24803SOL     OW75849   7.294   2.289   3.956  0.5663 -0.5433 -0.2817
24803SOL    HW175850   7.372   2.242   3.927  2.3782  1.1324  1.5835
24803SOL    HW275851   7.309   2.379   3.928 -1.3120 -0.4067 -0.9587
24804SOL     OW75852   0.047   1.536   2.796 -0.2496 -0.7447 -0.0191
24804SOL    HW175853   0.082   1.508   2.711  0.9970  0.8830 -0.1035
24804SOL    HW275854   0.077   1.626   2.805 -5.0132  1.1399 -0.3353
24805SOL     OW75855   5.365   5.942   2.915  0.0566  0.5084 -0.0043
24805SOL    HW175856   5.281   5.981   2.937 -1.2082 -1.7715 -0.5139
24805SOL    HW275857   5.382   5.968   2.825 -0.0084  1.1149  0.1579
24806SOL     OW75858   6.455   1.895  11.716 -0.0122 -0.4270  0.2520
24806SOL    HW175859   6.527   1.876  11.655 -1.3267 -1.3828 -1.0679
24806SOL    HW275860   6.376   1.872  11.668 -1.3014  1.4906  1.3185
24807SOL     OW75861   5.781   7.119   8.409 -0.3098 -0.1680 -0.4448
24807SOL    HW175862   5.847   7.053   8.384  0.6272  1.5868 -3.0394
24807SOL    HW275863   5.806   7.197   8.360 -2.3622  1.6471  1.2128
24808SOL     OW75864   1.115   3.367  11.240  0.6991 -0.1111  0.0904
24808SOL    HW175865   1.164   3.289  11.216  0.6029  0.2764 -1.4966
24808SOL    HW275866   1.121   3.371  11.335  1.5195 -1.5050  0.1225
24809SOL     OW75867   1.046   4.537  11.830 -0.1325  0.2322 -0.2277
24809SOL    HW175868   1.053   4.475  11.902 -1.8403 -1.0294 -1.0594
24809SOL    HW275869   0.953   4.559  11.826  0.0922  1.1194 -1.3541
24810SOL     OW75870   3.108   5.918   9.579 -0.6716 -0.4986 -0.2600
24810SOL    HW175871   3.149   5.975   9.645 -0.5739 -0.4724 -0.3428
24810SOL    HW275872   3.056   5.977   9.526  0.3204 -0.3043 -1.0484
24811SOL     OW75873   3.981   6.385   7.552  0.5147  0.5417 -0.4165
24811SOL    HW175874   3.966   6.435   7.632  1.0552 -1.2332  0.8795
24811SOL    HW275875   4.030   6.444   7.495  0.8512  1.5788  0.9105
24812SOL     OW75876   4.922   7.979   4.281  0.3328  0.4632  0.0323
24812SOL    HW175877   4.887   7.963   4.368 -0.0940 -0.0214 -0.2238
24812SOL    HW275878   5.007   8.020   4.297 -0.0644  1.0668  0.6643
24813SOL     OW75879   4.147   0.122   7.489 -0.5635  0.0653 -0.8537
24813SOL    HW175880   4.202   0.113   7.567 -0.8047  1.5447 -0.4991
24813SOL    HW275881   4.176   0.203   7.447  0.5459 -1.4034 -3.1317
24814SOL     OW75882   1.305   5.342   4.136  0.1675 -0.4243  0.0400
24814SOL    HW175883   1.278   5.383   4.218  3.1696  0.2633  0.8223
24814SOL    HW275884   1.398   5.364   4.128  0.2770 -1.5270 -2.9394
24815SOL     OW75885   7.277   0.431   8.131 -0.0569 -0.2478 -0.3634
24815SOL    HW175886   7.228   0.493   8.184  0.0354  0.7660 -1.4209
24815SOL    HW275887   7.369   0.444   8.156 -0.0950 -0.4248 -0.1256
24816SOL     OW75888   2.779   2.006   0.031 -0.0249  0.2553 -0.7879
24816SOL    HW175889   2.763   1.912   0.026 -0.1052  0.1036  1.4690
24816SOL    HW275890   2.839   2.017   0.104  1.5502  1.8260 -2.1913
24817SOL     OW75891   0.041   5.515   5.795  0.1681 -0.1223 -0.7962
24817SOL    HW175892   0.073   5.605   5.791  2.6989 -0.8393  0.7290
24817SOL    HW275893   0.115   5.462   5.765 -0.5837 -1.7592  0.1006
24818SOL     OW75894   5.526   7.788   4.219  0.5355 -0.5993 -0.3440
24818SOL    HW175895   5.444   7.745   4.244 -0.0040  0.9652  0.7531
24818SOL    HW275896   5.499   7.863   4.166  1.4309 -1.3289 -1.9208
24819SOL     OW75897   7.408   5.591  10.909 -0.2384 -0.1784  0.1951
24819SOL    HW175898   7.387   5.681  10.936 -0.3371  0.4171 -1.7216
24819SOL    HW275899   7.498   5.595  10.878 -0.2856 -0.7146 -0.0288
24820SOL     OW75900   0.325   5.752   8.069  0.0741  0.2146 -0.1158
24820SOL    HW175901   0.345   5.813   7.998 -0.6377  1.4561  0.7141
24820SOL    HW275902   0.238   5.718   8.048  1.0009 -1.5826 -1.2679
24821SOL     OW75903   7.164   1.524   9.188 -0.1786 -0.1314 -0.3181
24821SOL    HW175904   7.151   1.618   9.183  1.7550  0.1568 -0.3361
24821SOL    HW275905   7.181   1.506   9.280 -1.9451 -0.7069 -0.0546
24822SOL     OW75906   4.603   7.294   5.500  0.4019 -0.0292 -0.3709
24822SOL    HW175907   4.549   7.295   5.421 -1.0255  0.3069  0.5709
24822SOL    HW275908   4.594   7.205   5.535  0.1964  0.1232 -0.0350
24823SOL     OW75909   2.066   6.919   0.126 -0.1914 -0.2050  0.2955
24823SOL    HW175910   2.111   6.922   0.211  0.1515 -2.2473  0.2448
24823SOL    HW275911   2.136   6.916   0.062 -0.3784 -1.4711  0.1182
24824SOL     OW75912   6.026   6.175   6.818  0.0026  0.0883  0.2097
24824SOL    HW175913   5.994   6.105   6.874  1.4587 -0.0400  0.9335
24824SOL    HW275914   6.119   6.154   6.803 -0.3731 -0.0314 -2.4677
24825SOL     OW75915   7.123   7.399   0.389 -0.0906 -0.1448 -0.2527
24825SOL    HW175916   7.142   7.308   0.368  0.3286 -0.0167 -0.4431
24825SOL    HW275917   7.208   7.444   0.383  0.0220 -0.0478  1.5300
24826SOL     OW75918   7.540   6.481   8.433  0.0433  0.0970  0.3037
24826SOL    HW175919   7.536   6.566   8.478 -2.2912 -1.5687  3.7010
24826SOL    HW275920   7.629   6.450   8.449  0.3119  1.0638  0.7792
24827SOL     OW75921   4.992   0.935  12.321 -0.4209  0.8113  0.8651
24827SOL    HW175922   5.014   1.008  12.378 -1.7170  2.0110 -0.0882
24827SOL    HW275923   4.933   0.973  12.256 -0.4398 -0.9074 -0.1764
24828SOL     OW75924   0.075   6.704   3.680 -0.1532  0.4791 -0.3206
24828SOL    HW175925   0.015   6.746   3.618  0.7916 -0.8013 -2.1975
24828SOL    HW275926   0.141   6.663   3.625  0.8931 -0.5216  1.5849
24829SOL     OW75927   1.172   1.360   3.167  0.6480 -0.5654 -0.7384
24829SOL    HW175928   1.099   1.304   3.194  1.5002 -0.4353  2.1382
24829SOL    HW275929   1.215   1.312   3.097 -0.4749 -2.0159 -0.4850
24830SOL     OW75930   5.428   7.936  11.738  0.1888  0.3411 -0.1706
24830SOL    HW175931   5.516   7.928  11.701 -0.8610 -0.4704 -2.6537
24830SOL    HW275932   5.401   7.845  11.755 -0.3830  0.5466  0.0512
24831SOL     OW75933   6.490   3.843   7.292  0.1791  0.2388 -0.0696
24831SOL    HW175934   6.432   3.812   7.222 -0.0924 -0.1815  0.3297
24831SOL    HW275935   6.570   3.791   7.281 -0.0135 -0.1179  0.1692
24832SOL     OW75936   6.749   2.027  10.433 -0.4034 -0.1860 -0.0810
24832SOL    HW175937   6.710   2.050  10.348 -0.2549  1.7768  0.3475
24832SOL    HW275938   6.788   2.108  10.464  0.7786 -1.2269  1.2412
24833SOL     OW75939   6.829   1.466   8.959 -0.0082 -0.0016  0.0359
24833SOL    HW175940   6.923   1.457   8.941  0.5227 -0.3987  2.6731
24833SOL    HW275941   6.818   1.558   8.983 -0.8905  0.7736 -2.8918
24834SOL     OW75942   2.774   0.486   0.328 -0.2712 -0.2123  0.0238
24834SOL    HW175943   2.727   0.404   0.310  0.7817 -0.9359  0.4487
24834SOL    HW275944   2.706   0.553   0.332 -1.0081 -0.6967 -2.3704
24835SOL     OW75945   3.252   6.210  11.450  0.0822 -0.4538  0.4533
24835SOL    HW175946   3.235   6.119  11.474  0.5865 -0.8585 -0.6494
24835SOL    HW275947   3.301   6.246  11.524 -1.3285 -0.6531  1.5299
24836SOL     OW75948   3.234   7.878   0.410 -0.0749  0.1531  0.0528
24836SOL    HW175949   3.225   7.853   0.319 -3.1226  0.9750  0.0140
24836SOL    HW275950   3.273   7.966   0.407 -1.0145  0.5644 -0.5375
24837SOL     OW75951   4.768   3.326   3.686  0.6588  0.0333 -0.5936
24837SOL    HW175952   4.769   3.363   3.598  1.5864 -0.4472 -0.7954
24837SOL    HW275953   4.860   3.316   3.709  0.4229 -0.0350  0.3510
24838SOL     OW75954   4.430   0.817   0.910 -0.2423  0.1373  0.6184
24838SOL    HW175955   4.518   0.779   0.916  0.3886  1.5298  0.5194
24838SOL    HW275956   4.373   0.742   0.892  1.1794 -0.5246 -1.4480
24839SOL     OW75957   4.226   4.450   2.180 -0.5473 -0.2191 -0.2362
24839SOL    HW175958   4.156   4.470   2.243 -1.3179 -2.6060 -0.2540
24839SOL    HW275959   4.299   4.420   2.234  0.6486  2.3896 -0.2073
24840SOL     OW75960   1.033   1.695  11.795  0.6941  0.7841 -0.0183
24840SOL    HW175961   1.063   1.765  11.737 -0.2340  1.9754  0.8948
24840SOL    HW275962   0.938   1.698  11.789  0.6350 -1.4400 -1.1234
24841SOL     OW75963   0.164   0.579  10.774  0.0256 -0.1089  0.2738
24841SOL    HW175964   0.170   0.488  10.804  0.7781  0.3933  1.7965
24841SOL    HW275965   0.160   0.630  10.855 -1.9394  1.1488 -0.5530
24842SOL     OW75966   6.622   2.365   9.656 -0.2095  0.8541  0.2389
24842SOL    HW175967   6.585   2.281   9.632  0.5160  0.4616  0.4734
24842SOL    HW275968   6.667   2.350   9.739  0.4459  1.3227 -0.0209
24843SOL     OW75969   3.412   7.320   9.262 -0.0948  0.3256  0.2839
24843SOL    HW175970   3.401   7.294   9.354 -0.6317 -0.8255 -0.0821
24843SOL    HW275971   3.323   7.339   9.233 -0.1404 -0.8875 -0.4268
24844SOL     OW75972   2.658   7.377  12.034 -0.4411 -0.0800 -0.4036
24844SOL    HW175973   2.646   7.350  12.125  0.1053  1.1769  0.0525
24844SOL    HW275974   2.587   7.439  12.018  0.3615  0.8787 -0.3364
24845SOL     OW75975   2.757   3.592   6.136  0.1209  0.4303 -0.4266
24845SOL    HW175976   2.820   3.521   6.153  0.0014 -0.0105 -1.7429
24845SOL    HW275977   2.806   3.672   6.152  1.0408  0.0899 -1.4488
24846SOL     OW75978   1.914   0.893   2.527  0.3944  0.7173 -0.0174
24846SOL    HW175979   1.871   0.880   2.442  0.2898  1.5292 -0.1050
24846SOL    HW275980   1.911   0.808   2.569  0.2111  0.3643 -0.7261
24847SOL     OW75981   0.717   4.718   5.867 -0.0906 -0.1378 -0.1304
24847SOL    HW175982   0.685   4.644   5.919 -1.4307  0.0291 -0.6624
24847SOL    HW275983   0.747   4.678   5.786 -0.9528 -0.1094 -0.4778
24848SOL     OW75984   6.053   2.078   3.993 -0.1240  0.3941  0.1143
24848SOL    HW175985   6.018   2.164   3.973  0.5781  0.2198 -2.0970
24848SOL    HW275986   6.055   2.031   3.910 -0.2669 -1.7036  1.2001
24849SOL     OW75987   7.451   3.115   5.018 -0.0575 -0.1026 -0.2692
24849SOL    HW175988   7.429   3.172   4.945  0.0590  0.7703  0.3608
24849SOL    HW275989   7.545   3.125   5.029 -0.0248 -0.4773 -0.2111
24850SOL     OW75990   4.375   3.063   1.966  0.5875  0.3794 -0.4954
24850SOL    HW175991   4.370   3.158   1.965  2.9380  0.5706 -0.8699
24850SOL    HW275992   4.330   3.035   1.886  0.0793  1.1772 -0.4994
24851SOL     OW75993   0.392   2.430   5.800 -0.1219  0.2711 -0.1579
24851SOL    HW175994   0.418   2.362   5.738  0.3013 -0.0155  0.3259
24851SOL    HW275995   0.297   2.418   5.810 -0.1134  0.0077 -0.3700
24852SOL     OW75996   0.244   4.425   1.136 -0.3937 -0.3202  0.3304
24852SOL    HW175997   0.211   4.484   1.069  0.2468  0.0693  0.3556
24852SOL    HW275998   0.277   4.482   1.205  1.7590 -0.6243 -0.3621
24853SOL     OW75999   2.944   0.580   7.335 -0.0344  0.2258 -0.0599
24853SOL    HW176000   2.973   0.645   7.271  0.6376 -0.7359 -0.7535
24853SOL    HW276001   3.026   0.543   7.370 -0.4101 -0.7254 -0.1752
24854SOL     OW76002   6.828   5.598  10.881  0.4800  0.7072 -0.8877
24854SOL    HW176003   6.774   5.605  10.802 -3.0218 -0.1698  1.2231
24854SOL    HW276004   6.863   5.509  10.878 -1.6612 -0.2129 -0.3681
24855SOL     OW76005   7.816   6.428   5.996  0.4146 -0.1562 -0.9318
24855SOL    HW176006   7.870   6.476   6.060  0.0672  0.3732 -1.0326
24855SOL    HW276007   7.813   6.339   6.030 -0.7503  0.3669  0.4576
24856SOL     OW76008   4.830   0.239  10.096 -0.2830  0.0068  0.5062
24856SOL    HW176009   4.858   0.249  10.187  0.1436 -0.1805  0.3978
24856SOL    HW276010   4.845   0.325  10.057  2.5304 -0.7160 -0.1916
24857SOL     OW76011   1.621   4.549   4.441 -0.6759  0.4782 -0.4151
24857SOL    HW176012   1.573   4.490   4.384  0.8766  0.6113 -1.9528
24857SOL    HW276013   1.558   4.617   4.464 -2.5070 -1.6492  1.3861
24858SOL     OW76014   4.904   7.204   5.787  0.0920 -0.2036 -0.3634
24858SOL    HW176015   4.869   7.172   5.704 -3.0848  0.2634  0.6728
24858SOL    HW276016   4.959   7.133   5.819  0.1150 -1.0173 -2.1243
24859SOL     OW76017   7.979   4.626   7.263 -0.4253  0.0597  0.1589
24859SOL    HW176018   7.997   4.536   7.236 -0.5673  0.3110 -0.7951
24859SOL    HW276019   8.052   4.649   7.321 -0.4333 -0.6940  0.4714
24860SOL     OW76020   6.232   0.444   5.946 -1.1940 -0.2888 -1.0392
24860SOL    HW176021   6.148   0.404   5.926 -0.7970 -1.1520 -1.0282
24860SOL    HW276022   6.273   0.460   5.861 -0.2308 -2.3927 -1.0460
24861SOL     OW76023   1.869   1.146   1.448 -0.0015  0.0489  0.1874
24861SOL    HW176024   1.911   1.162   1.533  1.3783 -0.5744 -0.3448
24861SOL    HW276025   1.938   1.108   1.394 -1.5002 -1.9512 -0.4604
24862SOL     OW76026   5.109   3.510  10.563  0.3967 -0.4049  0.0680
24862SOL    HW176027   5.158   3.499  10.644 -0.7855 -0.8578  0.7510
24862SOL    HW276028   5.094   3.604  10.557  0.5403 -0.3617  0.3430
24863SOL     OW76029   4.160   0.640   0.131  0.5344  0.1683 -0.1573
24863SOL    HW176030   4.218   0.704   0.172  0.4411  0.3152 -0.2557
24863SOL    HW276031   4.209   0.557   0.135  0.0900 -0.0480  1.2183
24864SOL     OW76032   5.988   4.978   9.262  0.3330  0.1905  0.6390
24864SOL    HW176033   5.898   5.011   9.264  0.2152  0.0902 -1.3676
24864SOL    HW276034   5.980   4.887   9.289 -0.2701 -0.0101 -0.1868
24865SOL     OW76035   7.967   1.983   0.691  0.2145 -0.5468 -0.4773
24865SOL    HW176036   7.906   1.964   0.762 -0.3229  0.1009 -0.7585
24865SOL    HW276037   8.046   2.016   0.735 -0.4159  0.6475 -0.2081
24866SOL     OW76038   5.464   4.625   5.705  0.0062 -0.6456  0.1024
24866SOL    HW176039   5.452   4.594   5.794 -0.4526 -0.5223  0.0833
24866SOL    HW276040   5.512   4.555   5.661 -1.4165 -1.5531 -0.0675
24867SOL     OW76041   5.726   5.237   5.584  0.5908  0.0036  0.5316
24867SOL    HW176042   5.655   5.223   5.521  0.1768  1.3656  0.6585
24867SOL    HW276043   5.682   5.255   5.666  1.0721  0.7860  0.6317
24868SOL     OW76044   3.725   1.734   0.553  0.2900  0.5809 -0.2730
24868SOL    HW176045   3.645   1.698   0.590  0.9781  0.3719  1.0758
24868SOL    HW276046   3.698   1.816   0.511 -0.9008 -0.3502 -1.3794
24869SOL     OW76047   0.811   5.996   0.841 -0.5583 -0.1308  0.2377
24869SOL    HW176048   0.784   5.907   0.817 -0.2421 -0.1481 -0.0546
24869SOL    HW276049   0.830   6.038   0.757 -0.3554  0.0996  0.4003
24870SOL     OW76050   6.791   3.100   8.848  0.2958  0.3569  0.0479
24870SOL    HW176051   6.857   3.166   8.870  0.8936  0.3077 -1.4819
24870SOL    HW276052   6.747   3.135   8.771  0.2644 -0.7873 -0.4658
24871SOL     OW76053   7.424   4.726   2.657 -0.2733  0.0552 -0.5765
24871SOL    HW176054   7.419   4.641   2.700 -3.0439  1.2124  1.7589
24871SOL    HW276055   7.366   4.718   2.581 -3.2634  0.5762  1.4432
24872SOL     OW76056   1.742   1.855   0.929 -0.1732  0.0363  0.4639
24872SOL    HW176057   1.749   1.920   0.998 -0.7846 -0.3299  0.8803
24872SOL    HW276058   1.831   1.823   0.917  0.0074  0.4129  0.7749
24873SOL     OW76059   3.648   7.956   7.593  0.1377 -0.1479 -0.1078
24873SOL    HW176060   3.633   7.900   7.517  0.7811 -1.2481  0.5389
24873SOL    HW276061   3.743   7.969   7.595  0.1418 -0.2186  0.5638
24874SOL     OW76062   2.162   2.885   8.155  0.0701 -0.0350  0.3207
24874SOL    HW176063   2.096   2.895   8.224  0.7683  0.8191  0.8824
24874SOL    HW276064   2.166   2.971   8.114 -1.2527 -0.8532 -1.6711
24875SOL     OW76065   4.275   5.435   8.065 -0.3104  0.7178  0.2206
24875SOL    HW176066   4.350   5.480   8.026 -1.4705 -0.2748 -3.5604
24875SOL    HW276067   4.309   5.400   8.148  2.1139  3.8278  0.7209
24876SOL     OW76068   2.783   3.912   4.578 -0.0657 -0.2785 -0.0970
24876SOL    HW176069   2.689   3.907   4.597 -0.1522  0.5255 -0.2909
24876SOL    HW276070   2.822   3.942   4.661 -0.1667  0.9052 -0.4663
24877SOL     OW76071   5.144   0.090   5.557  0.6525  0.8182 -0.0166
24877SOL    HW176072   5.227   0.085   5.510 -0.1874  1.0055 -1.5809
24877SOL    HW276073   5.164   0.139   5.636  2.2567 -0.0895  0.1860
24878SOL     OW76074   1.743   6.051  10.502 -0.6414 -0.5701  0.0842
24878SOL    HW176075   1.826   6.070  10.458 -1.6317  0.4750 -1.4154
24878SOL    HW276076   1.741   5.956  10.508  0.5288 -0.6292 -0.1331
24879SOL     OW76077   5.002   3.365   4.620 -0.1433  0.0914 -0.4058
24879SOL    HW176078   5.069   3.432   4.633 -1.5569  1.3990  0.4531
24879SOL    HW276079   4.972   3.343   4.709  0.2385 -1.6649 -0.6690
24880SOL     OW76080   0.752   6.195   6.622 -0.0777  0.1228  0.3144
24880SOL    HW176081   0.725   6.271   6.569  0.6127 -0.2173 -0.5592
24880SOL    HW276082   0.742   6.224   6.712  0.3406  1.3325 -0.0051
24881SOL     OW76083   0.378   2.696   2.135  0.1705 -0.3840  0.2428
24881SOL    HW176084   0.382   2.778   2.184 -1.6589 -0.5286  0.6990
24881SOL    HW276085   0.439   2.638   2.180 -0.7850 -0.2181  1.8347
24882SOL     OW76086   5.476   4.178  10.880  0.0083 -0.1582  0.0078
24882SOL    HW176087   5.561   4.169  10.922  0.7940 -0.5961 -1.5710
24882SOL    HW276088   5.497   4.185  10.786 -1.5775  1.8573 -0.2502
24883SOL     OW76089   2.293   5.807   5.383  1.0183  0.4661  0.9807
24883SOL    HW176090   2.242   5.749   5.439 -0.8339 -0.1276 -1.1659
24883SOL    HW276091   2.350   5.748   5.334  1.3948  0.8035  1.0082
24884SOL     OW76092   4.749   1.997   6.804 -0.0512  0.0143  0.3442
24884SOL    HW176093   4.794   2.061   6.859 -1.4875  0.9702  0.4604
24884SOL    HW276094   4.661   2.032   6.793 -0.1484 -0.7161 -1.6505
24885SOL     OW76095   0.437   2.456   2.429 -0.1673 -0.2018  0.4589
24885SOL    HW176096   0.433   2.550   2.441  1.1181 -0.1928  0.9323
24885SOL    HW276097   0.405   2.420   2.512  0.7039 -0.1674  0.8179
24886SOL     OW76098   1.695   7.371  11.520 -0.2081  0.7301 -0.2499
24886SOL    HW176099   1.659   7.283  11.514  0.8441  0.2443  0.3420
24886SOL    HW276100   1.789   7.358  11.532 -0.2189  1.8772  1.4338
24887SOL     OW76101   7.337   4.885   4.068 -0.3288 -0.0201 -0.0247
24887SOL    HW176102   7.355   4.795   4.094  0.7206 -0.0055 -0.6282
24887SOL    HW276103   7.273   4.916   4.131  0.1422 -0.8363  0.8774
24888SOL     OW76104   4.384   2.322   1.727 -0.1019  0.1510  0.4821
24888SOL    HW176105   4.301   2.297   1.686 -0.1199  0.0634  0.5702
24888SOL    HW276106   4.359   2.349   1.816 -0.4003  2.6657 -0.2683
24889SOL     OW76107   5.156   3.992   7.463 -0.2354  0.2126 -0.6233
24889SOL    HW176108   5.141   4.064   7.524 -0.6104  2.3988 -3.1347
24889SOL    HW276109   5.087   4.000   7.397  0.2351 -1.9268 -1.4874
24890SOL     OW76110   7.296   4.405   7.536  0.1373 -0.2250 -0.2068
24890SOL    HW176111   7.238   4.476   7.563 -2.1419 -1.1876 -2.2410
24890SOL    HW276112   7.348   4.442   7.465 -0.7225 -0.3996 -0.9499
24891SOL     OW76113   0.294   6.728   8.133  0.2202  0.9176 -0.0881
24891SOL    HW176114   0.345   6.740   8.053 -0.3092  0.5255 -0.4975
24891SOL    HW276115   0.251   6.643   8.121  0.9856  0.3449  1.0894
24892SOL     OW76116   3.014   6.843   9.323 -0.2772 -0.4641 -0.3917
24892SOL    HW176117   3.090   6.798   9.361 -0.0388 -1.4410 -1.9222
24892SOL    HW276118   3.052   6.897   9.253 -0.8250  0.3276 -0.0836
24893SOL     OW76119   2.987   6.471   8.460 -0.3138 -0.0384 -0.6341
24893SOL    HW176120   2.896   6.501   8.463 -0.1173  0.5373  1.8669
24893SOL    HW276121   2.999   6.424   8.542  1.7851  0.3212 -0.6899
24894SOL     OW76122   7.265   6.135   1.131 -0.3204 -0.7316  0.2196
24894SOL    HW176123   7.226   6.213   1.169  0.5751 -0.9006  1.5477
24894SOL    HW276124   7.217   6.122   1.049  0.3146  1.9106 -0.6850
24895SOL     OW76125   5.150   4.052   5.514 -0.0905  0.3441 -0.2301
24895SOL    HW176126   5.162   4.040   5.608  1.2450  3.0929  0.0370
24895SOL    HW276127   5.056   4.071   5.504 -0.5086 -1.2445  0.3183
24896SOL     OW76128   0.985   5.901   1.026 -0.2112 -0.7342  0.7245
24896SOL    HW176129   0.966   5.898   1.120  0.0165 -0.6992  0.7734
24896SOL    HW276130   0.911   5.949   0.988  0.6664  1.0369  1.1604
24897SOL     OW76131   0.383   2.961  11.145  0.3891 -0.1801 -0.2582
24897SOL    HW176132   0.426   3.004  11.219  0.5278 -1.0961  0.2105
24897SOL    HW276133   0.292   2.989  11.151  0.5806  0.4527 -0.2649
24898SOL     OW76134   5.787   2.659   1.720  0.1246 -0.5849 -0.1235
24898SOL    HW176135   5.878   2.685   1.727  0.0060  0.3511 -1.6162
24898SOL    HW276136   5.762   2.681   1.630 -1.8585  0.1663  0.5517
24899SOL     OW76137   0.486   7.474  10.052  0.0010 -0.1264 -1.0800
24899SOL    HW176138   0.471   7.541  10.118 -0.1500 -0.1167 -1.1239
24899SOL    HW276139   0.540   7.409  10.097 -0.0343 -0.0810 -0.9696
24900SOL     OW76140   3.246   7.618   9.665 -0.0535 -0.6497 -0.1159
24900SOL    HW176141   3.157   7.592   9.688 -0.1318 -0.6305 -0.3925
24900SOL    HW276142   3.255   7.593   9.573 -0.1093  0.2256 -0.3713
24901SOL     OW76143   6.380   5.187   7.476 -0.7282 -0.0872 -0.2379
24901SOL    HW176144   6.376   5.129   7.400  0.5076  0.2179 -0.5536
24901SOL    HW276145   6.329   5.142   7.544  0.6232 -1.8009 -0.3081
24902SOL     OW76146   3.345   0.749  10.994  0.0086  0.0551 -0.2126
24902SOL    HW176147   3.255   0.762  10.966 -0.1419 -0.4549  0.0272
24902SOL    HW276148   3.384   0.695  10.926 -0.2806 -0.9531  0.3984
24903SOL     OW76149   6.462   4.884  10.412 -0.3478  0.3036  0.1302
24903SOL    HW176150   6.476   4.837  10.330 -1.5736 -1.1128  0.6894
24903SOL    HW276151   6.491   4.974  10.394  0.5673 -0.2812 -1.4528
24904SOL     OW76152   4.477   7.093   0.818  0.5333  0.2360 -0.2380
24904SOL    HW176153   4.412   7.024   0.830  1.4488 -0.5743  0.2581
24904SOL    HW276154   4.448   7.140   0.740  1.0566 -2.1141 -1.9527
24905SOL     OW76155   2.256   6.247  10.301  0.2693  0.1754  0.2093
24905SOL    HW176156   2.216   6.332  10.281  3.0179  1.2233 -1.4200
24905SOL    HW276157   2.300   6.261  10.385  0.8793  0.4302 -0.1510
24906SOL     OW76158   5.816   1.024   0.876  0.7098  0.2726  0.4355
24906SOL    HW176159   5.746   1.014   0.940 -1.4193  0.1819 -1.7600
24906SOL    HW276160   5.787   1.096   0.820  2.1319 -0.0985 -0.8312
24907SOL     OW76161   7.871   7.514   8.564  0.4468 -0.1721  0.3256
24907SOL    HW176162   7.882   7.592   8.509 -0.6418 -0.8820 -0.9556
24907SOL    HW276163   7.833   7.548   8.646 -0.0057  0.6584 -0.2100
24908SOL     OW76164   1.642   4.410   9.108  0.1366  0.0656  0.2606
24908SOL    HW176165   1.584   4.483   9.131  0.4096  1.0879 -2.0489
24908SOL    HW276166   1.655   4.419   9.013  2.2535 -1.4824  0.3492
24909SOL     OW76167   4.281   7.053   9.316  0.0150  0.2164  0.0026
24909SOL    HW176168   4.317   7.138   9.289 -1.3686  1.4732  1.8291
24909SOL    HW276169   4.241   7.018   9.236  0.9471  1.1075 -0.8810
24910SOL     OW76170   2.140   1.120   5.138 -1.1921  0.0921  0.2020
24910SOL    HW176171   2.225   1.081   5.120 -1.4693  0.0944 -1.2211
24910SOL    HW276172   2.147   1.154   5.227  0.7629  1.2798 -0.3444
24911SOL     OW76173   5.054   1.710   2.325  0.4790  0.7764 -0.0939
24911SOL    HW176174   5.008   1.702   2.241  0.8733 -2.0134 -0.1380
24911SOL    HW276175   5.146   1.692   2.304  0.6741  0.6171  0.8478
24912SOL     OW76176   5.457   0.675   3.262  0.1113 -0.2434 -0.0902
24912SOL    HW176177   5.501   0.671   3.346  0.0024 -1.1972 -0.0642
24912SOL    HW276178   5.450   0.769   3.242 -0.5153  0.0293  1.3041
24913SOL     OW76179   6.679   4.792  11.304  0.2712  0.1554 -0.1834
24913SOL    HW176180   6.638   4.836  11.378  0.2220 -1.3510  0.7181
24913SOL    HW276181   6.653   4.844  11.228 -0.3701  1.2503  0.7492
24914SOL     OW76182   4.848   6.078  12.446 -0.4815 -0.5379 -0.3605
24914SOL    HW176183   4.798   6.140  12.499 -2.0670  1.5127 -3.8837
24914SOL    HW276184   4.940   6.098  12.466 -1.0101  0.6688  1.0256
24915SOL     OW76185   7.793   2.868  10.830  0.1833  0.2268  0.1497
24915SOL    HW176186   7.760   2.780  10.813 -0.2391 -0.0004  1.9265
24915SOL    HW276187   7.726   2.909  10.885  0.2865  1.7350 -0.8027
24916SOL     OW76188   3.096   6.033   0.396 -0.0686  0.6982  0.2882
24916SOL    HW176189   3.012   6.075   0.411  0.0950  1.5767 -1.0877
24916SOL    HW276190   3.158   6.105   0.384  1.2409  0.1154  2.7576
24917SOL     OW76191   0.153   3.666  12.204  0.5792 -0.4413 -0.1472
24917SOL    HW176192   0.092   3.596  12.228  1.5331 -1.2251  0.0609
24917SOL    HW276193   0.190   3.639  12.120  0.0614  0.4226 -0.6679
24918SOL     OW76194   5.698   4.163  12.059 -0.2088  0.0202 -0.0939
24918SOL    HW176195   5.734   4.236  12.010 -0.8424  0.0080 -0.5836
24918SOL    HW276196   5.740   4.086  12.021 -0.6305  0.0175 -0.5725
24919SOL     OW76197   3.886   0.160   8.311  0.6503  0.4497  0.0322
24919SOL    HW176198   3.865   0.231   8.251  1.0515  0.6388  0.1082
24919SOL    HW276199   3.812   0.100   8.305  0.6240  0.5359 -0.5468
24920SOL     OW76200   3.586   6.729   4.428  0.1927  0.2807  0.5809
24920SOL    HW176201   3.668   6.744   4.475 -0.3812 -0.4237  1.8575
24920SOL    HW276202   3.550   6.649   4.466 -0.7908  0.2319 -0.3873
24921SOL     OW76203   2.334   5.544   8.289  0.4747  0.2207  0.1445
24921SOL    HW176204   2.312   5.592   8.209  1.2786  1.0860  0.4227
24921SOL    HW276205   2.388   5.471   8.259 -0.8003 -0.5599 -0.2897
24922SOL     OW76206   3.293   4.347   3.862 -0.1005  0.2328  0.3179
24922SOL    HW176207   3.343   4.336   3.780 -0.3684  0.0272  0.1807
24922SOL    HW276208   3.247   4.263   3.873  0.2290  0.1226  0.8792
24923SOL     OW76209   2.835   2.619  10.964 -0.0561  0.4573 -0.5555
24923SOL    HW176210   2.881   2.569  10.896 -0.2726 -1.9965  0.9929
24923SOL    HW276211   2.884   2.602  11.044 -2.3740 -0.4608  0.7413
24924SOL     OW76212   4.297   3.426   9.533 -0.3095  0.0182  0.3208
24924SOL    HW176213   4.322   3.496   9.593 -0.3111 -0.4002  0.8183
24924SOL    HW276214   4.377   3.375   9.521 -0.3790 -0.0610  0.1903
24925SOL     OW76215   2.992   7.095   1.099  0.0479 -0.3777  0.1256
24925SOL    HW176216   3.010   7.173   1.151  1.4347  0.1055 -1.0500
24925SOL    HW276217   2.909   7.061   1.135 -0.4672  1.4906  0.7897
24926SOL     OW76218   2.153   7.779  10.516  0.3356  0.5091 -0.0279
24926SOL    HW176219   2.092   7.756  10.586 -0.3205  0.9323 -0.4423
24926SOL    HW276220   2.101   7.834  10.457  1.2507  1.2532 -0.1567
24927SOL     OW76221   5.951   0.040  10.829 -0.3478 -0.1838  0.1200
24927SOL    HW176222   5.933  -0.040  10.780 -0.5319 -0.9755  1.4257
24927SOL    HW276223   6.038   0.026  10.866 -0.3132  0.2927  0.2250
24928SOL     OW76224   4.027   6.296   5.078 -0.3214  0.4175 -0.4266
24928SOL    HW176225   4.101   6.356   5.085 -1.4453  1.7550  0.5769
24928SOL    HW276226   4.058   6.215   5.118  1.2260  0.2901 -1.7934
24929SOL     OW76227   2.188   1.720   6.501  0.3739 -0.3859  0.5945
24929SOL    HW176228   2.107   1.722   6.451 -0.3454 -1.2572  1.6987
24929SOL    HW276229   2.217   1.811   6.503  0.7176 -0.3588 -1.8155
24930SOL     OW76230   4.167   6.190   6.799 -0.2835  0.0374 -0.4757
24930SOL    HW176231   4.079   6.227   6.806 -0.4753 -0.1256 -1.7196
24930SOL    HW276232   4.152   6.101   6.765  0.4153  0.5239 -2.1628
24931SOL     OW76233   4.064   0.045   9.793 -0.2755 -0.1014  0.0570
24931SOL    HW176234   4.057  -0.020   9.863 -0.1884  0.4276  0.5709
24931SOL    HW276235   4.004   0.115   9.820  0.7830  0.7350  0.3191
24932SOL     OW76236   3.057   3.454   4.116 -0.4458 -0.2177  0.7720
24932SOL    HW176237   3.118   3.398   4.067  0.8343  0.2189  1.7979
24932SOL    HW276238   2.972   3.437   4.077 -0.0517 -2.6374  0.8265
24933SOL     OW76239   0.004   6.683   2.418 -0.1409  0.1926 -0.1987
24933SOL    HW176240  -0.023   6.597   2.385 -0.7499  0.4435 -0.3731
24933SOL    HW276241   0.087   6.700   2.374  0.8036 -0.9938  1.0401
24934SOL     OW76242   3.426   3.038   9.109 -0.4225  0.3681 -0.3152
24934SOL    HW176243   3.373   2.975   9.156  0.8633  0.8664  1.9587
24934SOL    HW276244   3.469   2.988   9.040 -2.0438 -0.4833 -0.7276
24935SOL     OW76245   0.709   6.509   8.032 -0.5311 -0.3573 -0.3798
24935SOL    HW176246   0.722   6.515   8.127 -0.5515 -0.2053 -0.3857
24935SOL    HW276247   0.715   6.416   8.013 -0.9183 -0.4273 -0.1738
24936SOL     OW76248   1.132   4.823   7.311  0.3455  0.3160 -0.3657
24936SOL    HW176249   1.169   4.880   7.378 -1.3001 -0.7777  1.5761
24936SOL    HW276250   1.052   4.868   7.283 -0.3294 -0.4335  0.3099
24937SOL     OW76251   5.461   7.285  10.465 -0.2755 -0.9841 -0.0758
24937SOL    HW176252   5.502   7.201  10.450  0.4694 -0.2773 -2.2880
24937SOL    HW276253   5.372   7.275  10.431  0.6744 -0.1108 -3.0936
24938SOL     OW76254   4.942   6.777   8.119  0.4647  0.1201 -0.1723
24938SOL    HW176255   5.001   6.702   8.115  0.1222 -0.3334  2.0409
24938SOL    HW276256   4.885   6.759   8.194  0.6887  2.8206  0.7393
24939SOL     OW76257   0.527   6.451   3.129  0.1790  0.1525  0.0145
24939SOL    HW176258   0.448   6.472   3.079  0.0811 -0.5937 -0.1501
24939SOL    HW276259   0.579   6.397   3.070  0.5113  0.0907  0.3629
24940SOL     OW76260   5.262   0.856   7.087 -0.3701  0.1521  0.3600
24940SOL    HW176261   5.260   0.933   7.030  0.0560 -0.3596 -0.3656
24940SOL    HW276262   5.317   0.883   7.161  0.1284  0.4044 -0.0948
24941SOL     OW76263   6.452   3.533   3.774  0.6728 -0.1528  0.0446
24941SOL    HW176264   6.472   3.469   3.842  3.1463  1.2484  0.7915
24941SOL    HW276265   6.445   3.482   3.694  0.2348 -1.5747  0.9518
24942SOL     OW76266   3.579   1.867   3.779 -0.2970  0.3665 -0.6735
24942SOL    HW176267   3.576   1.933   3.847  0.7944  1.8724 -2.0061
24942SOL    HW276268   3.488   1.839   3.768 -0.3347 -0.9749  2.2993
24943SOL     OW76269   5.706   1.394   6.586 -0.0025 -0.1423 -0.1948
24943SOL    HW176270   5.725   1.459   6.654 -1.5502  0.5956 -0.4167
24943SOL    HW276271   5.656   1.442   6.520  0.6091 -1.0828 -1.3835
24944SOL     OW76272   4.634   6.624   3.799 -0.4483  0.1408  0.4323
24944SOL    HW176273   4.659   6.573   3.876 -0.2467  0.1047  0.3437
24944SOL    HW276274   4.626   6.714   3.830  1.7092  0.4973  0.0713
24945SOL     OW76275   1.711   6.005  10.972  0.2894  0.2843 -0.1320
24945SOL    HW176276   1.763   6.031  10.895 -0.2547  0.1167 -0.5577
24945SOL    HW276277   1.776   5.993  11.041  0.8892 -0.4622 -0.8003
24946SOL     OW76278   5.286   1.511   6.472 -0.5339  0.5969  0.3261
24946SOL    HW176279   5.242   1.576   6.417  0.0801 -0.2811 -1.2647
24946SOL    HW276280   5.241   1.428   6.452  0.6091  0.0147  0.0716
24947SOL     OW76281   4.832   4.000   7.692  0.1390  0.9265  0.4223
24947SOL    HW176282   4.881   3.970   7.769  2.2218 -0.4428 -1.3364
24947SOL    HW276283   4.824   3.923   7.636  1.2819  2.4617 -2.0362
24948SOL     OW76284   3.136   2.760   2.196  0.0759  0.2795  0.2214
24948SOL    HW176285   3.102   2.807   2.120  2.4369  0.3864 -0.8654
24948SOL    HW276286   3.065   2.702   2.223 -0.3700 -0.8516 -3.0143
24949SOL     OW76287   7.768   5.633   4.382 -0.2037  0.1481  0.1072
24949SOL    HW176288   7.788   5.661   4.293 -1.5628  0.3991 -0.1517
24949SOL    HW276289   7.779   5.538   4.381  3.0281  0.4004  0.6006
24950SOL     OW76290   2.904   7.112   5.961  0.1645  0.5070 -0.0957
24950SOL    HW176291   2.979   7.098   6.019 -0.5540 -0.0791  0.7057
24950SOL    HW276292   2.906   7.206   5.943  0.1903  0.7666  1.1678
24951SOL     OW76293   7.181   6.270   7.767 -0.3446  0.0305 -0.4914
24951SOL    HW176294   7.180   6.189   7.819 -0.2759 -0.7592 -1.6747
24951SOL    HW276295   7.173   6.340   7.831  2.6718 -0.7527  0.9018
24952SOL     OW76296   5.906   0.001  11.721 -0.6163  0.1365 -0.6989
24952SOL    HW176297   5.926   0.073  11.781  2.0781  0.4081 -1.7492
24952SOL    HW276298   5.927  -0.078  11.771 -0.4105  0.2654 -0.5776
24953SOL     OW76299   0.065   1.180   3.197  0.1198 -0.2906 -0.5142
24953SOL    HW176300  -0.026   1.208   3.201  0.5331  0.9721  0.7650
24953SOL    HW276301   0.101   1.223   3.120 -0.4526 -1.1355 -1.2695
24954SOL     OW76302   4.384   2.461   6.460 -0.7905  0.0992 -0.3129
24954SOL    HW176303   4.299   2.431   6.493 -1.4776 -0.1874 -2.1919
24954SOL    HW276304   4.447   2.398   6.495 -1.3412  0.3377  1.1458
24955SOL     OW76305   2.718   2.526  10.085 -0.2537  0.1849 -0.0086
24955SOL    HW176306   2.626   2.527  10.113 -0.3119 -1.7418 -0.0032
24955SOL    HW276307   2.758   2.455  10.136  1.2360  0.9588 -0.0535
24956SOL     OW76308   6.759   1.869   4.044 -0.1111 -0.1795 -0.1759
24956SOL    HW176309   6.778   1.963   4.042  0.8514 -0.2876  1.8381
24956SOL    HW276310   6.838   1.827   4.009  0.3371 -0.3017  0.9412
24957SOL     OW76311   4.287   4.369  11.414 -0.2489  0.5585  0.3488
24957SOL    HW176312   4.260   4.454  11.379 -1.0982  0.7787  1.4822
24957SOL    HW276313   4.348   4.335  11.349  0.9359  2.4947  0.3469
24958SOL     OW76314   5.598   1.102   1.676  0.5336  0.2318 -0.1790
24958SOL    HW176315   5.609   1.034   1.742 -1.1212  0.4978  0.4108
24958SOL    HW276316   5.504   1.119   1.674  0.6060  0.6533 -2.1928
24959SOL     OW76317   3.011   6.438   1.507  0.1878  0.3285  0.0986
24959SOL    HW176318   2.992   6.350   1.540 -1.4307  1.5904  2.8180
24959SOL    HW276319   3.085   6.468   1.560 -0.8167  1.4505  0.9245
24960SOL     OW76320   2.420   4.080   4.785  0.1864 -0.6076 -0.5245
24960SOL    HW176321   2.401   4.056   4.875 -0.9190 -0.2652 -0.6506
24960SOL    HW276322   2.356   4.148   4.763  1.3774  0.3797 -1.1088
24961SOL     OW76323   7.565   7.412  10.345  0.2840  0.0043  0.3236
24961SOL    HW176324   7.506   7.467  10.293 -0.7833 -3.8303 -3.0284
24961SOL    HW276325   7.509   7.378  10.415 -0.6381 -0.9739 -0.8389
24962SOL     OW76326   4.478   1.626   0.919 -0.1270  0.5945 -0.2806
24962SOL    HW176327   4.424   1.594   0.847  0.2040 -2.7140  0.7805
24962SOL    HW276328   4.565   1.639   0.880 -0.4090  0.7893 -0.8576
24963SOL     OW76329   0.225   1.018   9.267 -0.5306  0.5625  0.1810
24963SOL    HW176330   0.199   1.103   9.230  0.6333  0.9861  0.2802
24963SOL    HW276331   0.216   1.029   9.361  0.2791  0.8242  0.2364
24964SOL     OW76332   3.895   5.174   9.314 -0.0534 -0.2267  0.1235
24964SOL    HW176333   3.856   5.138   9.234  0.2261  1.2163 -0.6999
24964SOL    HW276334   3.988   5.182   9.293 -0.0792  0.7623  0.3451
24965SOL     OW76335   1.260   2.296   1.590  0.4884 -0.3882 -0.7373
24965SOL    HW176336   1.276   2.217   1.539  1.0392 -1.6316  1.2567
24965SOL    HW276337   1.218   2.265   1.671 -1.0310  1.5621 -0.6828
24966SOL     OW76338   0.972   7.256   0.674 -0.7628  0.2182  0.4007
24966SOL    HW176339   0.974   7.243   0.579  2.7820 -2.1575  0.6034
24966SOL    HW276340   0.926   7.179   0.707  1.5238 -1.1339  0.6628
24967SOL     OW76341   7.897   2.442   2.240 -0.3211  0.4141 -0.5036
24967SOL    HW176342   7.802   2.427   2.242 -0.2188 -0.2651  2.0303
24967SOL    HW276343   7.926   2.401   2.158 -1.9010 -1.4871 -0.1743
24968SOL     OW76344   5.813   1.211  10.706  0.0980  0.3949 -0.0014
24968SOL    HW176345   5.803   1.306  10.693 -0.0527  0.3380 -0.3173
24968SOL    HW276346   5.724   1.180  10.720  0.2827  0.5056  1.6110
24969SOL     OW76347   3.823   3.784   5.476 -0.2779 -0.4798 -0.8541
24969SOL    HW176348   3.870   3.852   5.523  1.4801 -1.7185 -0.7048
24969SOL    HW276349   3.767   3.831   5.415 -1.0226  1.1108  0.9711
24970SOL     OW76350   1.418   0.865  11.878  0.1503  0.2183  0.2117
24970SOL    HW176351   1.359   0.835  11.948  0.3662  2.0377  1.2428
24970SOL    HW276352   1.471   0.789  11.857 -2.9260 -1.7420 -1.2398
24971SOL     OW76353   1.929   2.273   5.930  0.4227  0.0260  0.3614
24971SOL    HW176354   1.891   2.186   5.937  0.3489 -0.0925 -1.2830
24971SOL    HW276355   1.982   2.282   6.010  2.3061 -2.4549 -0.4666
24972SOL     OW76356   3.163   7.789   0.143  0.1508 -0.2685 -0.2568
24972SOL    HW176357   3.157   7.747   0.057 -0.3049 -2.6660  0.8476
24972SOL    HW276358   3.082   7.840   0.151 -0.1252 -0.5776 -0.9903
24973SOL     OW76359   6.150   0.009   2.572 -0.4713 -0.4189  0.6687
24973SOL    HW176360   6.066   0.029   2.531 -0.8841 -0.4499  1.4928
24973SOL    HW276361   6.136   0.023   2.666  0.7952  0.8202  0.7131
24974SOL     OW76362   2.357   5.137   1.953  0.1875  0.4469  0.0814
24974SOL    HW176363   2.385   5.090   2.031 -1.4933  1.6669  1.5250
24974SOL    HW276364   2.388   5.227   1.966 -1.0055  0.9135 -0.0910
24975SOL     OW76365   2.477   1.041  12.109 -0.6677 -0.1610  0.4121
24975SOL    HW176366   2.478   1.104  12.037  0.0825  0.9841  1.3853
24975SOL    HW276367   2.402   1.066  12.163 -0.1631  0.1258  0.9886
24976SOL     OW76368   4.956   1.409   0.005 -0.0460  0.1653 -0.6196
24976SOL    HW176369   4.880   1.387  -0.049 -0.7327 -0.8506  0.6960
24976SOL    HW276370   4.968   1.503  -0.007 -2.6054  0.7241  0.4571
24977SOL     OW76371   4.365   1.646   2.341  0.5556 -0.0588  0.1014
24977SOL    HW176372   4.315   1.705   2.285  1.6761  1.0787  0.2460
24977SOL    HW276373   4.391   1.701   2.415 -0.2226 -1.3271  1.3523
24978SOL     OW76374   3.661   6.317  10.776  0.1312  0.0969  0.2723
24978SOL    HW176375   3.632   6.344  10.689 -0.7481 -1.3998  0.0718
24978SOL    HW276376   3.737   6.262  10.760  0.0563 -0.0618  0.4580
24979SOL     OW76377   5.793   0.106  11.059 -0.6443  0.4621 -0.2616
24979SOL    HW176378   5.785   0.199  11.041  0.1852  0.8255  1.1340
24979SOL    HW276379   5.820   0.067  10.976  1.9412  1.8974 -0.1971
24980SOL     OW76380   3.669   2.640   9.535  0.0309  0.1705 -0.6074
24980SOL    HW176381   3.745   2.675   9.488  0.3111 -0.4975 -0.6535
24980SOL    HW276382   3.633   2.574   9.476 -0.1435 -0.0406 -0.2668
24981SOL     OW76383   0.140   2.847  11.502  0.2455  0.1204  0.3083
24981SOL    HW176384   0.139   2.829  11.408  0.8473 -2.0281  0.6628
24981SOL    HW276385   0.166   2.939  11.508 -1.0438  0.6813 -1.6385
24982SOL     OW76386   1.610   1.001   0.405  0.7620  0.2859 -0.1615
24982SOL    HW176387   1.538   1.045   0.451 -1.1847 -1.1923 -1.6464
24982SOL    HW276388   1.660   0.957   0.475 -2.1286 -1.9434  0.6727
24983SOL     OW76389   7.242   5.143   8.592  0.2562 -0.2284  0.0685
24983SOL    HW176390   7.198   5.228   8.598  0.9602  0.0586  2.0022
24983SOL    HW276391   7.179   5.086   8.548 -1.9699  0.2527  2.3864
24984SOL     OW76392   2.041   4.461  11.623  0.5804  0.2070  0.0985
24984SOL    HW176393   2.053   4.509  11.705 -0.0371 -0.4347  0.5661
24984SOL    HW276394   2.124   4.416  11.609  1.5519  2.1800 -0.8742
24985SOL     OW76395   6.974   0.694  10.827  0.3137 -0.2730 -0.3169
24985SOL    HW176396   7.004   0.657  10.745  0.7764  0.1226 -0.3301
24985SOL    HW276397   7.001   0.632  10.894 -0.8579 -1.0534 -0.5323
24986SOL     OW76398   2.910   3.975   4.817 -0.3666  0.0960  0.0993
24986SOL    HW176399   2.924   3.882   4.833 -1.5288  0.0556  1.0729
24986SOL    HW276400   2.991   4.017   4.847 -0.0660 -0.5576  0.2113
24987SOL     OW76401   3.938   6.959   0.747  0.0822 -0.3568 -0.6417
24987SOL    HW176402   3.877   6.936   0.818  1.0678  0.2933  0.4571
24987SOL    HW276403   3.885   7.009   0.685 -1.2717 -2.5822 -1.3707
24988SOL     OW76404   2.764   2.672   2.950 -0.3088  0.2257  1.0613
24988SOL    HW176405   2.819   2.595   2.966  1.3948  0.7199 -1.6784
24988SOL    HW276406   2.786   2.733   3.020 -0.2572 -1.0390  2.1835
24989SOL     OW76407   7.089   3.684  10.337 -0.1308  0.4673 -0.1933
24989SOL    HW176408   7.077   3.591  10.320  1.5518  0.2608 -0.4015
24989SOL    HW276409   7.003   3.723  10.320 -0.2218 -0.6577 -2.8755
24990SOL     OW76410   7.289   7.230  12.129 -0.6117 -0.1068 -0.1400
24990SOL    HW176411   7.378   7.195  12.119 -1.0636 -1.3748  0.0511
24990SOL    HW276412   7.256   7.235  12.039 -0.6038 -0.3705 -0.1606
24991SOL     OW76413   5.760   7.780   4.595  0.0455 -0.1251 -0.4746
24991SOL    HW176414   5.718   7.865   4.609  0.6721  0.1176 -0.0370
24991SOL    HW276415   5.691   7.716   4.612 -0.6313  0.3032 -1.5149
24992SOL     OW76416   1.305   0.003   4.057  0.1076  0.8056  0.2346
24992SOL    HW176417   1.391   0.022   4.019 -0.6186 -0.1104 -2.0148
24992SOL    HW276418   1.324  -0.064   4.124  1.1299  0.4288 -0.3998
24993SOL     OW76419   0.945   2.779  12.080  0.2932 -0.7117 -0.0662
24993SOL    HW176420   1.009   2.780  12.009 -0.5847  1.6455 -0.9393
24993SOL    HW276421   0.942   2.870  12.111 -2.9895 -0.5330 -0.4928
24994SOL     OW76422   6.240   4.005  11.432  0.4295  0.5044 -0.5744
24994SOL    HW176423   6.336   4.003  11.425  0.5304  0.2293  0.6608
24994SOL    HW276424   6.222   4.076  11.493 -0.1749  0.7304 -1.0104
24995SOL     OW76425   3.306   6.769   7.569  0.1079 -0.1747 -0.3337
24995SOL    HW176426   3.370   6.787   7.638  0.1176  0.5256 -0.5223
24995SOL    HW276427   3.244   6.842   7.574  0.6380  0.3989 -1.6785
24996SOL     OW76428   4.959   5.263   1.954 -0.2446 -0.1746  0.5333
24996SOL    HW176429   4.885   5.273   2.013 -1.4362  0.3162 -0.9855
24996SOL    HW276430   5.034   5.299   2.003 -1.0176 -0.5518  2.0345
24997SOL     OW76431   7.769   4.959   2.076 -0.0942 -0.5522  0.3981
24997SOL    HW176432   7.834   4.891   2.058  0.2905  0.0542 -0.5761
24997SOL    HW276433   7.821   5.034   2.104 -0.3120  0.1372 -0.9883
24998SOL     OW76434   4.201   6.614   5.791  0.0987 -0.1506 -0.0054
24998SOL    HW176435   4.150   6.678   5.841 -1.0143 -0.6201 -0.5198
24998SOL    HW276436   4.212   6.540   5.852 -0.9747 -0.5876 -0.3325
24999SOL     OW76437   4.201   4.199   5.297 -0.3604 -0.8477  0.1970
24999SOL    HW176438   4.208   4.294   5.309  0.9554 -1.0819  1.6161
24999SOL    HW276439   4.110   4.180   5.315 -0.8027  0.2128 -0.7599
25000SOL     OW76440   5.310   1.008   5.681 -0.3571  0.5659 -0.8115
25000SOL    HW176441   5.366   0.935   5.653 -0.9675 -0.5815  0.7908
25000SOL    HW276442   5.224   0.988   5.643 -0.5729  0.3315 -0.2102
25001SOL     OW76443   1.421   3.296   3.158  0.5827  0.0821 -0.4664
25001SOL    HW176444   1.419   3.382   3.118  0.8331 -0.6091 -2.0310
25001SOL    HW276445   1.486   3.304   3.228 -0.2622  1.4619  0.2005
25002SOL     OW76446   2.760   0.834  10.023 -0.4430  0.1696  0.2231
25002SOL    HW176447   2.696   0.774  10.062  0.0958 -0.6786 -0.1642
25002SOL    HW276448   2.722   0.858   9.938 -1.2059  1.3231  0.8702
25003SOL     OW76449   3.406   2.691   2.313 -0.4463 -0.2600 -0.7607
25003SOL    HW176450   3.419   2.719   2.404  0.4065 -1.4531 -0.4866
25003SOL    HW276451   3.341   2.752   2.278 -0.9907  0.0599  0.7249
25004SOL     OW76452   4.201   7.784   8.727  0.5454  0.0923  0.0005
25004SOL    HW176453   4.211   7.743   8.813  1.4116  2.7191  1.2814
25004SOL    HW276454   4.106   7.799   8.718  0.4257 -0.4359  0.3822
25005SOL     OW76455   6.639   2.553  12.423  0.4248  0.6299  0.6094
25005SOL    HW176456   6.626   2.507  12.341  0.1889 -1.7030  1.8731
25005SOL    HW276457   6.721   2.601  12.411  1.5634 -1.4119 -0.2678
25006SOL     OW76458   0.585   6.270  12.165  0.5847  0.4192  0.0669
25006SOL    HW176459   0.660   6.292  12.220  1.6783 -3.9683  0.7058
25006SOL    HW276460   0.624   6.249  12.079 -0.1924  0.3490 -0.2771
25007SOL     OW76461   3.502   5.503   3.602  0.3817 -0.3268 -0.2026
25007SOL    HW176462   3.580   5.449   3.589 -0.4968 -1.8006  0.4126
25007SOL    HW276463   3.450   5.455   3.666 -0.4177  1.3097  0.4359
25008SOL     OW76464   0.937   3.277   0.929 -0.3178 -0.1593  0.4682
25008SOL    HW176465   0.970   3.313   0.847 -0.4381  0.9665  0.8899
25008SOL    HW276466   0.867   3.218   0.903  2.3766 -3.2053 -0.5074
25009SOL     OW76467   3.843   6.153  11.841  0.1146  0.3115  0.0482
25009SOL    HW176468   3.775   6.127  11.902 -0.9999 -0.2117 -1.3749
25009SOL    HW276469   3.833   6.095  11.766  2.2820  0.0712 -0.1214
25010SOL     OW76470   2.453   4.833   9.723  0.0479  0.3051 -0.1111
25010SOL    HW176471   2.429   4.769   9.656 -1.1795  0.9195 -0.2996
25010SOL    HW276472   2.544   4.813   9.745  0.6495  0.3836 -2.3041
25011SOL     OW76473   7.593   0.359   0.981 -0.0722  0.0823 -0.6260
25011SOL    HW176474   7.656   0.427   1.003 -1.4492  1.2752 -0.2677
25011SOL    HW276475   7.513   0.383   1.028 -0.6761 -1.6428 -0.6964
25012SOL     OW76476   7.714   2.385   8.002 -0.3836 -0.0407  0.3265
25012SOL    HW176477   7.659   2.446   8.051  1.0669  2.2233 -0.7277
25012SOL    HW276478   7.799   2.429   7.994  0.5935 -1.9896 -0.9139
25013SOL     OW76479   5.271   7.720   9.489 -0.7699  0.4883  0.1589
25013SOL    HW176480   5.233   7.807   9.479 -0.0194  0.6766 -1.3008
25013SOL    HW276481   5.347   7.733   9.546 -0.9483  0.6973  0.3490
25014SOL     OW76482   1.238   0.773   5.050  0.2476  0.4051  0.3314
25014SOL    HW176483   1.314   0.717   5.034  1.3317  2.1412 -0.9903
25014SOL    HW276484   1.226   0.821   4.967  0.0392  2.8457  1.6775
25015SOL     OW76485   7.169   6.025   8.028  0.1125  0.2137  0.4544
25015SOL    HW176486   7.080   5.994   8.043  0.7549 -0.7052  3.0034
25015SOL    HW276487   7.210   5.955   7.976 -0.7543  0.9124 -1.2326
25016SOL     OW76488   3.225   7.530   8.187 -0.0908  0.8532 -0.0804
25016SOL    HW176489   3.205   7.552   8.278 -0.5774  0.2391 -0.0339
25016SOL    HW276490   3.143   7.543   8.140 -1.1450 -2.9487  0.3524
25017SOL     OW76491   1.843   1.743   9.494  0.2075 -0.1410 -0.7443
25017SOL    HW176492   1.881   1.656   9.502  0.3395 -0.1366 -1.2970
25017SOL    HW276493   1.804   1.744   9.406  0.1811  0.3476 -0.7273
25018SOL     OW76494   0.592   5.949   1.475  0.0069 -0.3194  0.0709
25018SOL    HW176495   0.650   6.023   1.454 -0.5122 -0.4217 -1.9343
25018SOL    HW276496   0.550   5.928   1.392 -2.6720 -0.4872  1.3585
25019SOL     OW76497   1.568   2.124   2.521 -0.0029  0.1923  0.3135
25019SOL    HW176498   1.512   2.171   2.459  1.1969 -0.0898 -1.0419
25019SOL    HW276499   1.517   2.047   2.546  0.0457 -0.4871 -1.5230
25020SOL     OW76500   1.634   1.452   7.215  0.1328 -0.4093 -0.4170
25020SOL    HW176501   1.696   1.399   7.164  1.1270 -1.5559  1.8431
25020SOL    HW276502   1.633   1.537   7.171  0.1993 -1.5827 -2.8614
25021SOL     OW76503   7.852   4.091  10.208  0.5310 -0.6599 -0.1864
25021SOL    HW176504   7.801   4.158  10.164 -0.3933 -2.1548 -1.4962
25021SOL    HW276505   7.795   4.014  10.208  1.2410 -1.2531  1.9742
25022SOL     OW76506   0.196   2.171   4.494 -0.1265  0.3544  0.4484
25022SOL    HW176507   0.219   2.081   4.472  0.5612  0.3697  1.0246
25022SOL    HW276508   0.106   2.182   4.465 -0.2930 -0.5965  0.5939
25023SOL     OW76509   1.508   3.755   4.249  0.5732 -0.1749 -0.0299
25023SOL    HW176510   1.581   3.801   4.209 -0.0749  0.9157  0.0202
25023SOL    HW276511   1.547   3.676   4.287  1.1955 -1.3311 -2.8434
25024SOL     OW76512   4.342   0.034   0.216 -0.1116 -0.8582  0.8884
25024SOL    HW176513   4.283  -0.021   0.164 -0.4668 -0.5305  0.9395
25024SOL    HW276514   4.301   0.038   0.302 -0.3802 -0.0628  0.7299
25025SOL     OW76515   7.903   0.286   9.044  0.3686 -0.2830  0.3798
25025SOL    HW176516   7.840   0.335   8.992  0.3610  1.3412  1.8279
25025SOL    HW276517   7.983   0.338   9.041  0.8398 -0.9680  0.6968
25026SOL     OW76518   2.251   7.666   6.022 -0.0250  0.4216  0.4141
25026SOL    HW176519   2.234   7.572   6.013  1.3432  0.1092  0.9385
25026SOL    HW276520   2.180   7.698   6.078  0.1488 -0.5307  1.1980
25027SOL     OW76521   0.301   6.369   4.646  0.1766 -0.2207 -0.8797
25027SOL    HW176522   0.320   6.439   4.584  0.9005  0.3725 -0.0052
25027SOL    HW276523   0.364   6.381   4.717 -1.8388  0.3172  0.9503
25028SOL     OW76524   1.478   3.815   8.712  0.6898 -0.0794 -0.1606
25028SOL    HW176525   1.560   3.863   8.702  0.1319  0.8541 -0.4560
25028SOL    HW276526   1.452   3.794   8.622 -0.0385  0.7961 -0.1747
25029SOL     OW76527   7.939   0.364  10.062 -0.1684 -0.1373 -0.0692
25029SOL    HW176528   7.968   0.428  10.127  2.0330 -0.3571 -0.7556
25029SOL    HW276529   7.937   0.281  10.110 -0.1332 -0.0446  0.0934
25030SOL     OW76530   3.193   7.339   5.081  0.1902 -0.0177  0.1953
25030SOL    HW176531   3.141   7.406   5.037  2.2601  1.9877  0.6353
25030SOL    HW276532   3.262   7.318   5.018  0.1276 -1.0490  0.4579
25031SOL     OW76533   0.709   1.498   2.754 -1.0321  0.4993  0.0999
25031SOL    HW176534   0.719   1.403   2.764 -0.7525  0.4065 -1.0085
25031SOL    HW276535   0.691   1.529   2.843 -0.5523 -0.5170  0.5673
25032SOL     OW76536   6.589   7.458   9.351 -0.2504 -0.3809  0.3156
25032SOL    HW176537   6.514   7.464   9.292  0.2987 -0.6181 -0.4213
25032SOL    HW276538   6.597   7.365   9.371 -0.1081 -0.3664  0.3284
25033SOL     OW76539   6.716   5.748   2.942 -0.1290 -0.3640 -0.0492
25033SOL    HW176540   6.809   5.752   2.961 -0.3624 -0.8813  1.3110
25033SOL    HW276541   6.677   5.705   3.018 -1.4936 -0.0547 -0.5304
25034SOL     OW76542   1.648   6.999   8.646 -0.1034  0.4088 -0.0022
25034SOL    HW176543   1.741   6.976   8.641  0.2330  1.7963 -0.3310
25034SOL    HW276544   1.623   7.015   8.555 -1.4819 -2.8651 -0.3514
25035SOL     OW76545   2.440   6.793  11.948  0.1315  0.3550 -0.4413
25035SOL    HW176546   2.440   6.823  12.039 -0.4261 -0.9469  0.0029
25035SOL    HW276547   2.491   6.860  11.901 -1.1061  2.0415  0.4823
25036SOL     OW76548   0.391   1.397   2.869 -0.1361  0.0360  0.0948
25036SOL    HW176549   0.356   1.465   2.926 -0.0008 -0.0155  0.2377
25036SOL    HW276550   0.442   1.444   2.803 -0.0365  0.0732  0.1982
25037SOL     OW76551   7.138   5.316   9.460 -0.9247 -0.1977  0.3002
25037SOL    HW176552   7.210   5.285   9.405 -0.1741 -1.3649  1.8716
25037SOL    HW276553   7.071   5.346   9.398  0.1364 -0.8746 -1.2146
25038SOL     OW76554   6.274   5.983   2.290 -0.3513 -0.0386  0.0210
25038SOL    HW176555   6.303   5.895   2.269  0.3748  0.5315 -1.4976
25038SOL    HW276556   6.185   5.989   2.256 -1.0823 -0.7094  1.6938
25039SOL     OW76557   1.664   6.843   2.116  0.1284  0.4515 -0.6416
25039SOL    HW176558   1.638   6.927   2.155  1.5272  0.5011  0.2408
25039SOL    HW276559   1.615   6.777   2.166 -0.4703  0.6970 -0.8967
25040SOL     OW76560   1.226   1.392  12.133 -0.0078  0.1419  0.5759
25040SOL    HW176561   1.319   1.400  12.155  0.8039 -3.4100 -0.8373
25040SOL    HW276562   1.215   1.450  12.057  0.7347  1.4023  1.3916
25041SOL     OW76563   5.830   4.459   3.162 -0.1908  0.1050  0.3999
25041SOL    HW176564   5.833   4.371   3.123  1.0107 -0.1894  1.1155
25041SOL    HW276565   5.845   4.518   3.089 -4.0883  0.0051 -0.7527
25042SOL     OW76566   5.979   1.749   3.901  0.0641  0.4374  0.6229
25042SOL    HW176567   5.948   1.755   3.991 -1.6833  1.6945 -0.0054
25042SOL    HW276568   5.923   1.809   3.852  0.3013 -0.9432 -1.4793
25043SOL     OW76569   3.577   1.305  10.549 -0.3511 -0.0116  0.0589
25043SOL    HW176570   3.635   1.359  10.497  1.9993  0.1944  2.6469
25043SOL    HW276571   3.607   1.215  10.534  0.4790  0.0643  1.1021
25044SOL     OW76572   6.782   4.820   0.450 -0.3009  0.0263  0.5424
25044SOL    HW176573   6.853   4.763   0.420  0.1546 -0.0199  1.6960
25044SOL    HW276574   6.761   4.789   0.538 -1.7158  0.0817  0.2447
25045SOL     OW76575   7.861   5.403   5.603 -0.3936  0.1084 -0.4613
25045SOL    HW176576   7.912   5.322   5.604  0.7645  0.8046  1.2747
25045SOL    HW276577   7.896   5.454   5.675 -0.6399  2.4625 -1.9142
25046SOL     OW76578   0.344   4.513   6.977 -0.3933  0.0683  0.2688
25046SOL    HW176579   0.357   4.505   6.883  0.6832  1.0501  0.3150
25046SOL    HW276580   0.400   4.586   7.003  0.2350 -0.9277  1.8610
25047SOL     OW76581   2.123   1.560   8.948 -0.2207 -0.0471 -0.4045
25047SOL    HW176582   2.144   1.521   9.033 -2.7466  0.2200  0.4113
25047SOL    HW276583   2.182   1.515   8.887  0.5843 -1.3750  1.2382
25048SOL     OW76584   6.193   5.648   8.773  0.9609  0.0251  0.2836
25048SOL    HW176585   6.167   5.588   8.843 -0.3287  1.2719  0.9183
25048SOL    HW276586   6.139   5.622   8.699 -0.2549  0.9460  0.8260
25049SOL     OW76587   1.083   2.717   3.767 -0.1788 -0.4773 -0.1336
25049SOL    HW176588   1.171   2.747   3.790 -1.0570  2.4963 -0.1625
25049SOL    HW276589   1.096   2.636   3.719  2.4485 -0.7453  0.8894
25050SOL     OW76590   3.705   4.209   1.167  0.2719 -0.7988 -0.0574
25050SOL    HW176591   3.636   4.215   1.233  1.4910 -0.2978  1.2233
25050SOL    HW276592   3.668   4.253   1.090  0.1270  2.0214  1.4813
25051SOL     OW76593   2.842   7.934   4.064 -0.2874  0.2569 -0.2796
25051SOL    HW176594   2.903   7.870   4.100  0.2708  1.2241  0.5438
25051SOL    HW276595   2.781   7.882   4.011 -0.8884 -1.1697  1.7190
25052SOL     OW76596   1.360   2.447   2.540 -0.7716  0.0107 -0.3043
25052SOL    HW176597   1.387   2.538   2.536 -2.3188  0.5023 -0.1443
25052SOL    HW276598   1.357   2.427   2.634  0.8810 -0.6443 -0.3597
25053SOL     OW76599   4.499   7.831   5.775 -0.0829 -0.1535 -0.0933
25053SOL    HW176600   4.439   7.876   5.714  0.4602  0.1139 -0.4387
25053SOL    HW276601   4.443   7.768   5.821 -0.4016 -0.7605 -1.2659
25054SOL     OW76602   7.527   4.409  12.131  0.4166 -0.0840 -0.2230
25054SOL    HW176603   7.555   4.318  12.118 -0.7328 -0.3282 -1.2245
25054SOL    HW276604   7.514   4.416  12.226  0.1224 -1.1137 -0.1667
25055SOL     OW76605   7.488   5.717   4.003 -0.1389  0.1252  0.0645
25055SOL    HW176606   7.576   5.712   4.040 -0.3473  0.4677  0.6227
25055SOL    HW276607   7.451   5.630   4.018 -0.3235  0.3469  0.9407
25056SOL     OW76608   7.724   3.712   6.019 -0.5478 -0.5051 -0.1580
25056SOL    HW176609   7.807   3.692   6.062 -0.6823 -1.2293 -0.2319
25056SOL    HW276610   7.720   3.653   5.944 -0.5345  0.4297 -0.9110
25057SOL     OW76611   4.262   7.500   3.909 -0.1975 -0.1635 -0.5746
25057SOL    HW176612   4.213   7.578   3.881  0.1867  0.0554 -0.6510
25057SOL    HW276613   4.199   7.429   3.905 -1.0407  0.4324  1.1800
25058SOL     OW76614   6.008   2.865   1.156  0.5596 -0.2173 -0.0967
25058SOL    HW176615   5.939   2.928   1.138  1.3116  0.7763  0.3918
25058SOL    HW276616   5.979   2.818   1.234  1.3568  1.6644  1.4085
25059SOL     OW76617   3.213   7.805  12.208 -0.2146  0.3012  0.1875
25059SOL    HW176618   3.204   7.716  12.243 -0.1302 -0.1845 -0.9883
25059SOL    HW276619   3.133   7.849  12.236 -0.6196 -0.3796  0.1361
25060SOL     OW76620   2.405   3.365   8.103  0.3866  0.1869 -0.2050
25060SOL    HW176621   2.317   3.386   8.074  0.4195  1.1774  0.3453
25060SOL    HW276622   2.398   3.354   8.197  0.7577 -0.2474 -0.2237
25061SOL     OW76623   4.773   2.581   1.954 -0.6214 -0.4448 -0.9348
25061SOL    HW176624   4.727   2.626   2.025 -1.4301  1.0048 -2.3042
25061SOL    HW276625   4.727   2.498   1.943  0.0905 -1.1126  0.7969
25062SOL     OW76626   2.267   6.245   3.305 -0.5993 -0.0978  0.2129
25062SOL    HW176627   2.305   6.331   3.283 -0.3281 -0.1626  0.4124
25062SOL    HW276628   2.174   6.255   3.290 -0.5014  0.0670 -0.2979
25063SOL     OW76629   2.502   5.674   7.863  0.0839 -0.1536 -0.3517
25063SOL    HW176630   2.533   5.631   7.783  1.1470  0.7567 -0.4549
25063SOL    HW276631   2.430   5.730   7.834  1.4972  1.4089 -1.0019
25064SOL     OW76632   6.879   3.962   2.294 -0.9082 -0.4754  0.2919
25064SOL    HW176633   6.860   3.924   2.380 -1.1877 -0.3241  0.2987
25064SOL    HW276634   6.814   4.032   2.284 -2.0829 -1.6777 -0.8260
25065SOL     OW76635   1.588   7.753   3.318  0.1973 -0.0784  0.1680
25065SOL    HW176636   1.618   7.667   3.348 -0.2387 -0.4297 -0.3728
25065SOL    HW276637   1.541   7.789   3.393  0.3817 -0.3154  0.4001
25066SOL     OW76638   6.214   4.417   8.063  0.3707 -0.6973  0.3784
25066SOL    HW176639   6.237   4.336   8.017  1.1525  0.2431 -0.9616
25066SOL    HW276640   6.287   4.477   8.043 -0.6341  0.6264  0.5526
25067SOL     OW76641   1.554   3.180   4.757  0.5120 -0.2989 -0.0971
25067SOL    HW176642   1.638   3.226   4.757  0.3896 -0.0719 -0.2157
25067SOL    HW276643   1.570   3.099   4.806  0.9558 -0.5429 -0.6388
25068SOL     OW76644   6.918   6.844  10.504  0.0150 -0.0818 -0.0555
25068SOL    HW176645   6.968   6.923  10.481 -1.0513  0.7006  0.2389
25068SOL    HW276646   6.829   6.876  10.519 -0.0607 -1.0508  1.9015
25069SOL     OW76647   7.698   6.388   0.918 -0.0417 -0.1431 -0.3702
25069SOL    HW176648   7.734   6.430   0.840 -1.2973  0.1173 -0.8192
25069SOL    HW276649   7.608   6.366   0.896 -0.5499  0.2772  1.1350
25070SOL     OW76650   6.299   0.953   0.939 -0.1368 -0.4605 -0.0294
25070SOL    HW176651   6.239   0.994   0.877  0.6611 -1.5057 -1.5438
25070SOL    HW276652   6.383   0.995   0.923  0.4166 -1.7926 -0.7661
25071SOL     OW76653   5.712   1.221  11.304 -0.6346 -0.4761 -0.1983
25071SOL    HW176654   5.703   1.165  11.228  1.2855  0.1893 -0.9846
25071SOL    HW276655   5.706   1.310  11.269  2.2265 -0.1127  0.0356
25072SOL     OW76656   1.557   2.822  10.690  0.1733 -0.1791  0.0079
25072SOL    HW176657   1.504   2.820  10.770 -1.4303 -1.9347 -1.0131
25072SOL    HW276658   1.616   2.748  10.699 -1.5079 -1.7963 -1.2821
25073SOL     OW76659   3.863   3.916   2.132 -0.2151 -0.2461  0.0928
25073SOL    HW176660   3.884   3.902   2.225 -0.0097 -2.6889 -0.2501
25073SOL    HW276661   3.916   3.992   2.107 -0.2696  0.4733  1.9471
25074SOL     OW76662   1.104   7.603   9.161 -0.0848  0.4608  0.3047
25074SOL    HW176663   1.158   7.528   9.137 -0.4701  1.4957 -5.1161
25074SOL    HW276664   1.014   7.571   9.152 -0.2507  1.4286 -2.0832
25075SOL     OW76665   3.622   0.259   2.106 -0.2197 -0.2825  0.3349
25075SOL    HW176666   3.699   0.266   2.162  0.1458  0.5733 -0.2492
25075SOL    HW276667   3.549   0.288   2.161 -0.1533 -1.1916  0.9210
25076SOL     OW76668   5.478   1.267  10.774 -0.0050 -0.0010 -0.0644
25076SOL    HW176669   5.411   1.215  10.819  0.2900  1.2923  2.0316
25076SOL    HW276670   5.432   1.347  10.747  0.4392  0.4658  0.5215
25077SOL     OW76671   4.315   6.684   6.386 -0.5340 -0.4046  0.3923
25077SOL    HW176672   4.319   6.675   6.290  1.0234  0.8640  0.3065
25077SOL    HW276673   4.325   6.777   6.402 -1.4143 -0.5272  1.7959
25078SOL     OW76674   6.985   7.704   6.561 -0.7311 -0.2462  0.7102
25078SOL    HW176675   7.038   7.766   6.512 -0.4922 -0.4998  0.6447
25078SOL    HW276676   6.972   7.745   6.647 -1.0088  0.1221  0.4914
25079SOL     OW76677   1.044   0.821   9.898  0.2734 -0.4003  0.2252
25079SOL    HW176678   1.126   0.870   9.889 -0.9099  1.7280  0.3851
25079SOL    HW276679   1.028   0.819   9.992  0.0051 -0.5782  0.1745
25080SOL     OW76680   2.168   5.037   7.252  0.2161  0.4539 -0.1381
25080SOL    HW176681   2.089   5.029   7.199 -0.0488  0.0117  0.3263
25080SOL    HW276682   2.212   4.952   7.244 -0.3353  0.0324  1.1579
25081SOL     OW76683   5.131   2.982   5.659 -0.1261 -0.1564  0.0158
25081SOL    HW176684   5.195   3.041   5.619  0.1206 -0.2330  0.2955
25081SOL    HW276685   5.079   3.040   5.716  0.3017 -0.2557  0.5124
25082SOL     OW76686   3.704   0.720   3.027  0.4846 -0.1015  0.0440
25082SOL    HW176687   3.667   0.762   3.104  2.2462  0.9346  0.3983
25082SOL    HW276688   3.760   0.788   2.988 -0.1960 -0.6721 -2.0371
25083SOL     OW76689   0.170   6.616   1.387 -0.0161 -0.3403 -0.1648
25083SOL    HW176690   0.096   6.579   1.339 -1.2628  0.0885  1.3448
25083SOL    HW276691   0.200   6.689   1.332 -1.2346 -0.0182 -0.4404
25084SOL     OW76692   7.338   1.011   4.700  0.3706 -0.3172 -0.2475
25084SOL    HW176693   7.354   0.992   4.608 -1.3412 -1.7854 -0.3120
25084SOL    HW276694   7.267   1.076   4.700  0.2980 -0.3929  0.0326
25085SOL     OW76695   0.945   1.805   3.426 -0.0873  0.0265 -0.3225
25085SOL    HW176696   0.997   1.884   3.410  0.8801 -0.4446  0.3851
25085SOL    HW276697   0.998   1.734   3.391  0.8310 -0.7219  2.3067
25086SOL     OW76698   0.438   6.271   3.323  0.8113  0.2275 -0.3446
25086SOL    HW176699   0.478   6.310   3.400 -0.4209  0.2604  0.2987
25086SOL    HW276700   0.469   6.325   3.250  0.3279  1.4984  0.3573
25087SOL     OW76701   0.529   5.054   3.525 -0.0404 -0.0637  0.4009
25087SOL    HW176702   0.493   5.140   3.504 -1.5923 -0.3549  1.6881
25087SOL    HW276703   0.489   4.995   3.460  0.2966  0.0322  0.1025
25088SOL     OW76704   3.486   3.146   7.462  0.0102  0.2541 -0.1381
25088SOL    HW176705   3.536   3.192   7.529  1.3845 -1.6192  0.2007
25088SOL    HW276706   3.535   3.160   7.381  0.2693 -0.3260 -0.0881
25089SOL     OW76707   4.539   5.979   1.296 -0.0481  0.2718 -0.0132
25089SOL    HW176708   4.595   5.911   1.257  1.7231  1.2092  0.7796
25089SOL    HW276709   4.580   6.061   1.270 -3.8372  1.3778 -3.6240
25090SOL     OW76710   6.426   7.081   8.145  0.0822  0.2521 -0.1629
25090SOL    HW176711   6.493   7.049   8.084 -0.0492 -0.6857  0.1698
25090SOL    HW276712   6.348   7.089   8.091  0.5003  1.5724 -0.6047
25091SOL     OW76713   4.719   4.379  10.916 -0.5263 -0.0967 -0.2448
25091SOL    HW176714   4.799   4.417  10.953 -0.3831 -0.1716 -0.4742
25091SOL    HW276715   4.651   4.443  10.936 -0.6020 -0.4804  0.8244
25092SOL     OW76716   2.238   0.349   6.429 -0.2069 -0.3975 -0.2451
25092SOL    HW176717   2.213   0.333   6.520 -0.1168 -0.5003 -0.2374
25092SOL    HW276718   2.191   0.429   6.405 -0.1614 -0.3189 -0.0796
25093SOL     OW76719   6.006   6.654   9.575 -0.0944 -0.2890 -0.0178
25093SOL    HW176720   5.934   6.625   9.518  0.6617 -1.0324 -0.6212
25093SOL    HW276721   6.057   6.713   9.520  0.2649 -0.4849  0.1066
25094SOL     OW76722   7.194   1.714   8.811 -0.1221  0.8940  0.3226
25094SOL    HW176723   7.167   1.625   8.832  1.8040  0.1028 -0.3793
25094SOL    HW276724   7.174   1.724   8.718 -0.5997  1.3208  0.4638
25095SOL     OW76725   4.366   6.640   0.244  0.3781 -0.4525 -0.5217
25095SOL    HW176726   4.307   6.698   0.291  0.2868  0.4877 -1.7609
25095SOL    HW276727   4.308   6.580   0.196  0.4140  0.2547 -1.4709
25096SOL     OW76728   5.789   0.467   5.500  0.0279  0.3410 -0.4163
25096SOL    HW176729   5.859   0.433   5.556  0.4536  1.5913 -0.1382
25096SOL    HW276730   5.772   0.397   5.438  2.7934  0.5867 -1.6297
25097SOL     OW76731   7.821   3.005   0.810  0.0848  0.1311 -0.4686
25097SOL    HW176732   7.729   2.980   0.804  0.0854  0.2882 -1.2949
25097SOL    HW276733   7.827   3.057   0.890 -0.4043 -0.4466 -0.0502
25098SOL     OW76734   1.245   7.977   5.971 -0.2545 -0.1416  0.3888
25098SOL    HW176735   1.263   7.938   5.885 -0.3870 -1.2045  0.8335
25098SOL    HW276736   1.197   7.910   6.019  1.1805 -0.1994  1.8544
25099SOL     OW76737   7.622   5.777   5.099  0.1209  0.0545 -0.3965
25099SOL    HW176738   7.704   5.798   5.143  0.9731 -2.6262 -0.4902
25099SOL    HW276739   7.574   5.724   5.162 -0.7560  0.1310 -0.9849
25100SOL     OW76740   6.425   7.299   3.416  0.1976 -0.3239 -0.1661
25100SOL    HW176741   6.379   7.225   3.455 -2.3681  1.8855  1.3718
25100SOL    HW276742   6.356   7.363   3.398  2.2105  1.5232 -1.9330
25101SOL     OW76743   1.909   3.827   1.287 -0.0949 -0.3920  0.2644
25101SOL    HW176744   1.863   3.744   1.298 -0.2967 -0.3712 -0.3989
25101SOL    HW276745   1.840   3.893   1.280  0.0401 -0.3011 -0.2559
25102SOL     OW76746   0.941   0.599   8.578  0.3660  0.0818  0.0099
25102SOL    HW176747   1.030   0.578   8.551 -0.1774 -1.4582 -0.7019
25102SOL    HW276748   0.935   0.694   8.572  1.4273  0.0726 -1.6186
25103SOL     OW76749   2.290   6.741   4.336  0.0341  0.0747 -0.1943
25103SOL    HW176750   2.262   6.652   4.316 -0.1835 -0.1789  1.1506
25103SOL    HW276751   2.238   6.766   4.413  1.0845  0.8383  0.2939
25104SOL     OW76752   3.787   0.876   3.773  0.2039  0.3640  0.4100
25104SOL    HW176753   3.816   0.815   3.706 -2.4686 -1.1022  0.4933
25104SOL    HW276754   3.771   0.822   3.850 -1.9398  1.1655  0.5875
25105SOL     OW76755   1.668   3.027  11.996 -0.2027  0.5343  0.4606
25105SOL    HW176756   1.701   3.116  11.983  1.0149 -0.0348 -0.5970
25105SOL    HW276757   1.577   3.039  12.024 -0.6863  2.0900 -1.5221
25106SOL     OW76758   4.829   3.975   0.304 -0.3274  0.7254 -0.2472
25106SOL    HW176759   4.816   3.971   0.399 -0.7373  1.8379 -0.2445
25106SOL    HW276760   4.827   3.883   0.276 -3.1768  0.4739  0.4285
25107SOL     OW76761   4.940   1.605   3.459 -1.0189  0.1593 -0.2126
25107SOL    HW176762   4.988   1.594   3.541 -1.3014 -0.7020 -0.1527
25107SOL    HW276763   4.934   1.517   3.422 -0.3460  0.6068 -1.4789
25108SOL     OW76764   3.549   2.863   8.943  0.4748 -0.3105 -0.0636
25108SOL    HW176765   3.587   2.809   8.873  1.3859  1.6789 -1.2026
25108SOL    HW276766   3.614   2.860   9.013  1.4005  0.6971 -0.8397
25109SOL     OW76767   5.691   4.372   4.927 -0.0834  0.2277  0.2668
25109SOL    HW176768   5.734   4.394   5.010 -0.6947  1.8261  0.1988
25109SOL    HW276769   5.760   4.381   4.861  0.5662 -1.6697  0.6312
25110SOL     OW76770   2.681   4.961   2.017  0.1024 -0.8186  0.1109
25110SOL    HW176771   2.750   4.933   1.958 -1.8402 -0.6196 -2.4180
25110SOL    HW276772   2.702   5.052   2.038  0.1792 -0.4720 -1.3550
25111SOL     OW76773   7.452   3.907   2.828  0.2141 -0.7576 -0.3701
25111SOL    HW176774   7.396   3.834   2.801  0.8131 -0.5311 -2.3185
25111SOL    HW276775   7.525   3.865   2.874 -1.0812 -1.1058  1.4734
25112SOL     OW76776   6.243   0.243   9.740 -0.0033  0.3531  0.1128
25112SOL    HW176777   6.278   0.259   9.827 -1.2790 -0.1397  0.7524
25112SOL    HW276778   6.157   0.286   9.740 -1.2485 -1.9734  0.1111
25113SOL     OW76779   0.848   4.791   2.615  0.1514 -0.1444 -0.2622
25113SOL    HW176780   0.870   4.705   2.579 -0.8674 -1.1227  1.3096
25113SOL    HW276781   0.927   4.819   2.661  0.6582  0.0121 -1.2143
25114SOL     OW76782   6.761   5.700  11.351  0.0352  0.1368  0.4392
25114SOL    HW176783   6.774   5.793  11.368  1.0343  0.0775  0.0717
25114SOL    HW276784   6.764   5.693  11.256  1.1438 -0.4099  0.4938
25115SOL     OW76785   2.794   3.374   3.488 -0.0869  0.1477 -0.0792
25115SOL    HW176786   2.834   3.459   3.507  0.8739 -0.1026 -0.8865
25115SOL    HW276787   2.785   3.332   3.573 -1.3595  1.3849  0.4269
25116SOL     OW76788   4.781   0.045   8.633  0.3247  0.7188  0.1092
25116SOL    HW176789   4.686   0.060   8.628 -0.1330 -1.3824  1.1740
25116SOL    HW276790   4.789  -0.035   8.685  2.7094  0.8911  0.0825
25117SOL     OW76791   7.438   1.121  11.088 -0.0601  0.1236  0.3999
25117SOL    HW176792   7.346   1.139  11.068  0.2392  2.7099  1.0741
25117SOL    HW276793   7.439   1.027  11.109 -2.7673  0.2207  1.4542
25118SOL     OW76794   2.491   3.103   3.264  0.1185 -0.3932 -0.6276
25118SOL    HW176795   2.501   3.192   3.298 -0.1491  0.0227 -1.5905
25118SOL    HW276796   2.404   3.102   3.224 -0.9847 -1.8838  1.5875
25119SOL     OW76797   3.297   4.346   4.156 -0.8207 -0.1873  0.3071
25119SOL    HW176798   3.280   4.334   4.063 -1.2921 -2.5865  0.6377
25119SOL    HW276799   3.213   4.328   4.199 -1.3348  3.3607  1.1644
25120SOL     OW76800   6.418   2.964   7.091  0.6871  0.0554 -0.1798
25120SOL    HW176801   6.418   2.987   6.999  1.3370 -1.5922 -0.6367
25120SOL    HW276802   6.497   2.911   7.102  1.0470  0.8681  1.5026
25121SOL     OW76803   5.844   4.934   6.943  0.0271  0.1622 -0.2788
25121SOL    HW176804   5.931   4.967   6.920  0.2061 -0.2764 -0.2526
25121SOL    HW276805   5.783   5.001   6.913  0.3689  0.4006 -0.4362
25122SOL     OW76806   0.728   5.161   7.205  0.2874 -0.4623  0.5424
25122SOL    HW176807   0.726   5.151   7.110  0.4406  0.7455  0.3948
25122SOL    HW276808   0.733   5.071   7.239  1.6198 -0.8623 -0.6161
25123SOL     OW76809   1.040   7.760   0.927 -0.0742  0.3099  0.5560
25123SOL    HW176810   1.048   7.669   0.899 -0.3808  0.7513 -1.0597
25123SOL    HW276811   1.105   7.769   0.998  0.8978 -0.8130 -0.1505
25124SOL     OW76812   2.287   7.406   5.175  0.2813  0.1585  0.8186
25124SOL    HW176813   2.281   7.331   5.115 -1.3641 -0.7087  1.9551
25124SOL    HW276814   2.209   7.458   5.156  1.5710  1.7883 -0.1664
25125SOL     OW76815   3.829   1.930  10.915  0.2405  0.0485 -0.1245
25125SOL    HW176816   3.737   1.941  10.936  0.4965 -0.0838  1.1199
25125SOL    HW276817   3.845   1.992  10.843 -1.4287 -1.8616 -2.2973
25126SOL     OW76818   4.960   2.389   9.163 -0.3499 -0.2597 -0.0602
25126SOL    HW176819   4.867   2.384   9.138 -0.0684  0.4881 -1.3549
25126SOL    HW276820   5.007   2.384   9.079  0.7423  0.2656  0.5095
25127SOL     OW76821   0.998   0.275   9.387  0.5070 -0.7839  0.2732
25127SOL    HW176822   1.056   0.345   9.356 -1.8910  0.4855 -1.6758
25127SOL    HW276823   0.918   0.320   9.413 -2.1252 -2.8385 -3.4774
25128SOL     OW76824   6.601   1.575  11.034 -0.0329  0.4490 -0.5929
25128SOL    HW176825   6.612   1.625  11.115 -0.3667 -0.6305  0.1498
25128SOL    HW276826   6.525   1.520  11.050  0.7721 -0.8608 -1.0634
25129SOL     OW76827   7.617   1.609   3.258  0.3422  0.1110 -0.6994
25129SOL    HW176828   7.617   1.519   3.291  1.3944  0.6555  0.9123
25129SOL    HW276829   7.650   1.602   3.169  1.0248 -1.0486 -0.3771
25130SOL     OW76830   0.242   7.871   3.914 -0.2872  0.6735  0.2359
25130SOL    HW176831   0.153   7.843   3.895 -0.2841 -0.3455  1.5883
25130SOL    HW276832   0.297   7.820   3.854 -0.5326  0.3228  0.3051
25131SOL     OW76833   5.107   2.959   3.505  0.3990  0.1253  0.8661
25131SOL    HW176834   5.174   2.918   3.451  1.6062  1.3674  1.3571
25131SOL    HW276835   5.120   3.053   3.493 -1.8988  0.4219  0.2250
25132SOL     OW76836   6.360   5.229   8.567 -0.4428  0.5637 -0.6234
25132SOL    HW176837   6.399   5.215   8.653  0.8257  0.8663 -1.1290
25132SOL    HW276838   6.359   5.143   8.527 -1.2070  0.3884 -0.2613
25133SOL     OW76839   5.912   5.834   2.007  0.5941 -0.3824  0.3508
25133SOL    HW176840   5.948   5.802   1.925  0.0079  1.0240 -0.5054
25133SOL    HW276841   5.821   5.855   1.987  1.2948  3.3813  0.2515
25134SOL     OW76842   2.398   0.055  10.094  0.2282 -0.0414 -0.3910
25134SOL    HW176843   2.304   0.047  10.106  0.1533  1.1249 -0.0994
25134SOL    HW276844   2.432  -0.034  10.107 -0.4074  0.1164  3.4669
25135SOL     OW76845   0.347   2.754   7.919 -0.2123  0.7208  0.1270
25135SOL    HW176846   0.254   2.734   7.918 -0.6824  2.1184  3.0519
25135SOL    HW276847   0.381   2.704   7.993  1.2862  0.5821 -0.6258
25136SOL     OW76848   4.149   0.287   2.300 -0.0225  0.1589 -0.4163
25136SOL    HW176849   4.228   0.248   2.339  0.3665  0.8497 -0.4851
25136SOL    HW276850   4.183   0.337   2.226 -0.4830  0.7704 -0.2188
25137SOL     OW76851   4.711   2.116  11.623  0.6879  0.1605  0.1959
25137SOL    HW176852   4.782   2.052  11.616 -0.5635 -1.2611 -0.2094
25137SOL    HW276853   4.700   2.150  11.534  0.2668 -0.3152  0.0611
25138SOL     OW76854   1.446   6.227   1.274 -0.2780  0.1860  0.0062
25138SOL    HW176855   1.469   6.153   1.218  0.1304 -1.1389  1.8239
25138SOL    HW276856   1.356   6.211   1.302 -0.2758  0.5040  0.2160
25139SOL     OW76857   4.501   4.734   1.698  0.0089  0.3766 -0.6276
25139SOL    HW176858   4.501   4.797   1.626 -2.7495  2.6907  1.1621
25139SOL    HW276859   4.414   4.695   1.695  0.7607 -1.4443 -0.0716
25140SOL     OW76860   0.828   4.973  12.312 -0.3877 -0.1051 -0.0684
25140SOL    HW176861   0.755   4.916  12.285 -0.4154 -0.3578  0.5189
25140SOL    HW276862   0.903   4.914  12.320  0.0238  0.2357 -1.1667
25141SOL     OW76863   3.814   7.565   3.595 -0.1728  0.1860 -0.1085
25141SOL    HW176864   3.844   7.608   3.676 -0.6346  1.0721 -0.3886
25141SOL    HW276865   3.730   7.527   3.618 -0.2129  0.2706 -0.1128
25142SOL     OW76866   4.025   2.577  10.851 -0.2754  0.3692 -0.2742
25142SOL    HW176867   4.028   2.520  10.927  0.9529  0.8504  0.0566
25142SOL    HW276868   3.949   2.546  10.801 -0.5690 -0.5190  0.6843
25143SOL     OW76869   4.745   2.437   2.949 -0.0724 -0.0343 -0.1253
25143SOL    HW176870   4.745   2.369   2.881  0.5603 -0.0087 -0.1602
25143SOL    HW276871   4.762   2.390   3.030  1.1695  0.1536 -0.2487
25144SOL     OW76872   0.399   4.698   1.941 -0.3505 -0.2239 -0.2980
25144SOL    HW176873   0.432   4.775   1.986 -0.6889  1.6983 -3.0504
25144SOL    HW276874   0.417   4.625   2.000  1.2051  1.7751  1.8588
25145SOL     OW76875   0.458   3.197  10.506  0.4783 -0.3660  0.3636
25145SOL    HW176876   0.389   3.248  10.464 -0.9113 -2.8132 -0.5765
25145SOL    HW276877   0.477   3.244  10.587 -1.4890  1.0016  0.1172
25146SOL     OW76878   4.927   4.603   3.131 -0.1157  0.1869  0.1248
25146SOL    HW176879   4.942   4.697   3.136 -0.2850  0.2233 -0.0443
25146SOL    HW276880   4.990   4.566   3.193  0.5957  0.3505 -0.4694
25147SOL     OW76881   7.501   7.221   8.882 -0.1337  0.7819 -0.3471
25147SOL    HW176882   7.491   7.226   8.977  0.3570  0.2098 -0.2573
25147SOL    HW276883   7.443   7.150   8.855 -0.3993  1.0565 -0.4943
25148SOL     OW76884   6.599   0.721  11.960  0.1872  0.8071  0.0595
25148SOL    HW176885   6.686   0.744  11.929 -0.0623 -0.5447 -1.7856
25148SOL    HW276886   6.546   0.714  11.881 -0.7598 -1.6791  0.8110
25149SOL     OW76887   0.385   4.632  10.073 -0.8226 -0.3421 -0.7070
25149SOL    HW176888   0.430   4.565  10.124  0.7058 -0.4727 -2.1637
25149SOL    HW276889   0.408   4.714  10.117 -1.4231 -0.6192  0.1542
25150SOL     OW76890   3.686   2.743  10.664  0.0807  0.4037  0.1712
25150SOL    HW176891   3.737   2.777  10.737  0.6467  0.4872 -0.2636
25150SOL    HW276892   3.709   2.798  10.589 -0.1495  0.0334 -0.1818
25151SOL     OW76893   2.326   5.284   8.531 -0.0697 -0.1118  0.0557
25151SOL    HW176894   2.266   5.349   8.567  0.2424 -0.4548  1.2524
25151SOL    HW276895   2.410   5.303   8.574  0.1904 -0.8591 -0.1082
25152SOL     OW76896   0.667   0.790   1.695 -0.4277  0.1458  0.1077
25152SOL    HW176897   0.638   0.802   1.604  2.8246  0.3522 -1.0299
25152SOL    HW276898   0.634   0.703   1.719 -3.3166  1.0072 -0.3522
25153SOL     OW76899   7.498   7.754   8.937 -0.1423 -0.2576 -0.5578
25153SOL    HW176900   7.576   7.784   8.984 -0.6885  0.5751 -0.1616
25153SOL    HW276901   7.433   7.742   9.005 -1.0889  1.4110 -1.1110
25154SOL     OW76902   0.230   7.734  10.158  0.6575  0.2979  0.1144
25154SOL    HW176903   0.271   7.670  10.216 -0.1664 -0.8942 -0.5701
25154SOL    HW276904   0.200   7.804  10.216  1.8589  0.2414  0.8368
25155SOL     OW76905   0.874   1.935   9.086 -0.4060 -0.0971 -0.0379
25155SOL    HW176906   0.809   1.882   9.040  0.6588 -1.7416  0.2764
25155SOL    HW276907   0.871   1.905   9.176  1.4910 -0.9710 -0.2223
25156SOL     OW76908   7.318   6.307   7.520  0.5251 -0.1153 -0.1462
25156SOL    HW176909   7.257   6.311   7.593 -0.4531  1.7810 -0.9978
25156SOL    HW276910   7.265   6.321   7.442  1.8263  0.0676 -1.0455
25157SOL     OW76911   0.325   7.870   8.164 -0.1518  0.1805 -0.3252
25157SOL    HW176912   0.232   7.857   8.186 -0.1012  2.4115  1.6231
25157SOL    HW276913   0.372   7.817   8.228 -0.0701 -0.5319 -0.9725
25158SOL     OW76914   3.536   5.465   1.164 -0.1501 -0.1351 -0.1469
25158SOL    HW176915   3.592   5.394   1.133  1.3171  1.0376 -0.3101
25158SOL    HW276916   3.520   5.444   1.256 -1.5724 -1.7795 -0.7176
25159SOL     OW76917   5.655   0.291   6.663 -0.2936 -0.5663 -0.0658
25159SOL    HW176918   5.638   0.373   6.708 -0.2451 -0.4023 -0.3437
25159SOL    HW276919   5.581   0.281   6.602 -0.5784 -0.9945  0.3409
25160SOL     OW76920   3.153   5.974  11.539 -0.0145 -0.5871 -0.0976
25160SOL    HW176921   3.146   6.025  11.621  1.5465 -0.6722  0.1071
25160SOL    HW276922   3.099   5.897  11.555 -2.3889  0.9055 -0.3823
25161SOL     OW76923   5.360   0.721   9.171 -0.5463  0.2900 -0.6772
25161SOL    HW176924   5.423   0.786   9.203  0.5051 -0.6178 -0.8633
25161SOL    HW276925   5.309   0.769   9.104 -0.2098  1.0962 -0.3730
25162SOL     OW76926   0.573   6.785   5.069  0.0506  0.0531  0.3767
25162SOL    HW176927   0.636   6.721   5.034 -1.1361 -0.7943 -0.2770
25162SOL    HW276928   0.556   6.844   4.996 -2.1920 -1.5357 -0.5024
25163SOL     OW76929   6.709   1.138   3.803  0.0333  0.1036  0.0055
25163SOL    HW176930   6.720   1.057   3.754 -1.1167 -0.9016  1.3132
25163SOL    HW276931   6.647   1.115   3.873  0.6618  1.7743  1.1735
25164SOL     OW76932   0.838   6.199   2.266 -0.0327 -0.1264 -0.3851
25164SOL    HW176933   0.753   6.242   2.254  0.1040  0.0900 -0.5985
25164SOL    HW276934   0.839   6.174   2.358  0.3749  1.4378  0.0783
25165SOL     OW76935   7.709   1.696   6.174  0.4833  0.0325 -0.4367
25165SOL    HW176936   7.709   1.638   6.098 -0.0498  0.0122 -0.4278
25165SOL    HW276937   7.752   1.776   6.144 -0.9133  0.5370 -1.1618
25166SOL     OW76938   0.735   5.898   2.483 -0.1562 -0.0237  0.0948
25166SOL    HW176939   0.645   5.912   2.453 -0.6179 -1.1984  0.8758
25166SOL    HW276940   0.782   5.867   2.406 -1.1711 -2.3571  0.3337
25167SOL     OW76941   4.868   5.734  10.435 -0.2530  0.2788  0.1544
25167SOL    HW176942   4.818   5.799  10.385  0.1097  0.5603  0.1497
25167SOL    HW276943   4.950   5.779  10.456  0.9464 -0.9224 -1.7246
25168SOL     OW76944   1.453   2.550   6.716 -0.0267 -0.0403  0.4184
25168SOL    HW176945   1.432   2.578   6.626 -0.3928  0.1764  0.5656
25168SOL    HW276946   1.376   2.500   6.744 -1.0683  2.0228  1.4981
25169SOL     OW76947   3.884   6.461   1.223  0.1905 -0.4952 -0.8090
25169SOL    HW176948   3.789   6.467   1.231  0.2150  2.2272 -1.8075
25169SOL    HW276949   3.911   6.417   1.304 -1.8481 -0.7782 -0.2170
25170SOL     OW76950   2.629   6.852   3.818  0.2075 -0.0221 -0.5561
25170SOL    HW176951   2.653   6.944   3.810 -1.4690  0.4013 -1.3383
25170SOL    HW276952   2.656   6.812   3.735 -0.1875  0.0534 -0.7221
25171SOL     OW76953   2.918   4.219   0.986 -0.1979 -0.4336  0.2990
25171SOL    HW176954   2.908   4.262   1.071  1.0191  0.4253  0.0434
25171SOL    HW276955   2.995   4.261   0.947  0.4757 -2.2066 -0.3839
25172SOL     OW76956   4.756   0.375   7.421  0.1353  0.3423 -0.0076
25172SOL    HW176957   4.744   0.284   7.451  0.5827  0.5369  0.7674
25172SOL    HW276958   4.850   0.387   7.416  0.1863  1.6397  2.6790
25173SOL     OW76959   3.190   1.251   6.154 -0.8768  0.6993 -1.0720
25173SOL    HW176960   3.281   1.221   6.153 -0.7284  0.7565  1.8510
25173SOL    HW276961   3.195   1.343   6.130  0.4644  1.7434  2.4851
25174SOL     OW76962   5.162   7.143   7.792  0.0791  0.0943  0.9283
25174SOL    HW176963   5.246   7.120   7.832  0.6907  1.6391  0.6049
25174SOL    HW276964   5.127   7.212   7.849  0.3107  1.3472 -0.3840
25175SOL     OW76965   0.949   0.431  11.508  0.3257 -0.4314  0.7822
25175SOL    HW176966   0.989   0.443  11.422  0.1869 -0.2637  0.7415
25175SOL    HW276967   0.926   0.520  11.537 -1.1195 -0.6123  0.2794
25176SOL     OW76968   6.259   2.087   1.860 -0.8093  0.3514  0.3505
25176SOL    HW176969   6.244   2.178   1.837 -1.9048  0.4833  1.5103
25176SOL    HW276970   6.172   2.047   1.862 -0.3014 -0.9285 -0.8615
25177SOL     OW76971   4.480   6.603   9.742  0.4316 -0.3175  0.1926
25177SOL    HW176972   4.489   6.697   9.756 -2.4850 -0.0034  0.5234
25177SOL    HW276973   4.476   6.593   9.646  0.0312  0.0026  0.1742
25178SOL     OW76974   0.970   0.414   7.631  0.0139 -0.0029  0.2355
25178SOL    HW176975   1.000   0.502   7.609 -0.3202  0.3076  0.9968
25178SOL    HW276976   0.960   0.370   7.546 -0.6080  0.9393 -0.1938
25179SOL     OW76977   3.505   1.780   2.245 -0.4938  0.1387 -0.1770
25179SOL    HW176978   3.426   1.800   2.195 -0.3942 -0.0761 -0.4192
25179SOL    HW276979   3.542   1.703   2.202 -1.5380 -1.3561  1.4867
25180SOL     OW76980   3.772   6.512   8.344 -0.6409 -0.2342 -0.6850
25180SOL    HW176981   3.792   6.585   8.286 -0.1081 -0.3365 -0.6392
25180SOL    HW276982   3.682   6.526   8.372 -0.3096  0.8009 -0.0987
25181SOL     OW76983   0.843   1.344   1.088 -0.1692  0.0547  0.3737
25181SOL    HW176984   0.816   1.436   1.085  1.5549  0.5791 -1.0191
25181SOL    HW276985   0.775   1.298   1.039 -0.5607  0.7284  0.2674
25182SOL     OW76986   7.726   3.624   0.539 -0.0736 -0.0969 -0.0068
25182SOL    HW176987   7.633   3.644   0.532  0.5521  3.5695  0.2275
25182SOL    HW276988   7.751   3.655   0.626  1.0802 -2.8005  0.7334
25183SOL     OW76989   6.927   1.499   2.064  0.1070  0.3220 -0.2388
25183SOL    HW176990   6.892   1.577   2.020 -0.6929  0.1857  0.1302
25183SOL    HW276991   7.021   1.503   2.048  0.2457  2.0092  0.7812
25184SOL     OW76992   2.523   4.174   6.383 -0.1485 -0.4200 -0.2412
25184SOL    HW176993   2.517   4.079   6.382  0.9588 -0.5073 -0.3856
25184SOL    HW276994   2.617   4.192   6.376 -0.3221  0.6764  0.0186
25185SOL     OW76995   4.903   4.060  11.883  0.5390 -0.5377  0.1588
25185SOL    HW176996   4.974   4.102  11.932 -0.0210 -0.5778  1.0284
25185SOL    HW276997   4.872   3.991  11.942  1.3462 -2.0987 -1.1690
25186SOL     OW76998   5.243   3.128   7.124 -0.4980 -0.5519  0.0030
25186SOL    HW176999   5.318   3.179   7.093 -0.2956 -0.3952  0.7298
25186SOL    HW277000   5.199   3.186   7.186 -0.0101 -1.4123  1.1933
25187SOL     OW77001   0.823   5.269  10.627 -0.0784  0.1064  0.2647
25187SOL    HW177002   0.850   5.357  10.654  0.5046  0.0806 -0.1986
25187SOL    HW277003   0.901   5.215  10.642  0.3929  0.1476 -1.6843
25188SOL     OW77004   2.126   6.194   1.503  0.3920 -0.0037  0.5226
25188SOL    HW177005   2.103   6.223   1.592  2.3903  0.4094  0.9581
25188SOL    HW277006   2.221   6.202   1.500  0.5654 -2.0444 -0.9649
25189SOL     OW77007   4.467   2.827   0.779  0.3034  0.2480 -0.0051
25189SOL    HW177008   4.438   2.805   0.691 -1.0286 -1.5109  0.8079
25189SOL    HW277009   4.562   2.825   0.775  0.2774  0.8111 -1.5252
25190SOL     OW77010   6.644   7.622   6.730 -0.5883 -0.3027 -0.2588
25190SOL    HW177011   6.567   7.676   6.708  0.8221  1.6105 -0.8056
25190SOL    HW277012   6.640   7.550   6.667 -1.4711  0.2432 -0.8752
25191SOL     OW77013   6.829   1.895   0.658 -0.5840  0.0363 -0.7487
25191SOL    HW177014   6.751   1.901   0.713 -1.2442  0.8653 -1.7524
25191SOL    HW277015   6.826   1.807   0.621 -0.8537 -0.0475 -0.5305
25192SOL     OW77016   1.337   5.001   6.704  0.2304 -0.3595 -0.0430
25192SOL    HW177017   1.321   4.970   6.615 -0.3990 -3.8455  1.1368
25192SOL    HW277018   1.266   5.063   6.721  0.3450  0.3505 -1.9060
25193SOL     OW77019   3.209   4.523   7.210  0.2386  0.7708  0.1317
25193SOL    HW177020   3.276   4.458   7.229 -0.4938 -0.2916 -0.7763
25193SOL    HW277021   3.146   4.477   7.153 -2.7142  0.8382  3.0434
25194SOL     OW77022   6.042   2.541   0.521  0.7111 -0.3990  0.1186
25194SOL    HW177023   6.121   2.490   0.534  0.2176 -1.9646 -2.3495
25194SOL    HW277024   6.060   2.594   0.443 -0.8002 -1.2044 -0.8284
25195SOL     OW77025   6.398   7.514   5.926  0.2595 -0.1903  0.6153
25195SOL    HW177026   6.423   7.429   5.887 -2.6596 -2.0199  2.3844
25195SOL    HW277027   6.348   7.557   5.857  1.5096  0.0267 -0.1983
25196SOL     OW77028   3.190   7.478   4.813 -0.1258  0.1385 -0.2882
25196SOL    HW177029   3.175   7.486   4.719  1.3759  0.9710 -0.4906
25196SOL    HW277030   3.105   7.500   4.853 -1.3513 -2.1021 -1.4410
25197SOL     OW77031   1.207   1.246   8.370  0.2631 -0.2897 -0.0100
25197SOL    HW177032   1.243   1.203   8.292 -1.6310  0.2364 -1.2421
25197SOL    HW277033   1.127   1.198   8.388  0.2603  0.1257  1.1471
25198SOL     OW77034   1.117   1.963   6.635 -1.1356 -0.3701  0.7611
25198SOL    HW177035   1.022   1.950   6.638 -1.0605 -1.5946 -0.6672
25198SOL    HW277036   1.137   2.016   6.712 -2.9244 -0.4195  1.3025
25199SOL     OW77037   3.421   3.373   4.908  0.2110 -0.4622 -0.0734
25199SOL    HW177038   3.368   3.306   4.951 -0.1736 -0.0422  0.1237
25199SOL    HW277039   3.383   3.382   4.821  2.5399 -3.1099 -1.5067
25200SOL     OW77040   7.915   2.966   0.576 -0.1534 -0.3137  0.8623
25200SOL    HW177041   7.895   2.979   0.669  2.9577 -3.6868  2.2660
25200SOL    HW277042   8.011   2.967   0.572 -0.1499  1.1176 -2.6770
25201SOL     OW77043   2.335   4.352   3.342  0.2480  0.1323  0.9648
25201SOL    HW177044   2.348   4.410   3.266  0.9709 -1.6041 -0.3162
25201SOL    HW277045   2.260   4.297   3.318 -0.2232  0.3052  2.0076
25202SOL     OW77046   7.312   3.379  11.419 -0.0453  0.0857 -0.1928
25202SOL    HW177047   7.298   3.458  11.472  0.6983 -0.1782  0.4188
25202SOL    HW277048   7.388   3.400  11.364  0.5873 -0.4417  0.4661
25203SOL     OW77049   3.234   1.944   0.034 -0.2288  0.4930 -0.1853
25203SOL    HW177050   3.234   1.877   0.103 -0.3940 -0.7000 -1.3000
25203SOL    HW277051   3.242   1.894  -0.048  1.6609  1.9446 -0.9626
25204SOL     OW77052   1.103   4.660   1.264  0.4549  0.0887 -0.5086
25204SOL    HW177053   1.157   4.609   1.204  1.9668  1.2951 -0.2489
25204SOL    HW277054   1.080   4.598   1.334 -0.4042 -1.0287 -1.7478
25205SOL     OW77055   7.972   1.048   2.459 -0.1445 -0.3572  0.3253
25205SOL    HW177056   7.923   1.119   2.501 -2.4106 -0.2216 -2.2506
25205SOL    HW277057   7.973   0.978   2.525 -0.5661  0.9774  1.8055
25206SOL     OW77058   6.841   7.240  10.373 -0.3283  0.0474 -0.2034
25206SOL    HW177059   6.764   7.296  10.385  0.8708  1.5398  0.9726
25206SOL    HW277060   6.912   7.286  10.418  0.8381 -2.2482  0.4700
25207SOL     OW77061   5.936   0.355  11.377 -0.0373  0.0104 -0.1760
25207SOL    HW177062   5.891   0.298  11.439 -2.3517  1.7068 -0.1842
25207SOL    HW277063   5.897   0.334  11.292  0.1232  0.6300 -0.4030
25208SOL     OW77064   5.070   1.871   8.269 -0.4280 -0.3713  0.1373
25208SOL    HW177065   5.096   1.912   8.352 -2.1042  0.0248  0.5041
25208SOL    HW277066   5.059   1.778   8.290  1.2749 -0.6811 -0.1895
25209SOL     OW77067   3.228   6.180   9.253  0.6189 -0.2069  0.1047
25209SOL    HW177068   3.242   6.191   9.159 -0.5331 -2.0870 -0.3376
25209SOL    HW277069   3.260   6.092   9.273 -0.2598 -0.3078  1.2202
25210SOL     OW77070   3.151   6.403   5.783  0.9536 -0.6022  0.2420
25210SOL    HW177071   3.087   6.445   5.725  1.6467  0.1952  0.0360
25210SOL    HW277072   3.234   6.445   5.761  1.6452 -1.9812  0.1543
25211SOL     OW77073   1.516   0.734  11.615  0.4119 -0.2619  0.0069
25211SOL    HW177074   1.431   0.694  11.632 -0.1895  0.8469 -0.2905
25211SOL    HW277075   1.528   0.726  11.521  0.0773  0.6265 -0.1219
25212SOL     OW77076   0.292   1.517  10.738  0.4468  0.0229 -0.1914
25212SOL    HW177077   0.275   1.541  10.647 -0.2651  0.2753  0.0017
25212SOL    HW277078   0.235   1.575  10.789  3.0446  2.1186  0.5970
25213SOL     OW77079   6.154   1.380   1.189 -0.2377  0.7683  0.1720
25213SOL    HW177080   6.103   1.335   1.257 -0.9514  0.1281 -0.7571
25213SOL    HW277081   6.097   1.378   1.112  1.4583 -0.5626 -1.1070
25214SOL     OW77082   4.073   2.596   8.192  0.0098  0.1239  0.1457
25214SOL    HW177083   4.115   2.682   8.191 -0.7999  0.5600  1.5897
25214SOL    HW277084   4.142   2.535   8.164  0.5480  1.2321 -1.0446
25215SOL     OW77085   1.664   7.542  12.102  0.0459 -0.9286  0.3888
25215SOL    HW177086   1.636   7.626  12.139 -0.4628 -0.9102 -0.0205
25215SOL    HW277087   1.592   7.517  12.044 -0.0859 -1.9542  0.9758
25216SOL     OW77088   5.474   0.700   0.575 -0.0581 -0.4244 -0.6306
25216SOL    HW177089   5.382   0.724   0.567  0.4651  1.7724 -0.5191
25216SOL    HW277090   5.513   0.771   0.625  1.6890 -1.3904 -0.5539
25217SOL     OW77091   6.761   2.794   1.791 -0.1436 -0.1031 -0.3917
25217SOL    HW177092   6.839   2.744   1.816 -0.8722 -0.2343  1.8737
25217SOL    HW277093   6.777   2.883   1.823  0.5290  0.8531 -3.1197
25218SOL     OW77094   2.405   6.604   2.913  0.5140 -0.1587 -0.4204
25218SOL    HW177095   2.353   6.603   2.833 -0.0150  0.5691 -0.1060
25218SOL    HW277096   2.496   6.608   2.883  0.3952 -1.2742 -0.9778
25219SOL     OW77097   0.760   0.360   7.151  0.1763  0.3495 -0.2258
25219SOL    HW177098   0.703   0.307   7.096  0.6698  0.6798 -1.0785
25219SOL    HW277099   0.762   0.315   7.235  0.3218 -0.8032 -0.8286
25220SOL     OW77100   2.372   3.281   8.637  0.0871 -0.4856 -0.3048
25220SOL    HW177101   2.397   3.356   8.582  2.2054 -0.1514  0.9920
25220SOL    HW277102   2.377   3.206   8.579 -0.5601  0.1725 -1.2530
25221SOL     OW77103   6.351   5.723   8.195  0.1112 -0.1859  0.0065
25221SOL    HW177104   6.441   5.749   8.214 -0.3479  1.3846  0.1384
25221SOL    HW277105   6.358   5.634   8.161  1.5891 -0.5560  1.2138
25222SOL     OW77106   0.668   7.303   7.738 -0.4906 -0.3723  0.2054
25222SOL    HW177107   0.715   7.379   7.704  0.3238 -0.5660  0.8677
25222SOL    HW277108   0.630   7.334   7.821 -0.0307 -0.7271  0.5507
25223SOL     OW77109   4.663   2.988  11.595 -0.2447 -0.0690  0.2473
25223SOL    HW177110   4.600   3.007  11.525  0.3936 -1.8309 -0.8651
25223SOL    HW277111   4.692   2.899  11.578  1.2335  0.0664  1.7828
25224SOL     OW77112   5.916   5.495   0.728 -0.2764  0.2380 -0.0750
25224SOL    HW177113   5.974   5.491   0.652 -1.2590  0.7704 -0.8945
25224SOL    HW277114   5.953   5.563   0.784 -0.2549  0.7582 -0.7128
25225SOL     OW77115   2.879   2.722  11.455 -0.7869  0.2775 -0.3754
25225SOL    HW177116   2.785   2.709  11.445 -0.9048  0.0250  0.9216
25225SOL    HW277117   2.894   2.716  11.549  1.0146 -3.2042 -0.7394
25226SOL     OW77118   2.879   1.440  10.050 -0.1142 -0.2091  0.1441
25226SOL    HW177119   2.808   1.490  10.091 -1.5080 -2.0071  0.0135
25226SOL    HW277120   2.934   1.413  10.123  0.2670  0.8735  0.2833
25227SOL     OW77121   0.507   0.523   7.714 -0.4681 -0.3725  0.2212
25227SOL    HW177122   0.448   0.510   7.788  0.0848 -0.5927  0.6375
25227SOL    HW277123   0.555   0.440   7.707  0.9817  0.3502  0.9855
25228SOL     OW77124   2.851   4.021   2.889  0.3252  0.1136 -0.1316
25228SOL    HW177125   2.872   4.112   2.869 -0.6261  0.3309 -0.1633
25228SOL    HW277126   2.806   3.989   2.811  0.3285 -0.2777  0.0239
25229SOL     OW77127   6.412   0.314  11.571  0.2362 -0.0110 -0.2697
25229SOL    HW177128   6.330   0.283  11.609 -0.4364 -0.6572 -2.1569
25229SOL    HW277129   6.424   0.261  11.493  1.0936  1.8501 -1.4709
25230SOL     OW77130   2.918   5.207   1.737 -0.3213  0.1977 -0.1982
25230SOL    HW177131   2.966   5.191   1.818 -1.3432 -0.2903  0.3340
25230SOL    HW277132   2.895   5.119   1.705  1.6116  0.2554 -2.0212
25231SOL     OW77133   0.702   5.031   9.480  0.3348 -0.2758  0.3141
25231SOL    HW177134   0.672   5.113   9.440  1.2235  0.2970  0.7870
25231SOL    HW277135   0.794   5.046   9.499  0.8351 -1.8460 -0.7086
25232SOL     OW77136   3.143   6.316   7.830 -0.0470 -0.1606 -0.1420
25232SOL    HW177137   3.099   6.381   7.774  1.2761  0.0727 -0.9629
25232SOL    HW277138   3.115   6.231   7.794 -0.7439 -0.0392  0.0988
25233SOL     OW77139   5.716   3.224   8.406  0.3895  0.1776  0.2276
25233SOL    HW177140   5.688   3.134   8.424 -0.5169  0.0773 -1.4906
25233SOL    HW277141   5.635   3.273   8.394  0.8415  1.5061  2.1577
25234SOL     OW77142   7.897   0.399   6.228  0.3254 -0.1323  0.2253
25234SOL    HW177143   7.877   0.468   6.292  1.9630  0.8103 -0.2300
25234SOL    HW277144   7.901   0.319   6.280 -0.0575  0.3520  1.0244
25235SOL     OW77145   3.012   3.303   1.446  0.5403  0.3698  0.3226
25235SOL    HW177146   3.069   3.355   1.390 -0.7579  0.8690 -0.5705
25235SOL    HW277147   3.026   3.212   1.418  0.3481  0.5596 -0.3879
25236SOL     OW77148   6.829   6.195   9.697  0.3991  0.3653  0.3242
25236SOL    HW177149   6.767   6.268   9.708  0.1205  0.1095  0.4393
25236SOL    HW277150   6.825   6.175   9.604  2.1716  2.0005 -0.1702
25237SOL     OW77151   1.502   0.939   9.787 -0.9327  0.3238  0.5019
25237SOL    HW177152   1.456   0.930   9.871  0.6702  1.3365  1.5428
25237SOL    HW277153   1.474   1.025   9.755 -0.3108  0.6481  0.8112
25238SOL     OW77154   6.868   1.254   1.207  0.6027 -0.1249 -0.0582
25238SOL    HW177155   6.941   1.255   1.268 -0.5297  0.5992  1.3686
25238SOL    HW277156   6.820   1.174   1.227 -0.8817  1.0772  1.4677
25239SOL     OW77157   2.810   1.234   2.955 -0.1399  0.3474  0.2668
25239SOL    HW177158   2.773   1.319   2.976 -0.0730  0.1713  1.1055
25239SOL    HW277159   2.876   1.218   3.022  0.6855  0.1549 -0.5629
25240SOL     OW77160   2.699   0.504   7.457  1.0031  0.2113 -0.5857
25240SOL    HW177161   2.619   0.519   7.507  0.6408 -3.6776  0.3153
25240SOL    HW277162   2.764   0.562   7.498 -0.8623  2.0696 -0.1204
25241SOL     OW77163   0.507   5.288   7.339  0.1053 -0.0620  0.0318
25241SOL    HW177164   0.579   5.235   7.304 -1.1517 -0.9804 -1.2863
25241SOL    HW277165   0.453   5.224   7.386 -0.1192  0.5391  0.5992
25242SOL     OW77166   0.612   5.650  12.260 -0.1013 -0.1304  0.3727
25242SOL    HW177167   0.523   5.617  12.253 -0.1660 -0.7152  2.8809
25242SOL    HW277168   0.636   5.634  12.351  2.6150 -0.0903 -0.2548
25243SOL     OW77169   6.745   7.737   5.985  0.0504  0.3921 -0.1223
25243SOL    HW177170   6.788   7.820   5.966  1.2681 -0.5049 -1.5562
25243SOL    HW277171   6.652   7.758   5.989  0.1971  1.5679 -2.0180
25244SOL     OW77172   1.553   4.967  10.833 -0.0451  0.4976  0.0634
25244SOL    HW177173   1.601   5.022  10.771  0.5336 -0.4083 -0.3089
25244SOL    HW277174   1.507   4.903  10.778  2.0728 -1.6123  0.5706
25245SOL     OW77175   0.812   0.921   6.764 -0.1090 -0.6596 -0.2456
25245SOL    HW177176   0.852   0.996   6.808  0.6568 -0.6650 -0.8983
25245SOL    HW277177   0.832   0.934   6.672 -2.1310 -0.3780 -0.6844
25246SOL     OW77178   7.568   4.977   0.140 -0.2192  0.1663  0.2375
25246SOL    HW177179   7.508   4.912   0.178  1.9462 -1.3084  1.3091
25246SOL    HW277180   7.562   5.052   0.199 -0.5095 -0.2311  0.7304
25247SOL     OW77181   6.863   4.679  12.348 -0.7313 -0.0387  0.3856
25247SOL    HW177182   6.776   4.703  12.380 -0.3202  1.3782  0.5338
25247SOL    HW277183   6.862   4.705  12.255 -0.9801 -1.4933 -0.0339
25248SOL     OW77184   1.804   2.629   0.727 -0.0879 -0.6679 -0.4312
25248SOL    HW177185   1.815   2.622   0.632 -0.7805 -0.5703 -0.5247
25248SOL    HW277186   1.818   2.722   0.746 -2.8709 -0.0901 -0.8631
25249SOL     OW77187   1.189   5.016   9.528 -0.1646 -0.1016  0.0173
25249SOL    HW177188   1.282   5.035   9.517 -0.0499  0.3569  1.6734
25249SOL    HW277189   1.187   4.930   9.571 -0.4580  0.5339  1.2995
25250SOL     OW77190   1.647   2.146   2.168 -0.2038  0.2072  0.1037
25250SOL    HW177191   1.576   2.209   2.157  0.6417  1.2220  0.2719
25250SOL    HW277192   1.662   2.111   2.080  0.3244  1.3915 -0.3003
25251SOL     OW77193   5.666   2.957   9.238  0.2811  0.2847  0.3175
25251SOL    HW177194   5.600   2.998   9.181  0.2711  0.9303  0.7839
25251SOL    HW277195   5.661   2.864   9.216  0.2177  0.5088 -0.6755
25252SOL     OW77196   5.520   7.242  10.979 -0.3458  0.0671 -0.6486
25252SOL    HW177197   5.443   7.230  11.036  1.1735 -0.3244  1.4586
25252SOL    HW277198   5.561   7.322  11.013  1.1343 -0.7263 -0.5268
25253SOL     OW77199   1.634   4.622   0.869 -0.5380 -0.1602  0.2267
25253SOL    HW177200   1.632   4.620   0.964  0.1654 -3.0423  0.2623
25253SOL    HW277201   1.598   4.538   0.842 -1.1746  0.7796 -2.0919
25254SOL     OW77202   4.121   6.235  10.132  0.8087  0.3709  0.0596
25254SOL    HW177203   4.208   6.274  10.145  1.0104 -0.4464  1.2946
25254SOL    HW277204   4.135   6.141  10.146 -0.2716  0.2273  0.2182
25255SOL     OW77205   4.553   1.791   1.658  0.5546 -0.1743 -0.6471
25255SOL    HW177206   4.559   1.886   1.650  2.8317 -0.2342 -0.3347
25255SOL    HW277207   4.475   1.776   1.711  0.0205  1.4959 -0.8973
25256SOL     OW77208   6.362   0.434  10.867  0.4679 -0.0405  0.3449
25256SOL    HW177209   6.269   0.451  10.882  1.2647  2.1476  3.9151
25256SOL    HW277210   6.372   0.340  10.883 -1.1807 -0.4753 -0.8998
25257SOL     OW77211   3.706   4.899  10.260 -0.0109 -0.2470  0.2314
25257SOL    HW177212   3.741   4.813  10.238  1.7829  0.3353  0.6461
25257SOL    HW277213   3.654   4.884  10.340 -0.3278 -1.0550 -0.1163
25258SOL     OW77214   7.154   4.841   9.840  0.0433  0.1544 -0.2537
25258SOL    HW177215   7.072   4.857   9.886  0.9070 -0.2881  1.5080
25258SOL    HW277216   7.216   4.903   9.877  0.8958 -0.5846 -0.3935
25259SOL     OW77217   0.015   0.326   8.583  0.1933  0.3245  0.2501
25259SOL    HW177218  -0.010   0.350   8.494  1.0334  0.3214  0.0052
25259SOL    HW277219  -0.066   0.334   8.634 -0.2681  0.4295 -0.4881
25260SOL     OW77220   0.701   6.117   9.217 -0.0546 -0.1239  0.0024
25260SOL    HW177221   0.758   6.042   9.197 -1.0720 -1.3957  1.6028
25260SOL    HW277222   0.736   6.152   9.299 -0.0320  0.7291 -0.3615
25261SOL     OW77223   7.932   6.583   1.231 -0.1879  0.8240  0.1000
25261SOL    HW177224   7.914   6.491   1.216  1.0256  0.6023 -0.1315
25261SOL    HW277225   7.859   6.629   1.190 -0.2398 -0.0022 -0.7677
25262SOL     OW77226   1.462   3.470  10.698 -0.4740 -0.1480  0.0392
25262SOL    HW177227   1.555   3.476  10.676 -0.8377 -0.3058 -1.6925
25262SOL    HW277228   1.444   3.550  10.748  0.2908  0.5860 -0.8249
25263SOL     OW77229   5.963   2.216   3.545  0.1877  0.0025  0.0939
25263SOL    HW177230   5.955   2.278   3.473  0.8469 -1.3111 -1.1613
25263SOL    HW277231   5.994   2.268   3.619  1.5233  1.0342 -1.1359
25264SOL     OW77232   1.005   6.497  10.764 -0.2667  0.1912  0.1689
25264SOL    HW177233   1.063   6.423  10.782 -0.0468  0.2516 -0.2564
25264SOL    HW277234   1.003   6.502  10.668  3.1642  3.3610  0.0359
25265SOL     OW77235   7.152   6.296   3.848 -0.3704 -0.1727 -0.3592
25265SOL    HW177236   7.170   6.388   3.869 -2.3124  0.1469  0.1255
25265SOL    HW277237   7.235   6.263   3.813  0.8271  1.3262  0.8869
25266SOL     OW77238   7.410   2.102   4.170  0.0783 -0.4358 -0.3988
25266SOL    HW177239   7.457   2.185   4.159 -0.1008 -0.2512  0.1648
25266SOL    HW277240   7.412   2.088   4.265 -0.3105 -0.8349 -0.4537
25267SOL     OW77241   3.043   7.206   3.870  0.1300 -0.0803  0.1655
25267SOL    HW177242   2.985   7.133   3.892  1.3191 -0.6562  1.6547
25267SOL    HW277243   3.024   7.272   3.936 -0.3444  0.6208 -0.6630
25268SOL     OW77244   6.718   4.669   1.335 -0.1921  0.0713 -0.4189
25268SOL    HW177245   6.734   4.662   1.429  1.0479  0.2952 -0.5997
25268SOL    HW277246   6.709   4.763   1.320  1.7143  0.2203 -0.8265
25269SOL     OW77247   4.267   2.154  10.404  0.2900  0.5590 -0.2519
25269SOL    HW177248   4.338   2.213  10.428 -0.6193  1.4673  0.2824
25269SOL    HW277249   4.265   2.088  10.474  0.8239  0.3192 -0.4577
25270SOL     OW77250   5.592   6.744  11.462  0.1487 -0.4357 -0.1805
25270SOL    HW177251   5.498   6.723  11.458 -0.1368  0.9567 -1.7561
25270SOL    HW277252   5.624   6.724  11.374  1.1576 -0.1021  0.1021
25271SOL     OW77253   5.211   0.311   1.088  0.0400 -0.2874 -0.1822
25271SOL    HW177254   5.247   0.372   1.024  1.5625 -0.3989  0.5121
25271SOL    HW277255   5.220   0.225   1.048 -0.0920 -0.2522 -0.2870
25272SOL     OW77256   0.392   3.995   8.520  0.6053 -0.6395 -0.3614
25272SOL    HW177257   0.455   3.961   8.584 -1.0543  2.1857  3.0732
25272SOL    HW277258   0.419   4.086   8.506 -1.3458 -0.0715 -0.6518
25273SOL     OW77259   2.782   6.765  10.931 -0.1359 -0.0783 -0.7125
25273SOL    HW177260   2.791   6.681  10.975  2.0281  1.8362  3.0159
25273SOL    HW277261   2.692   6.792  10.947 -0.2720 -0.8396 -0.1617
25274SOL     OW77262   1.614   2.056   8.981  0.1461  0.1711  0.1096
25274SOL    HW177263   1.551   2.008   8.927 -1.1080  1.9390 -0.0999
25274SOL    HW277264   1.697   2.049   8.933 -0.3983 -0.3113 -0.7932
25275SOL     OW77265   4.831   0.792   4.960  0.0015 -0.0200 -0.2865
25275SOL    HW177266   4.784   0.859   5.010  0.2762  0.4519 -0.6629
25275SOL    HW277267   4.904   0.837   4.920  1.0506 -0.8443  0.6378
25276SOL     OW77268   3.980   7.081   1.062  0.1413 -0.6152  0.1133
25276SOL    HW177269   3.918   7.037   1.004 -0.4229 -0.6737  0.7423
25276SOL    HW277270   3.930   7.096   1.143  1.0579 -1.0276  0.7801
25277SOL     OW77271   2.259   7.162   5.000  0.6174  0.2907 -0.4617
25277SOL    HW177272   2.170   7.162   4.965 -0.2485 -1.0865  1.6158
25277SOL    HW277273   2.265   7.083   5.053  1.8477  2.1799  2.4674
25278SOL     OW77274   7.019   2.718   0.799 -0.4765  0.0476 -0.5871
25278SOL    HW177275   7.026   2.637   0.851 -2.4111  0.5081  0.5214
25278SOL    HW277276   6.925   2.727   0.783 -0.1641  1.4248 -1.7774
25279SOL     OW77277   4.418   0.017   1.523 -0.2068  0.3278 -0.0220
25279SOL    HW177278   4.445   0.078   1.592 -1.7418  0.4404  0.5376
25279SOL    HW277279   4.489   0.019   1.460  0.5626  1.3885  0.8235
25280SOL     OW77280   5.787   5.120   6.700 -0.2683 -0.0762  0.2939
25280SOL    HW177281   5.703   5.122   6.654 -0.0701  2.7113 -0.1375
25280SOL    HW277282   5.846   5.075   6.640 -0.6094  1.3124 -1.1749
25281SOL     OW77283   5.719   7.891   2.441 -0.6137 -0.2521  0.3463
25281SOL    HW177284   5.668   7.965   2.407  2.6564  1.1797 -1.9100
25281SOL    HW277285   5.733   7.913   2.533 -1.3173  0.9479  0.1930
25282SOL     OW77286   5.822   7.935   4.937 -0.2854  0.4837 -0.5141
25282SOL    HW177287   5.782   7.848   4.934 -2.2747  1.2846  0.6746
25282SOL    HW277288   5.773   7.986   4.872  1.6539  0.4750 -2.0732
25283SOL     OW77289   4.519   6.840   4.105  0.6236  0.0652  0.3640
25283SOL    HW177290   4.438   6.807   4.067  0.2040 -1.6321  2.5476
25283SOL    HW277291   4.572   6.866   4.030 -0.6199 -1.9201 -1.3004
25284SOL     OW77292   0.989   5.318   4.924  0.2580  0.2161  0.2130
25284SOL    HW177293   0.967   5.272   5.005 -0.7223 -0.4685 -0.4310
25284SOL    HW277294   1.085   5.318   4.923  0.3289  1.2159  1.9033
25285SOL     OW77295   0.809   1.384   9.549 -0.0919 -0.2106  0.4190
25285SOL    HW177296   0.865   1.429   9.486  2.3916 -2.5516  0.7875
25285SOL    HW277297   0.835   1.420   9.634  0.2308 -0.6906  0.5235
25286SOL     OW77298   5.624   1.615   2.274  0.0339 -0.1155 -0.3011
25286SOL    HW177299   5.674   1.534   2.287  0.8218 -0.0351 -2.4422
25286SOL    HW277300   5.689   1.679   2.247 -0.8519  0.7530 -0.4234
25287SOL     OW77301   7.411   1.185   5.296  0.2787 -0.1993 -0.5065
25287SOL    HW177302   7.442   1.196   5.386  0.6823  0.8408 -0.7562
25287SOL    HW277303   7.318   1.207   5.301 -0.0647 -1.6361 -0.0771
25288SOL     OW77304   5.357   2.506   3.554 -0.2150  0.4694  0.1076
25288SOL    HW177305   5.296   2.540   3.488 -0.8963  0.4902  0.7387
25288SOL    HW277306   5.311   2.515   3.637  0.0915 -0.7994  0.4459
25289SOL     OW77307   4.061   7.742   9.415  0.0158  0.1756  0.1838
25289SOL    HW177308   4.031   7.825   9.452 -0.8516 -0.4403  0.9090
25289SOL    HW277309   4.069   7.759   9.321 -3.1070  0.3112 -0.1869
25290SOL     OW77310   1.827   3.307   1.618  0.2987  0.0064 -0.0832
25290SOL    HW177311   1.754   3.339   1.671 -0.1370 -2.5968  1.0609
25290SOL    HW277312   1.901   3.363   1.642 -1.5666  3.9449 -2.6391
25291SOL     OW77313   6.562   4.652   2.787 -0.0807 -0.0093  0.0842
25291SOL    HW177314   6.528   4.711   2.854 -0.8517  0.2151 -0.4965
25291SOL    HW277315   6.550   4.699   2.705  0.1927 -0.5764 -0.2850
25292SOL     OW77316   6.349   0.938   9.576 -0.0926  0.1285 -0.1889
25292SOL    HW177317   6.354   1.015   9.519 -0.0487  0.0683 -0.2673
25292SOL    HW277318   6.383   0.867   9.522  2.1638  0.4727  0.6580
25293SOL     OW77319   0.846   1.733   6.459 -0.4953 -0.1384  0.0660
25293SOL    HW177320   0.851   1.804   6.522 -0.5612  0.2449 -0.3592
25293SOL    HW277321   0.929   1.685   6.470 -0.7992 -0.4944  0.9263
25294SOL     OW77322   5.329   6.241   5.630 -0.0365 -0.2594  0.2202
25294SOL    HW177323   5.247   6.290   5.624  2.0442  3.6094  0.1332
25294SOL    HW277324   5.349   6.239   5.723  0.3924 -0.0119  0.1360
25295SOL     OW77325   3.196   2.140   4.802  0.3660  0.2876  0.2278
25295SOL    HW177326   3.235   2.157   4.888  1.1229  0.9101 -0.2166
25295SOL    HW277327   3.211   2.046   4.787 -0.3637  0.0318  1.0515
25296SOL     OW77328   2.750   7.045   6.902  0.1723 -0.1868  0.0412
25296SOL    HW177329   2.828   7.041   6.846 -0.1197 -1.4113 -0.3094
25296SOL    HW277330   2.759   6.968   6.959 -0.9761 -0.5626 -0.2710
25297SOL     OW77331   5.373   3.196   5.107 -0.3519  0.0250 -0.0451
25297SOL    HW177332   5.312   3.130   5.075 -0.5327  0.2551 -0.1862
25297SOL    HW277333   5.328   3.279   5.090 -0.0822  0.1863  0.0299
25298SOL     OW77334   5.265   6.870  11.762 -0.4340 -0.6079 -0.0992
25298SOL    HW177335   5.332   6.936  11.781 -1.3253  0.7656 -1.4681
25298SOL    HW277336   5.314   6.789  11.749  0.8247  0.0594  0.2953
25299SOL     OW77337   6.679   3.507  12.431  0.6386  0.0056  0.3920
25299SOL    HW177338   6.639   3.421  12.448  0.7328 -0.1943 -0.3188
25299SOL    HW277339   6.606   3.569  12.436  0.3471 -0.2731 -0.2451
25300SOL     OW77340   5.406   1.725   1.963  0.2435 -0.3707 -0.1795
25300SOL    HW177341   5.442   1.802   2.007  0.9385 -0.5497 -0.4250
25300SOL    HW277342   5.453   1.651   2.001 -1.8626 -0.9162  1.5865
25301SOL     OW77343   6.326   4.978   6.977 -0.3210  0.1418  0.2107
25301SOL    HW177344   6.414   5.012   6.960 -0.5822  0.2813 -0.9379
25301SOL    HW277345   6.333   4.936   7.063  0.7679  0.4816  0.3052
25302SOL     OW77346   0.230   6.048   5.862 -0.4749  0.1180  0.0763
25302SOL    HW177347   0.156   6.108   5.864 -0.3943  0.2250  3.0213
25302SOL    HW277348   0.243   6.021   5.953  1.1231 -2.3792 -0.7822
25303SOL     OW77349   4.095   1.260  10.379 -0.0162  0.2636 -0.4042
25303SOL    HW177350   4.091   1.352  10.405 -0.3669 -0.2647  1.5323
25303SOL    HW277351   4.130   1.215  10.455  0.2541 -1.2201 -1.3623
25304SOL     OW77352   5.118   3.970   3.932 -0.1172 -0.1558 -0.1971
25304SOL    HW177353   5.119   3.962   4.027 -1.4217  0.8896 -0.0611
25304SOL    HW277354   5.209   3.985   3.908  0.5210 -2.3479  0.6684
25305SOL     OW77355   5.192   0.824   6.115 -0.3072 -0.9567 -0.0840
25305SOL    HW177356   5.194   0.916   6.089  0.9007 -1.3303 -1.4089
25305SOL    HW277357   5.141   0.823   6.196  1.7032  1.2092  1.3321
25306SOL     OW77358   2.676   7.343   3.077  0.2457 -0.6895  0.5204
25306SOL    HW177359   2.642   7.254   3.079 -0.7831 -0.2951  0.9560
25306SOL    HW277360   2.646   7.382   3.159  0.5524  0.1175  0.2558
25307SOL     OW77361   1.673   4.039   1.327 -0.4921  0.7932 -0.7399
25307SOL    HW177362   1.723   4.077   1.399  0.5657 -0.5163 -0.7359
25307SOL    HW277363   1.695   4.092   1.251  0.2327  0.7548 -0.5591
25308SOL     OW77364   4.073   6.192   6.488 -0.5266  0.1982 -0.2117
25308SOL    HW177365   3.995   6.138   6.475 -0.5217  0.6344 -2.4751
25308SOL    HW277366   4.046   6.257   6.554 -0.5930 -2.3007  2.4438
25309SOL     OW77367   1.597   1.645   5.148 -0.0634  0.4005  0.4055
25309SOL    HW177368   1.659   1.582   5.112 -0.1678 -0.0808  1.0587
25309SOL    HW277369   1.527   1.649   5.083  0.5548  0.8249 -0.2556
25310SOL     OW77370   7.190   1.346   6.044 -0.6632 -0.8844 -0.5513
25310SOL    HW177371   7.239   1.265   6.050  0.2613 -0.4672 -1.9438
25310SOL    HW277372   7.209   1.392   6.126  0.0100 -1.4083 -0.4044
25311SOL     OW77373   6.613   6.563   2.915  0.5085  0.2834 -0.7894
25311SOL    HW177374   6.541   6.517   2.872  0.6453 -0.2465 -0.4597
25311SOL    HW277375   6.683   6.499   2.923  0.6703  0.5147 -0.2418
25312SOL     OW77376   0.988   2.369   7.729  0.3757  0.0322  0.0826
25312SOL    HW177377   0.899   2.374   7.694  0.7022  0.4151 -0.7082
25312SOL    HW277378   1.023   2.287   7.694  0.1214 -0.4495  0.9258
25313SOL     OW77379   6.322   0.899   5.038  0.1234  0.3754 -0.6678
25313SOL    HW177380   6.247   0.845   5.062 -0.8482  2.3344  1.0153
25313SOL    HW277381   6.291   0.953   4.965 -0.0915  1.1006 -0.0514
25314SOL     OW77382   6.486   5.230   4.630 -0.3774 -0.0527 -0.1434
25314SOL    HW177383   6.420   5.215   4.697 -0.6942 -2.0280 -0.8523
25314SOL    HW277384   6.466   5.168   4.560  1.3546  0.2914 -1.0255
25315SOL     OW77385   0.391   5.783  10.012 -0.5324 -0.4709 -0.3078
25315SOL    HW177386   0.434   5.864   9.985 -1.1829 -0.3760 -1.0886
25315SOL    HW277387   0.332   5.809  10.082 -2.4107  0.1620 -2.0498
25316SOL     OW77388   1.474   1.012  10.883 -0.0362  0.2613  0.2624
25316SOL    HW177389   1.530   0.989  10.957 -2.7223 -0.1939  2.2829
25316SOL    HW277390   1.454   1.104  10.895 -0.1962  0.2764 -0.1022
25317SOL     OW77391   5.137   7.131   1.721 -0.1919 -0.0181  0.6374
25317SOL    HW177392   5.171   7.058   1.772 -0.2056 -0.9303 -0.6066
25317SOL    HW277393   5.211   7.159   1.667  0.1368  1.6363  1.8824
25318SOL     OW77394   0.707   5.344   3.682  0.0138  0.0654 -0.2184
25318SOL    HW177395   0.694   5.273   3.619 -0.2905 -0.4908  0.4546
25318SOL    HW277396   0.727   5.299   3.764 -2.2936  0.6573  0.7340
25319SOL     OW77397   1.463   6.993   6.274  0.2518  0.2328  0.4594
25319SOL    HW177398   1.426   6.966   6.358  0.1648  0.6063  0.5465
25319SOL    HW277399   1.455   6.916   6.218 -0.7677  0.3368  0.4427
25320SOL     OW77400   5.305   5.174   2.337  0.1052  0.5230 -0.1079
25320SOL    HW177401   5.373   5.237   2.358  0.0707  0.1981  1.0235
25320SOL    HW277402   5.228   5.227   2.317 -0.1377  0.8587  1.5728
25321SOL     OW77403   5.414   6.605   3.188 -0.3119 -0.4948  0.5839
25321SOL    HW177404   5.505   6.620   3.214 -0.3131  2.6165 -0.7271
25321SOL    HW277405   5.421   6.550   3.109  0.8859  2.7763 -1.8315
25322SOL     OW77406   2.730   7.652   6.566 -0.2341  0.1358  0.1376
25322SOL    HW177407   2.649   7.700   6.585  0.0186  0.4554  0.4326
25322SOL    HW277408   2.755   7.682   6.479  0.0524  0.7407  0.4177
25323SOL     OW77409   6.385   0.198  11.317  0.1660  0.4397  0.2460
25323SOL    HW177410   6.361   0.119  11.269  0.8101  0.9747 -1.0123
25323SOL    HW277411   6.324   0.265  11.284  2.4364  1.5266 -2.1208
25324SOL     OW77412   4.158   4.973   2.529  0.3610 -0.5102 -0.5983
25324SOL    HW177413   4.146   4.962   2.623 -0.1380 -1.4168 -0.7634
25324SOL    HW277414   4.074   5.006   2.497  0.5456 -0.1545 -0.7222
25325SOL     OW77415   3.648   1.607   3.907 -0.5992 -0.1765  0.5168
25325SOL    HW177416   3.566   1.584   3.952  0.3157 -2.4414  1.2153
25325SOL    HW277417   3.620   1.649   3.826 -2.5281 -1.8882  0.1977
25326SOL     OW77418   5.149   6.119   9.097  0.1031 -0.0632 -0.3393
25326SOL    HW177419   5.065   6.087   9.065 -0.1768 -0.5097  0.7847
25326SOL    HW277420   5.214   6.058   9.062  0.0192  0.5255 -1.5581
25327SOL     OW77421   7.282   3.698   1.735  0.4855 -0.0070 -0.3693
25327SOL    HW177422   7.206   3.672   1.683  0.7751  0.4468 -1.0355
25327SOL    HW277423   7.337   3.749   1.674  0.2885  1.5310  0.6821
25328SOL     OW77424   6.109   3.054   5.834  0.2410 -0.3739 -0.0536
25328SOL    HW177425   6.120   2.984   5.769 -2.9361 -2.2329  1.1407
25328SOL    HW277426   6.163   3.026   5.908  2.1350  0.6143 -0.9963
25329SOL     OW77427   3.048   1.907   3.269 -0.1832  0.4367  0.0648
25329SOL    HW177428   2.961   1.893   3.306  0.2220  1.8572  1.7029
25329SOL    HW277429   3.108   1.875   3.336  0.5714  0.8218 -0.4091
25330SOL     OW77430   1.202   5.442  11.743 -0.0777  0.3506  0.1657
25330SOL    HW177431   1.141   5.439  11.669 -0.1958 -1.6849  0.2770
25330SOL    HW277432   1.158   5.394  11.813  1.6763 -1.4087  0.1766
25331SOL     OW77433   4.630   3.060  12.469 -0.1768  0.4722 -0.3398
25331SOL    HW177434   4.621   3.108  12.552  0.2930 -0.7255  0.4378
25331SOL    HW277435   4.677   3.119  12.411  0.7620  0.8023  0.7268
25332SOL     OW77436   5.125   4.721  11.349  0.4580 -0.2480 -0.4116
25332SOL    HW177437   5.159   4.636  11.321 -1.1649 -0.8434 -0.6733
25332SOL    HW277438   5.101   4.765  11.268  2.4111  1.0012 -0.3683
25333SOL     OW77439   2.684   2.060   8.738  0.1261 -0.7401 -0.4579
25333SOL    HW177440   2.738   2.078   8.661  0.8977 -0.8068  0.0591
25333SOL    HW277441   2.697   2.135   8.795 -1.3839 -0.1167 -0.8822
25334SOL     OW77442   1.132   6.690  12.221  0.4636  0.3355  0.1056
25334SOL    HW177443   1.170   6.680  12.309 -1.2082 -1.4685  0.6797
25334SOL    HW277444   1.094   6.778  12.222  1.2139  0.6693  0.8720
25335SOL     OW77445   6.004   6.786   7.430  0.0517 -0.0618 -0.1379
25335SOL    HW177446   5.972   6.699   7.453 -1.9061  0.7768  0.4544
25335SOL    HW277447   5.933   6.826   7.380  1.8945  0.3284 -2.6545
25336SOL     OW77448   2.259   0.542   6.093  0.1161 -0.4713  0.0688
25336SOL    HW177449   2.198   0.492   6.040 -1.4138 -1.2602  2.3853
25336SOL    HW277450   2.211   0.558   6.175  1.8123  1.8532  0.7092
25337SOL     OW77451   4.785   5.096   2.750 -0.0065  0.3496 -0.1830
25337SOL    HW177452   4.876   5.113   2.726 -0.3060  0.6574 -1.1306
25337SOL    HW277453   4.789   5.021   2.811  0.8631  0.3222 -0.2714
25338SOL     OW77454   3.566   0.568   1.998 -0.6094 -0.0817 -0.3461
25338SOL    HW177455   3.616   0.524   1.929 -1.0757  1.0562 -1.4511
25338SOL    HW277456   3.632   0.607   2.055 -0.1795  0.9430 -1.4887
25339SOL     OW77457   7.386   3.443   9.066 -0.2876 -0.3721 -0.1905
25339SOL    HW177458   7.326   3.427   9.139 -0.2188 -1.2001 -0.3027
25339SOL    HW277459   7.434   3.521   9.091  0.4688 -1.2299  1.1545
25340SOL     OW77460   1.002   5.496   2.968 -0.0454  0.2176  0.5414
25340SOL    HW177461   0.982   5.575   3.018 -2.8087 -0.6638  1.0033
25340SOL    HW277462   0.957   5.509   2.885 -0.5028 -0.8386  0.6117
25341SOL     OW77463   1.677   0.233   6.994  0.5775  0.1999 -0.1706
25341SOL    HW177464   1.635   0.234   7.080 -2.1904  0.3000 -1.4279
25341SOL    HW277465   1.736   0.309   6.995  0.3696  0.3744  1.4952
25342SOL     OW77466   2.606   4.154   2.269 -0.2618  0.4350 -0.2523
25342SOL    HW177467   2.684   4.118   2.227 -2.2571 -2.1245 -2.1383
25342SOL    HW277468   2.580   4.089   2.334 -0.0859  1.9447  1.4006
25343SOL     OW77469   1.266   2.602   3.515 -0.0391 -0.3037 -0.5277
25343SOL    HW177470   1.216   2.538   3.566 -2.4003  0.8227 -1.2844
25343SOL    HW277471   1.200   2.661   3.479  1.7219  0.3927 -2.8955
25344SOL     OW77472   3.956   1.086  11.346 -0.4002  0.1204 -0.0563
25344SOL    HW177473   3.977   1.161  11.401 -1.3330 -0.1404  0.6706
25344SOL    HW277474   3.862   1.073  11.356 -0.3240 -0.9146 -0.4729
25345SOL     OW77475   6.079   1.105   3.016 -0.4278  0.2733  0.1208
25345SOL    HW177476   6.125   1.131   2.936 -0.4524  1.1028  0.3636
25345SOL    HW277477   6.009   1.048   2.985 -0.6644  0.8733 -0.5034
25346SOL     OW77478   2.463   2.838   7.099 -0.1153  0.0109 -0.7143
25346SOL    HW177479   2.414   2.821   7.179  1.2948 -0.4593  0.0861
25346SOL    HW277480   2.551   2.803   7.116  0.1340 -0.4349 -2.5945
25347SOL     OW77481   7.846   3.657   5.517 -0.5626 -0.2492 -0.3834
25347SOL    HW177482   7.853   3.619   5.429  0.3037  2.1801 -1.4445
25347SOL    HW277483   7.789   3.733   5.506  1.4345  1.4926  0.5898
25348SOL     OW77484   7.388   7.041   3.267  0.2766 -0.5369  0.2495
25348SOL    HW177485   7.384   6.987   3.188 -0.5610 -1.0326  0.6205
25348SOL    HW277486   7.417   6.982   3.335  2.3179  0.1982  0.0792
25349SOL     OW77487   2.264   5.258   9.705  0.4676  0.5912 -0.3677
25349SOL    HW177488   2.346   5.271   9.657  1.6057  0.5384  1.4195
25349SOL    HW277489   2.287   5.192   9.771 -0.8737  0.9525  0.4923
25350SOL     OW77490   5.470   5.879   3.457  0.6406  0.1879 -0.6381
25350SOL    HW177491   5.409   5.909   3.389  1.1497  1.2287 -0.6575
25350SOL    HW277492   5.480   5.786   3.440 -0.6122  0.0830 -0.8952
25351SOL     OW77493   2.842   0.537   8.987  0.3985 -0.2955 -0.3791
25351SOL    HW177494   2.910   0.526   9.054  0.3902 -1.3617 -0.5359
25351SOL    HW277495   2.890   0.539   8.904  0.2323 -1.1983 -0.5010
25352SOL     OW77496   3.764   7.740   6.112  0.0821  0.5237  0.2777
25352SOL    HW177497   3.795   7.806   6.050  0.5561 -0.4950 -0.5818
25352SOL    HW277498   3.803   7.767   6.196  0.2881  1.3146 -0.0603
25353SOL     OW77499   0.534   4.574   2.649  0.0681  0.6430 -0.7030
25353SOL    HW177500   0.449   4.564   2.691 -0.2890 -0.2474 -1.5737
25353SOL    HW277501   0.589   4.614   2.715 -0.6029 -0.2288  0.4343
25354SOL     OW77502   2.818   2.929  12.163 -0.0993  0.1825 -0.1930
25354SOL    HW177503   2.873   2.857  12.131 -2.2788 -0.8291 -1.9946
25354SOL    HW277504   2.843   3.004  12.109 -0.2866 -0.1996 -0.8197
25355SOL     OW77505   6.290   4.528   7.672 -0.1741  0.1705  0.3424
25355SOL    HW177506   6.222   4.528   7.605 -1.2897 -0.8625  1.4267
25355SOL    HW277507   6.305   4.436   7.693 -0.1567  0.4712  1.7984
25356SOL     OW77508   6.754   3.606   8.372 -0.1716  0.4357  0.0163
25356SOL    HW177509   6.728   3.698   8.378 -1.6177  0.0381  0.3203
25356SOL    HW277510   6.684   3.558   8.418  0.6863 -0.7912  0.0902
25357SOL     OW77511   7.375   3.504  10.066 -0.3549  0.6110 -0.7728
25357SOL    HW177512   7.449   3.535  10.015 -0.1871  0.4165 -0.6476
25357SOL    HW277513   7.349   3.578  10.120  0.4333  0.3543 -0.0198
25358SOL     OW77514   6.890   5.209  10.256 -0.3732 -0.4719  0.4050
25358SOL    HW177515   6.832   5.262  10.311 -0.9614 -0.9607  0.2652
25358SOL    HW277516   6.950   5.272  10.217 -2.1034  0.3481 -1.0739
25359SOL     OW77517   6.770   0.476   8.739  0.4887  0.1490  0.2158
25359SOL    HW177518   6.813   0.552   8.779  0.9382  0.0763 -0.1173
25359SOL    HW277519   6.835   0.406   8.746  0.6706  0.1961 -0.8461
25360SOL     OW77520   5.631   6.507   6.467  0.3279 -0.4129  0.0134
25360SOL    HW177521   5.652   6.584   6.520 -0.1536  1.0303 -1.7873
25360SOL    HW277522   5.590   6.543   6.388  0.6045 -2.4834 -1.1403
25361SOL     OW77523   5.585   7.042   1.529  0.2372  0.1440 -0.1388
25361SOL    HW177524   5.639   7.097   1.472  0.3497 -2.3388 -2.6523
25361SOL    HW277525   5.495   7.069   1.509  0.2846  3.1331  2.8351
25362SOL     OW77526   4.891   1.525   2.480 -0.0237  0.0649 -0.6402
25362SOL    HW177527   4.965   1.574   2.444  0.2932  0.4237  0.4713
25362SOL    HW277528   4.842   1.589   2.530 -0.8057 -0.2926 -0.9286
25363SOL     OW77529   3.782   5.549   7.584 -0.3378  0.2328  0.0560
25363SOL    HW177530   3.745   5.466   7.553  2.0474 -0.8964 -0.0491
25363SOL    HW277531   3.824   5.526   7.667  1.1553  1.0831 -0.4243
25364SOL     OW77532   2.228   0.599   5.645  0.1240 -0.0114 -0.1793
25364SOL    HW177533   2.316   0.586   5.679  0.0181  0.5785  0.3464
25364SOL    HW277534   2.238   0.667   5.578  0.0744  0.0342 -0.1406
25365SOL     OW77535   3.249   7.142   2.817  0.0405  0.1441 -0.2850
25365SOL    HW177536   3.206   7.176   2.739 -0.7043 -1.0791 -0.4242
25365SOL    HW277537   3.178   7.123   2.878  0.6389  1.8081  1.0494
25366SOL     OW77538   1.776   4.966   9.723  0.3253  0.3664  0.6804
25366SOL    HW177539   1.744   4.998   9.639 -1.7973 -0.9980  0.9097
25366SOL    HW277540   1.856   4.917   9.701  0.3194  0.8039 -0.3958
25367SOL     OW77541   3.070   3.630   5.513 -0.2391 -0.6329 -0.3378
25367SOL    HW177542   3.064   3.560   5.578  0.7494  1.2361  1.8883
25367SOL    HW277543   2.989   3.621   5.462 -0.7747 -2.5358  0.7315
25368SOL     OW77544   6.603   1.824   3.051  0.2472 -0.2733  0.1079
25368SOL    HW177545   6.646   1.910   3.055  1.0122 -0.5461 -1.5481
25368SOL    HW277546   6.621   1.792   2.963 -2.4419 -0.9098 -0.2821
25369SOL     OW77547   6.163   5.131   6.005  0.2784 -0.3991  0.1686
25369SOL    HW177548   6.117   5.094   5.929  0.0004 -2.6829  1.3425
25369SOL    HW277549   6.255   5.135   5.977 -0.0425  0.3176 -0.8184
25370SOL     OW77550   6.274   5.498   5.841  0.0440  0.7814 -0.2051
25370SOL    HW177551   6.259   5.541   5.756 -0.7887 -0.4253 -0.7060
25370SOL    HW277552   6.314   5.414   5.818 -1.1105  0.0088  0.5115
25371SOL     OW77553   1.365   7.046   2.712  0.0314  0.0082 -0.0339
25371SOL    HW177554   1.387   6.981   2.645  0.5170  1.5288 -1.4261
25371SOL    HW277555   1.292   7.008   2.760  2.4963 -3.1261  1.5785
25372SOL     OW77556   5.891   3.415   8.236 -0.0836  0.6739  0.1716
25372SOL    HW177557   5.896   3.355   8.161  1.1243 -0.2908  0.9989
25372SOL    HW277558   5.816   3.384   8.287  0.7548 -0.3978  0.7902
25373SOL     OW77559   3.741   0.474  10.364 -0.6288  0.0279 -0.1245
25373SOL    HW177560   3.757   0.381  10.381 -2.2338 -0.3234 -0.4171
25373SOL    HW277561   3.827   0.515  10.375  0.7475 -1.8714 -2.8548
25374SOL     OW77562   1.593   4.299   1.153 -0.1237 -0.2481 -0.4705
25374SOL    HW177563   1.604   4.394   1.151  1.3836 -0.4067 -0.6278
25374SOL    HW277564   1.523   4.283   1.089 -0.4860  0.7529 -0.3560
25375SOL     OW77565   2.509   6.582   0.989 -0.3083 -0.5309  0.6883
25375SOL    HW177566   2.471   6.515   1.045 -1.2007 -0.9324 -0.3562
25375SOL    HW277567   2.585   6.615   1.037 -0.9270 -1.0071  2.0146
25376SOL     OW77568   5.178   7.427   2.617 -0.0090 -0.0384  0.0626
25376SOL    HW177569   5.141   7.417   2.529 -0.7878 -0.7138  0.4560
25376SOL    HW277570   5.113   7.478   2.664  0.4504  0.3986  0.2236
25377SOL     OW77571   2.105   0.831   9.024  0.3054 -0.4332 -0.1637
25377SOL    HW177572   2.100   0.735   9.028  0.4237 -0.4208  0.4627
25377SOL    HW277573   2.021   0.861   9.059  0.6866 -0.3108  0.6903
25378SOL     OW77574   2.691   2.307  11.574 -0.2051 -0.1509 -0.4588
25378SOL    HW177575   2.771   2.297  11.625 -1.5839 -1.9758  1.5079
25378SOL    HW277576   2.660   2.395  11.593  0.9243  0.2954 -0.6448
25379SOL     OW77577   1.220   4.291   4.257 -0.3068  0.2688 -0.6367
25379SOL    HW177578   1.136   4.287   4.211 -0.9863 -0.7499  0.6107
25379SOL    HW277579   1.228   4.382   4.285 -0.0778  0.8121 -2.3230
25380SOL     OW77580   1.636   2.545  10.670  0.8851 -0.1181 -0.0759
25380SOL    HW177581   1.574   2.487  10.714 -1.1663  0.5623 -1.8434
25380SOL    HW277582   1.621   2.529  10.577  1.6977  1.7743 -0.5878
25381SOL     OW77583   2.607   4.892   6.855 -0.0148  0.3184  0.7996
25381SOL    HW177584   2.664   4.965   6.880 -1.1565  1.7729 -0.6360
25381SOL    HW277585   2.557   4.924   6.780 -2.3515 -1.0580  1.6424
25382SOL     OW77586   3.545   7.842   5.859 -0.3297 -0.0972 -0.0986
25382SOL    HW177587   3.553   7.751   5.887  0.1419  0.2452  0.9258
25382SOL    HW277588   3.521   7.836   5.766 -2.0016 -1.2561  0.3730
25383SOL     OW77589   7.467   1.057   3.250  1.1209  0.0199 -0.2426
25383SOL    HW177590   7.494   1.031   3.338  0.5992  0.1643 -0.0318
25383SOL    HW277591   7.515   0.999   3.192  0.3952 -1.0404  0.1911
25384SOL     OW77592   1.908   7.074   2.302 -0.2026 -0.4182 -0.1668
25384SOL    HW177593   1.885   6.987   2.268 -0.8309  0.0905 -1.1000
25384SOL    HW277594   1.999   7.087   2.275  0.1461 -1.0899  0.6451
25385SOL     OW77595   2.566   4.845  10.339 -0.2252  0.2460  0.6164
25385SOL    HW177596   2.640   4.858  10.399 -0.9003  0.3477  1.4609
25385SOL    HW277597   2.606   4.827  10.254  0.7662 -0.3448  1.1885
25386SOL     OW77598   3.325   5.989   3.051  0.3679 -0.1477  0.2213
25386SOL    HW177599   3.252   6.019   3.104  0.4602 -1.2849  1.0154
25386SOL    HW277600   3.390   5.958   3.114  0.2821 -1.9687 -0.5281
25387SOL     OW77601   0.494   6.305   7.291 -0.2025 -0.2006 -0.3657
25387SOL    HW177602   0.402   6.283   7.279 -0.0900 -1.1912  0.4158
25387SOL    HW277603   0.535   6.223   7.322  1.1847 -0.1237 -1.8538
25388SOL     OW77604   0.164   3.746   0.680  0.0100 -0.3238  0.5099
25388SOL    HW177605   0.244   3.752   0.733  0.2850  2.1018 -0.0448
25388SOL    HW277606   0.195   3.759   0.590 -1.0288  1.3165  0.3473
25389SOL     OW77607   4.443   0.139   2.029 -0.4267 -0.2669 -0.3236
25389SOL    HW177608   4.471   0.049   2.041  0.1105 -0.4060 -2.2653
25389SOL    HW277609   4.348   0.133   2.017 -0.3493 -0.6155 -0.7790
25390SOL     OW77610   3.941   6.289   4.815 -0.3372  0.1569  0.0427
25390SOL    HW177611   3.992   6.333   4.884 -0.0327 -1.3302  0.8071
25390SOL    HW277612   3.959   6.196   4.828 -0.6790 -0.1911 -1.7550
25391SOL     OW77613   7.519   1.220   1.152  0.0994 -0.4109  0.4346
25391SOL    HW177614   7.559   1.133   1.163 -0.2678 -0.6918 -0.3780
25391SOL    HW277615   7.518   1.234   1.058 -0.1438  0.3452  0.5447
25392SOL     OW77616   7.367   4.389  11.092 -0.1627  0.3304 -0.1029
25392SOL    HW177617   7.379   4.358  11.182 -0.1067  0.7167  0.0232
25392SOL    HW277618   7.381   4.484  11.097 -1.8064  0.6097 -0.2176
25393SOL     OW77619   1.445   6.040   7.833  0.5157 -0.4680  0.3152
25393SOL    HW177620   1.424   5.987   7.756 -1.2667  1.0832 -0.3594
25393SOL    HW277621   1.431   6.131   7.805  0.5793  0.2009  2.2367
25394SOL     OW77622   0.880   2.271   8.164 -0.6705  0.2642 -0.8032
25394SOL    HW177623   0.905   2.307   8.248 -0.5276 -1.7219  0.0685
25394SOL    HW277624   0.918   2.183   8.163 -2.8922 -0.7715 -1.7764
25395SOL     OW77625   1.309   7.738   3.739  0.0040 -0.1347 -0.3777
25395SOL    HW177626   1.339   7.693   3.818  0.1439 -1.4664 -1.1737
25395SOL    HW277627   1.232   7.787   3.768 -0.5957 -1.4595  0.3771
25396SOL     OW77628   4.009   3.223  11.927 -0.0878  0.1750  0.2905
25396SOL    HW177629   4.044   3.310  11.908  0.2154  0.2317  1.0528
25396SOL    HW277630   4.028   3.210  12.020  0.4719 -0.9719  0.0418
25397SOL     OW77631   4.433   7.540   3.447  0.8272  0.4434 -0.0048
25397SOL    HW177632   4.348   7.555   3.488  0.4499 -0.4065 -0.4598
25397SOL    HW277633   4.432   7.448   3.421  1.8194  0.4654 -0.1718
25398SOL     OW77634   6.897   7.848   5.621 -0.2168 -0.0776  0.0811
25398SOL    HW177635   6.806   7.821   5.611 -0.2502 -0.2744  0.8289
25398SOL    HW277636   6.897   7.941   5.598 -0.3810 -0.3458 -1.0495
25399SOL     OW77637   7.395   4.335   8.068  0.3365  0.7043 -0.3920
25399SOL    HW177638   7.392   4.428   8.089  0.2534  0.3952  1.0637
25399SOL    HW277639   7.304   4.312   8.049  0.2764  0.8051 -0.2270
25400SOL     OW77640   0.545   1.152   2.254 -0.2515 -0.4885 -0.2867
25400SOL    HW177641   0.545   1.246   2.274  2.6040 -0.5521  0.4192
25400SOL    HW277642   0.508   1.146   2.166 -0.3180  1.3150 -0.4122
25401SOL     OW77643   1.552   0.319   9.452  0.3756  0.1725  0.0688
25401SOL    HW177644   1.506   0.235   9.460 -1.3433  1.0836  0.0334
25401SOL    HW277645   1.490   0.384   9.485  1.2850  1.5513 -0.8558
25402SOL     OW77646   6.934   7.633  11.649 -0.4930  0.4453  0.4194
25402SOL    HW177647   6.867   7.701  11.653 -1.8395 -0.8495  0.5746
25402SOL    HW277648   6.909   7.570  11.716 -0.6890 -1.4412 -1.3585
25403SOL     OW77649   0.219   0.195   6.468  0.8322 -0.0600 -0.3243
25403SOL    HW177650   0.230   0.145   6.549  0.7083  0.5234  0.0505
25403SOL    HW277651   0.262   0.279   6.485  0.0969  0.3712 -0.5795
25404SOL     OW77652   5.632   3.727   5.417  0.0339 -0.0529 -0.0455
25404SOL    HW177653   5.542   3.730   5.448  0.3649  0.6994  0.8854
25404SOL    HW277654   5.685   3.722   5.496  0.7974 -1.6167 -0.6020
25405SOL     OW77655   0.903   4.626   5.442 -0.0221  0.3287 -0.3790
25405SOL    HW177656   0.877   4.689   5.375 -1.5563  2.7509  2.2806
25405SOL    HW277657   0.824   4.573   5.456 -0.9656  2.1379  1.7957
25406SOL     OW77658   1.877   0.538  10.195 -0.0090  0.2696 -0.5284
25406SOL    HW177659   1.949   0.590  10.231 -1.1378  0.2111  2.0773
25406SOL    HW277660   1.905   0.516  10.107  2.1378  2.1718 -0.4293
25407SOL     OW77661   3.978   2.284   9.754  0.4710  0.0377  0.3739
25407SOL    HW177662   3.927   2.356   9.791 -0.1024 -0.5356  0.7199
25407SOL    HW277663   3.987   2.222   9.826  2.0710  0.3245  0.4603
25408SOL     OW77664   1.258   3.430   0.521 -0.2693  0.1451  0.1795
25408SOL    HW177665   1.351   3.411   0.530 -0.0994  0.4883 -0.7424
25408SOL    HW277666   1.255   3.512   0.473 -1.0296  1.0764  1.7424
25409SOL     OW77667   1.862   2.729  11.268  0.0386 -0.2764 -0.3715
25409SOL    HW177668   1.905   2.682  11.197 -1.5684 -1.2491 -0.7505
25409SOL    HW277669   1.782   2.764  11.228  0.4734  1.5613  0.2758
25410SOL     OW77670   1.235   2.277   6.420  0.2946 -0.1102  0.1851
25410SOL    HW177671   1.320   2.299   6.382  0.2897 -0.2970  0.0675
25410SOL    HW277672   1.234   2.181   6.425 -0.3265 -0.1621 -0.7691
25411SOL     OW77673   7.782   3.995   5.116  0.1337  0.5890  0.7493
25411SOL    HW177674   7.713   3.932   5.095 -0.1612  1.1334  0.0301
25411SOL    HW277675   7.749   4.043   5.191  0.0385  0.3891  0.8377
25412SOL     OW77676   7.465   3.591  12.192 -0.6646  0.1718 -0.2572
25412SOL    HW177677   7.505   3.644  12.260 -0.6702  0.7361 -0.6865
25412SOL    HW277678   7.371   3.590  12.213 -0.6116  0.0033 -0.0300
25413SOL     OW77679   6.205   3.052   1.539  0.7965  0.4523 -0.1885
25413SOL    HW177680   6.158   3.059   1.622 -1.3499 -1.3414 -1.1356
25413SOL    HW277681   6.200   3.140   1.501 -1.4682  0.4681 -0.0005
25414SOL     OW77682   1.795   1.546  10.668 -0.3145 -0.1733  0.0918
25414SOL    HW177683   1.839   1.468  10.701 -0.3936 -1.3742 -2.4569
25414SOL    HW277684   1.702   1.531  10.688 -0.1580  0.0573  1.0456
25415SOL     OW77685   7.687   6.135  10.662  0.3324  0.1916  0.0602
25415SOL    HW177686   7.638   6.215  10.644  1.4375  0.7592 -0.5074
25415SOL    HW277687   7.674   6.080  10.584 -0.5770 -0.2941  0.5253
25416SOL     OW77688   4.962   1.146   3.818  0.1667 -0.1549  0.1722
25416SOL    HW177689   4.936   1.227   3.774 -0.6509 -0.6829 -0.3371
25416SOL    HW277690   4.916   1.076   3.770  0.2581 -0.8504  1.0679
25417SOL     OW77691   0.614   2.509   2.172 -0.4489  0.2101 -0.2717
25417SOL    HW177692   0.629   2.592   2.218  0.2227 -0.6770  1.1569
25417SOL    HW277693   0.699   2.488   2.134 -0.1203 -0.7697  0.9809
25418SOL     OW77694   2.213   6.769  11.724 -0.3611  0.4434 -0.0105
25418SOL    HW177695   2.275   6.809  11.786 -0.2770  0.6183 -0.2064
25418SOL    HW277696   2.269   6.717  11.666 -0.4423  0.2634  0.0721
25419SOL     OW77697   3.905   0.630   0.123 -0.1041 -0.3365  0.1840
25419SOL    HW177698   3.890   0.542   0.158  1.6806 -0.0153  1.9478
25419SOL    HW277699   4.000   0.643   0.132 -0.0487  1.0774 -1.8105
25420SOL     OW77700   7.302   2.531   8.020 -0.2358  0.2132 -0.0239
25420SOL    HW177701   7.392   2.535   8.053 -0.8339 -1.9868  2.0886
25420SOL    HW277702   7.260   2.609   8.057  0.4591  0.5715  0.0280
25421SOL     OW77703   7.428   2.857   4.318  0.8430 -0.0979 -0.3093
25421SOL    HW177704   7.519   2.882   4.300  0.7292  0.9747  0.4864
25421SOL    HW277705   7.379   2.939   4.309  0.4955  0.1675  2.7963
25422SOL     OW77706   6.282   0.322  10.011 -0.9676  0.1502  0.7376
25422SOL    HW177707   6.370   0.317  10.047 -0.3878  1.8492 -0.3053
25422SOL    HW277708   6.243   0.398  10.054 -1.3417  0.3716  0.0292
25423SOL     OW77709   0.948   0.074   5.934 -0.0270 -0.3456  0.2447
25423SOL    HW177710   0.917   0.165   5.931 -0.2024 -0.3858  0.8195
25423SOL    HW277711   1.041   0.082   5.954  0.2770 -0.2414 -1.1071
25424SOL     OW77712   7.499   4.225   2.914  0.4909 -0.3263 -0.5961
25424SOL    HW177713   7.554   4.171   2.970 -0.4319  0.2909  0.9756
25424SOL    HW277714   7.561   4.277   2.863  1.3570 -1.0461 -0.3092
25425SOL     OW77715   3.177   5.488   0.625  0.0846 -0.2080 -0.5984
25425SOL    HW177716   3.262   5.484   0.667 -0.5443 -0.3105  0.7215
25425SOL    HW277717   3.193   5.533   0.542  1.1503  1.2641  0.3562
25426SOL     OW77718   0.204   4.810  12.273 -0.2674 -0.4013  0.1362
25426SOL    HW177719   0.137   4.745  12.251 -0.5398 -0.4027  0.9267
25426SOL    HW277720   0.155   4.892  12.281  0.1447  0.0063 -1.3217
25427SOL     OW77721   6.997   1.467  11.013 -0.0428 -0.4100  0.0798
25427SOL    HW177722   6.931   1.398  11.022 -1.1737  0.6185 -0.0372
25427SOL    HW277723   7.039   1.449  10.929  0.0911 -1.2793  0.3183
25428SOL     OW77724   1.901   7.393   3.459  0.3254 -0.7456  0.0213
25428SOL    HW177725   1.917   7.379   3.366  1.4904 -1.6469  0.3272
25428SOL    HW277726   1.835   7.328   3.482 -0.4719 -0.0719 -0.2920
25429SOL     OW77727   7.545   2.883   0.798  0.2162  0.4278  0.0760
25429SOL    HW177728   7.479   2.923   0.855 -0.8874 -0.5418 -0.4652
25429SOL    HW277729   7.503   2.881   0.712  0.0101 -2.2744  0.1654
25430SOL     OW77730   5.933   0.649   4.692  0.2529 -0.4710 -0.3301
25430SOL    HW177731   5.850   0.612   4.660 -0.2399 -0.0339  0.4142
25430SOL    HW277732   5.907   0.710   4.761  1.3227 -1.9519  1.4617
25431SOL     OW77733   7.560   5.538   2.141  0.0229  0.1162 -0.0212
25431SOL    HW177734   7.530   5.506   2.056  0.1638 -1.1964  0.4040
25431SOL    HW277735   7.494   5.603   2.166 -1.2080 -1.0131 -0.1849
25432SOL     OW77736   6.785   2.807   0.106 -0.3413  0.0876  0.5611
25432SOL    HW177737   6.722   2.816   0.178  0.7183  0.8311  1.4265
25432SOL    HW277738   6.793   2.895   0.070 -1.3100 -0.3870 -0.8936
25433SOL     OW77739   3.918   5.933   9.527 -0.2468  0.2305  0.3395
25433SOL    HW177740   3.950   5.852   9.566 -2.2513 -0.8240 -0.0844
25433SOL    HW277741   3.919   5.996   9.600  1.2256 -0.1622  0.6939
25434SOL     OW77742   0.622   1.883  11.680 -0.1949  0.6563  0.8452
25434SOL    HW177743   0.712   1.899  11.653 -0.9300  2.1241 -0.9192
25434SOL    HW277744   0.582   1.838  11.606 -0.9668  0.1184  1.5692
25435SOL     OW77745   4.863   7.913   1.294  0.1155  0.3817 -0.2514
25435SOL    HW177746   4.831   7.836   1.340  1.6746 -0.3238 -0.2743
25435SOL    HW277747   4.799   7.982   1.315 -1.7965 -1.0978 -0.9634
25436SOL     OW77748   7.806   7.116   4.748  0.6057 -0.0862 -0.1279
25436SOL    HW177749   7.711   7.130   4.749  0.6736  0.3779  0.1597
25436SOL    HW277750   7.827   7.094   4.839  0.8221  0.1557 -0.1177
25437SOL     OW77751   7.318   0.079   9.942  0.4521 -0.5229 -0.3359
25437SOL    HW177752   7.281   0.055   9.857  0.3206 -1.1541 -0.1074
25437SOL    HW277753   7.357  -0.002   9.975  1.3966 -0.0455 -0.2414
25438SOL     OW77754   7.803   5.774   7.990 -0.5654 -0.3807 -0.0552
25438SOL    HW177755   7.784   5.861   7.956 -1.6684 -1.2478 -1.7503
25438SOL    HW277756   7.897   5.763   7.978 -0.8729 -0.5612 -2.7081
25439SOL     OW77757   3.978   6.504   4.174 -0.2450 -0.3120 -0.3403
25439SOL    HW177758   3.916   6.431   4.171 -0.0551 -0.5050  0.2382
25439SOL    HW277759   3.923   6.582   4.172 -0.4515 -0.4642 -0.9143
25440SOL     OW77760   5.125   4.142   9.216 -0.8370  0.2463  0.1463
25440SOL    HW177761   5.095   4.200   9.146 -0.7738 -0.6414 -0.6437
25440SOL    HW277762   5.046   4.122   9.265 -0.8693  0.9444  0.3901
25441SOL     OW77763   2.161   6.781   8.622  0.0894 -0.2772  0.1441
25441SOL    HW177764   2.085   6.725   8.606 -0.5108  0.9681 -1.6446
25441SOL    HW277765   2.133   6.838   8.694 -0.5388 -0.0782 -0.2496
25442SOL     OW77766   3.906   0.037   7.691 -0.0734 -0.3825  0.1107
25442SOL    HW177767   3.941   0.072   7.773  1.1928 -1.6585  0.1565
25442SOL    HW277768   3.962  -0.038   7.671 -1.1479 -0.8656 -1.2674
25443SOL     OW77769   0.996   6.482  11.044  0.0562 -0.4432  0.0056
25443SOL    HW177770   1.085   6.511  11.064  0.8749 -1.6511 -1.5950
25443SOL    HW277771   0.983   6.509  10.953 -1.3621 -0.0037  0.3213
25444SOL     OW77772   0.978   7.200   4.527  0.5383 -0.5073 -0.0886
25444SOL    HW177773   0.899   7.164   4.568  1.0624 -0.3527  1.0894
25444SOL    HW277774   0.958   7.293   4.513  0.6702 -0.3614  0.6470
25445SOL     OW77775   6.407   4.754   6.089  0.0085 -0.2939 -0.4890
25445SOL    HW177776   6.371   4.725   6.005  0.5699 -0.7349 -0.5840
25445SOL    HW277777   6.338   4.809   6.127 -0.4873 -0.5667 -0.9736
25446SOL     OW77778   5.815   3.028  10.723  0.1705  0.3570 -0.3609
25446SOL    HW177779   5.850   3.054  10.808 -0.6418 -0.2635  0.1802
25446SOL    HW277780   5.733   3.076  10.715  1.5421  2.6435 -2.1016
25447SOL     OW77781   0.839   2.103   7.335 -0.1232  0.2268  0.1262
25447SOL    HW177782   0.751   2.135   7.313  0.1077  2.0872  1.6500
25447SOL    HW277783   0.832   2.074   7.425  0.8045  0.2805  0.2194
25448SOL     OW77784   2.038   6.895   0.627 -0.7655  0.0304  0.1990
25448SOL    HW177785   2.045   6.802   0.606 -2.6561 -0.0443 -0.2895
25448SOL    HW277786   1.949   6.904   0.662 -0.6302  1.6662  0.1729
25449SOL     OW77787   0.244   3.555   4.078 -0.2484  0.3688 -0.4596
25449SOL    HW177788   0.246   3.498   4.155  2.4232  1.1807  0.1882
25449SOL    HW277789   0.303   3.512   4.015  0.0050  1.2621 -0.8440
25450SOL     OW77790   4.509   0.117   0.014  0.2827 -0.2126  0.1580
25450SOL    HW177791   4.463   0.103   0.097  0.1347  1.9072  0.4748
25450SOL    HW277792   4.443   0.100  -0.053 -0.3921  0.7792  0.5555
25451SOL     OW77793   7.336   3.891   7.326  0.4131  0.1349 -0.0422
25451SOL    HW177794   7.258   3.946   7.328  0.4250  0.1548 -0.1101
25451SOL    HW277795   7.312   3.813   7.376  0.1208 -0.1666 -0.6437
25452SOL     OW77796   5.676   3.077   3.331 -0.5440  0.4042 -0.4235
25452SOL    HW177797   5.645   3.107   3.416  1.3362  2.1051 -0.2571
25452SOL    HW277798   5.731   3.001   3.350 -0.9551  0.1520 -0.2397
25453SOL     OW77799   6.655   1.867   2.160  0.0694  0.1635 -0.6636
25453SOL    HW177800   6.702   1.818   2.092  0.2556  0.5101 -0.7863
25453SOL    HW277801   6.582   1.908   2.114  0.1061  0.2702 -0.6290
25454SOL     OW77802   7.405   3.241   3.355 -0.2198 -0.4827 -0.5592
25454SOL    HW177803   7.412   3.205   3.267 -0.0672  0.2717 -0.8611
25454SOL    HW277804   7.346   3.181   3.401 -0.1458 -0.9868 -1.1116
25455SOL     OW77805   2.871   5.170   2.470 -0.1233  0.2093  0.0839
25455SOL    HW177806   2.876   5.220   2.551 -0.4648 -1.3208  1.0985
25455SOL    HW277807   2.950   5.192   2.422 -0.5066  2.0755  0.2502
25456SOL     OW77808   6.029   0.296   7.610  0.7107  0.2951 -0.0720
25456SOL    HW177809   6.000   0.384   7.587 -0.2544 -0.5178 -2.2230
25456SOL    HW277810   6.093   0.273   7.543 -0.7160 -1.4371 -0.9419
25457SOL     OW77811   3.475   1.284   7.413  0.8035  0.2693 -0.2388
25457SOL    HW177812   3.552   1.285   7.356 -0.9565  0.7841 -2.7817
25457SOL    HW277813   3.402   1.301   7.354 -1.4271 -1.4777  1.8360
25458SOL     OW77814   0.957   3.018   1.863 -0.3630  0.1963  0.9254
25458SOL    HW177815   0.935   3.041   1.773  0.0302  0.2856  0.8481
25458SOL    HW277816   0.959   2.922   1.864  0.0311  0.1985  0.7350
25459SOL     OW77817   6.086   1.058   0.773 -0.1102  0.2715  0.4059
25459SOL    HW177818   6.015   1.021   0.826  1.0767  1.8056  3.2975
25459SOL    HW277819   6.058   1.148   0.756  0.8637  0.7273  1.1238
25460SOL     OW77820   0.892   0.596   1.051  0.0078 -0.8386 -0.2794
25460SOL    HW177821   0.809   0.633   1.019 -0.2565 -0.6050  0.6459
25460SOL    HW277822   0.951   0.670   1.057  0.2429 -0.9789 -0.7740
25461SOL     OW77823   1.232   1.783   8.015 -0.8684 -0.6563 -0.0959
25461SOL    HW177824   1.283   1.763   8.094 -0.3832 -2.0533 -0.7233
25461SOL    HW277825   1.218   1.697   7.974  0.6588  0.2208 -2.6033
25462SOL     OW77826   7.009   5.388   4.078  0.7250  0.3389  0.2515
25462SOL    HW177827   7.013   5.457   4.013  1.2302 -0.1602 -0.2490
25462SOL    HW277828   6.980   5.432   4.158  1.3031  1.1757  0.0071
25463SOL     OW77829   6.659   7.627   3.468 -0.2973  0.6758  0.0015
25463SOL    HW177830   6.665   7.535   3.443  2.5453  0.8631 -0.2592
25463SOL    HW277831   6.581   7.631   3.524 -0.7894 -1.7589 -0.3920
25464SOL     OW77832   3.821   5.613   3.892 -0.5248  0.5234 -0.4060
25464SOL    HW177833   3.855   5.570   3.814 -1.4031  0.5640 -0.8186
25464SOL    HW277834   3.899   5.632   3.944  0.1004  0.7269 -1.3859
25465SOL     OW77835   6.959   0.111   0.933  0.4814  0.1480  0.3212
25465SOL    HW177836   6.946   0.072   1.019 -1.6599  3.0270  1.4579
25465SOL    HW277837   7.035   0.169   0.944  1.5645 -1.0511 -0.4317
25466SOL     OW77838   1.807   0.456   2.102 -0.5558  0.1352  0.2088
25466SOL    HW177839   1.894   0.486   2.128 -0.4903  0.4463 -0.3656
25466SOL    HW277840   1.747   0.501   2.161 -0.3021 -0.4499  0.9271
25467SOL     OW77841   1.801   2.675   4.319 -0.4863  0.3246  0.0337
25467SOL    HW177842   1.768   2.694   4.407  0.5473  0.3340  0.4286
25467SOL    HW277843   1.749   2.600   4.290 -0.7856  0.2727  0.6809
25468SOL     OW77844   5.207   4.297   4.694  0.1672  0.3268  0.4749
25468SOL    HW177845   5.248   4.217   4.728  0.4839  0.5609  0.6473
25468SOL    HW277846   5.113   4.283   4.705  0.1477 -0.5366 -0.6118
25469SOL     OW77847   4.030   5.852   1.786 -0.0777 -0.2145  0.0271
25469SOL    HW177848   4.101   5.891   1.836 -0.6055 -0.3831  0.9418
25469SOL    HW277849   3.955   5.853   1.846 -0.6026 -0.8732 -0.5942
25470SOL     OW77850   4.587   3.921   3.890 -0.5495  0.3199 -0.2848
25470SOL    HW177851   4.668   3.896   3.934 -1.2112  1.3295  1.6145
25470SOL    HW277852   4.614   3.945   3.802  1.4214  1.7689  0.6497
25471SOL     OW77853   7.073   4.746   9.577 -0.9357  0.4769  0.5525
25471SOL    HW177854   7.152   4.750   9.523 -1.8491  1.8086 -0.7470
25471SOL    HW277855   7.098   4.787   9.660  0.8177 -2.6069  1.7029
25472SOL     OW77856   0.803   0.655  10.938  0.2054 -0.4791  0.3505
25472SOL    HW177857   0.750   0.699  11.004  1.2662 -0.2737  1.0915
25472SOL    HW277858   0.742   0.638  10.866 -0.9329 -0.5529  1.3005
25473SOL     OW77859   1.503   3.391  12.180 -0.6588  0.4394  0.1803
25473SOL    HW177860   1.413   3.360  12.181 -0.7976  0.7256 -1.0788
25473SOL    HW277861   1.505   3.457  12.110  0.8216 -0.5287 -0.7639
25474SOL     OW77862   4.369   0.209   8.217 -0.0463 -0.6140 -0.2912
25474SOL    HW177863   4.314   0.166   8.283 -0.3441 -0.1134 -0.2033
25474SOL    HW277864   4.448   0.236   8.265 -0.1592 -0.4605 -0.1891
25475SOL     OW77865   4.443   6.309   2.942 -0.1424 -0.1790  0.0421
25475SOL    HW177866   4.441   6.222   2.983  1.1907  0.4463  1.5770
25475SOL    HW277867   4.511   6.356   2.991 -0.4942  1.5720 -1.0780
25476SOL     OW77868   1.122   7.877   9.021  0.5054 -0.5051  0.4769
25476SOL    HW177869   1.088   7.797   9.059 -3.3718  0.1881 -1.0959
25476SOL    HW277870   1.081   7.948   9.072  0.0736  0.4173 -1.0827
25477SOL     OW77871   2.393   7.672  11.692  0.1886  0.0932  0.0055
25477SOL    HW177872   2.309   7.713  11.673  0.3648  0.3467 -0.2365
25477SOL    HW277873   2.424   7.641  11.607  0.1232 -0.4146  0.1644
25478SOL     OW77874   7.979   7.703   9.019  0.2471  0.2921  0.0158
25478SOL    HW177875   8.044   7.701   9.089 -0.2188 -0.0167  0.4464
25478SOL    HW277876   8.030   7.724   8.940  0.8630  0.0804  0.3473
25479SOL     OW77877   7.933   3.598  11.956  0.6978  0.1813  0.4051
25479SOL    HW177878   7.965   3.548  11.881 -1.5689  1.2638 -1.4500
25479SOL    HW277879   7.857   3.549  11.987 -1.0227  1.8545 -0.8888
25480SOL     OW77880   2.427   1.071   2.331  0.2344  0.3109 -0.1083
25480SOL    HW177881   2.506   1.019   2.346 -0.0036  0.2325  0.9047
25480SOL    HW277882   2.377   1.064   2.412 -0.2910  1.2765 -0.3313
25481SOL     OW77883   2.535   2.788   9.277 -0.4665 -0.2804 -0.2644
25481SOL    HW177884   2.474   2.773   9.350 -0.1352  1.5373  0.4595
25481SOL    HW277885   2.622   2.785   9.317 -0.2554  0.1824 -0.6700
25482SOL     OW77886   1.018   2.970   3.577  0.1790 -0.3788  0.5908
25482SOL    HW177887   1.084   2.996   3.641 -0.5714 -0.0901  1.2693
25482SOL    HW277888   1.058   2.898   3.529  1.4955  0.6452  0.0898
25483SOL     OW77889   2.006   6.563   1.868  0.0704  0.0750 -0.3803
25483SOL    HW177890   1.932   6.544   1.926  0.8432 -3.9238 -0.4066
25483SOL    HW277891   2.006   6.490   1.806  3.9353 -0.0770 -0.4401
25484SOL     OW77892   4.029   3.719   3.192  0.4136  0.0484  0.1241
25484SOL    HW177893   4.092   3.766   3.246  0.4530  1.0001 -0.7139
25484SOL    HW277894   4.077   3.694   3.113 -0.0262  0.0048 -0.1380
25485SOL     OW77895   6.900   4.754   4.427  0.5204  0.1036 -0.3622
25485SOL    HW177896   6.946   4.702   4.493  1.6263  1.0696 -0.3357
25485SOL    HW277897   6.809   4.723   4.431  1.2154 -2.2185 -0.7527
25486SOL     OW77898   6.067   3.383   1.828  0.0233  0.1834  0.2651
25486SOL    HW177899   6.119   3.448   1.781 -1.2304  1.5521  0.7023
25486SOL    HW277900   6.123   3.354   1.900  0.5990  0.7676  0.0537
25487SOL     OW77901   2.829   2.290   2.675 -0.3065  0.0625  0.1811
25487SOL    HW177902   2.906   2.340   2.700  0.8546  0.1822 -3.1127
25487SOL    HW277903   2.863   2.203   2.653 -0.7213  0.4839 -2.5879
25488SOL     OW77904   2.898   3.308   5.213 -0.0570 -0.7393  0.3532
25488SOL    HW177905   2.876   3.224   5.253 -1.0112 -0.3764  0.6214
25488SOL    HW277906   2.842   3.313   5.136 -1.4310  0.4591  1.3696
25489SOL     OW77907   1.919   3.850   3.690 -0.1311  0.4462  0.8541
25489SOL    HW177908   1.954   3.855   3.601  0.8502 -0.3165  1.1716
25489SOL    HW277909   1.988   3.886   3.745  0.1850 -1.0291  1.4941
25490SOL     OW77910   3.200   0.987   1.365  0.3009 -0.1214  0.6520
25490SOL    HW177911   3.109   0.992   1.336  0.8672  1.4764 -1.0175
25490SOL    HW277912   3.226   0.896   1.347 -0.3624 -0.0466 -0.8291
25491SOL     OW77913   1.309   3.068   8.873 -0.6688 -0.0425  0.1706
25491SOL    HW177914   1.251   3.101   8.942 -0.4172  0.5559  0.0996
25491SOL    HW277915   1.396   3.094   8.900 -0.7368  1.9817 -1.3488
25492SOL     OW77916   3.267   7.575   9.401  0.4700 -0.3613 -0.1876
25492SOL    HW177917   3.232   7.497   9.359 -0.3573 -0.7288  1.1172
25492SOL    HW277918   3.332   7.609   9.339  0.4577 -1.7718 -1.0159
25493SOL     OW77919   0.663   4.404   4.173 -0.2644 -0.1162 -0.2088
25493SOL    HW177920   0.711   4.354   4.239 -1.4233 -0.9967 -0.0015
25493SOL    HW277921   0.691   4.366   4.090  1.4936  1.2490 -0.3212
25494SOL     OW77922   7.425   4.083   5.830  0.1681 -0.0534 -0.6551
25494SOL    HW177923   7.470   4.001   5.854  0.0319  0.2907  0.9326
25494SOL    HW277924   7.496   4.143   5.807  0.2494 -0.6989 -2.1759
25495SOL     OW77925   3.261   2.838  11.540  0.1256 -0.4244 -0.1206
25495SOL    HW177926   3.167   2.829  11.526 -0.0367 -0.5470  0.9647
25495SOL    HW277927   3.271   2.925  11.580  0.3330 -0.8903  0.8640
25496SOL     OW77928   4.542   7.441  10.277 -0.5541  0.2995 -0.3674
25496SOL    HW177929   4.541   7.345  10.285 -2.0467  0.3458  0.3640
25496SOL    HW277930   4.505   7.457  10.190  1.7330  0.1948 -1.4293
25497SOL     OW77931   2.543   2.678   5.766 -0.0406 -0.1399 -0.1496
25497SOL    HW177932   2.453   2.647   5.761 -0.6098  1.4918 -0.6335
25497SOL    HW277933   2.575   2.645   5.850 -1.8448  1.0949  1.1028
25498SOL     OW77934   2.652   4.892   7.863 -0.5048 -0.2027 -0.3865
25498SOL    HW177935   2.678   4.984   7.870 -1.2927  0.2757 -2.8452
25498SOL    HW277936   2.723   4.844   7.906 -1.2235  1.5582  3.2334
25499SOL     OW77937   0.645   5.471   7.128  0.5064  0.1691 -0.3349
25499SOL    HW177938   0.553   5.489   7.113 -0.2557 -2.5492  0.5473
25499SOL    HW277939   0.655   5.472   7.224  1.6212  1.2654 -0.4313
25500SOL     OW77940   0.177   4.191   8.677  0.1008 -0.6746 -0.5601
25500SOL    HW177941   0.259   4.150   8.706 -1.0331 -2.7011  0.0134
25500SOL    HW277942   0.152   4.247   8.750  0.6018 -0.6160 -0.4275
25501SOL     OW77943   7.690   6.782  11.219 -0.5520  0.5989 -0.2314
25501SOL    HW177944   7.629   6.802  11.148 -1.6960 -1.3010  0.1160
25501SOL    HW277945   7.774   6.818  11.191 -1.4876  1.8913 -1.4761
25502SOL     OW77946   3.639   5.389   5.436 -0.0997  0.5675  0.0971
25502SOL    HW177947   3.574   5.448   5.473  0.6632  3.1959 -2.4262
25502SOL    HW277948   3.721   5.412   5.480 -0.1603 -0.1720  0.6262
25503SOL     OW77949   5.212   1.670   3.867  0.2771 -0.3567  0.2111
25503SOL    HW177950   5.200   1.697   3.958  1.1825  2.3434 -0.3556
25503SOL    HW277951   5.298   1.629   3.865  0.2079 -0.5252  0.5903
25504SOL     OW77952   1.422   1.375   2.925  0.0984 -0.5981 -0.9056
25504SOL    HW177953   1.421   1.402   2.833 -0.5059 -0.1864 -0.7838
25504SOL    HW277954   1.371   1.294   2.927 -1.5292  0.3823 -0.6561
25505SOL     OW77955   6.587   6.629   1.179 -0.4005  0.0708 -0.0834
25505SOL    HW177956   6.636   6.626   1.097  0.7567 -3.0982  0.5862
25505SOL    HW277957   6.654   6.631   1.247 -1.3336  1.1136  0.8582
25506SOL     OW77958   7.660   2.631   3.414  0.3410  1.0615 -0.2323
25506SOL    HW177959   7.711   2.707   3.388 -0.4559  1.7182  0.0665
25506SOL    HW277960   7.705   2.556   3.374  0.9223  1.7248 -0.8421
25507SOL     OW77961   4.036   4.899   8.744  0.1173  0.3700 -0.2573
25507SOL    HW177962   3.954   4.876   8.701  0.5810  1.2287 -1.6667
25507SOL    HW277963   4.015   4.900   8.837 -1.3746  0.2226 -0.5705
25508SOL     OW77964   5.866   3.821   0.327  0.3306  0.2842 -0.5469
25508SOL    HW177965   5.893   3.910   0.350  0.6888  0.1636 -0.4881
25508SOL    HW277966   5.835   3.827   0.237  0.2916  0.4801 -0.5199
25509SOL     OW77967   1.666   7.732   0.768 -0.3808 -0.8578 -0.3984
25509SOL    HW177968   1.666   7.707   0.860  0.3103 -0.5693 -0.3202
25509SOL    HW277969   1.667   7.828   0.769 -0.4521 -0.8533 -0.7093
25510SOL     OW77970   5.908   1.437  10.980  0.4749  0.2879  0.4650
25510SOL    HW177971   5.818   1.413  11.003  0.9328 -0.7752  1.2049
25510SOL    HW277972   5.951   1.355  10.958  0.8870  0.9431 -1.3859
25511SOL     OW77973   1.786   6.440  10.526 -0.9510 -0.1957  0.4772
25511SOL    HW177974   1.732   6.395  10.461 -1.1764  1.5239 -0.5729
25511SOL    HW277975   1.757   6.531  10.523  1.4304  0.6395  0.4533
25512SOL     OW77976   0.124   4.131  11.857 -0.2969 -0.3852 -0.6121
25512SOL    HW177977   0.200   4.169  11.814  0.7662 -1.4477  0.2723
25512SOL    HW277978   0.081   4.079  11.789 -0.7684  0.9044 -1.3478
25513SOL     OW77979   4.993   5.206   0.349  0.1905 -0.4541  0.0962
25513SOL    HW177980   5.034   5.176   0.431 -1.2029  1.6436  1.6639
25513SOL    HW277981   5.062   5.255   0.305  0.5379 -0.3302  0.7570
25514SOL     OW77982   5.362   1.040   7.702  0.6729 -0.0740 -0.3456
25514SOL    HW177983   5.300   1.084   7.644  0.5666 -2.4656 -2.1953
25514SOL    HW277984   5.446   1.048   7.657  0.9793 -0.2583  0.1844
25515SOL     OW77985   7.599   6.601   6.081  0.1753  0.4258  0.0850
25515SOL    HW177986   7.680   6.555   6.058  0.2300  0.5747 -0.0177
25515SOL    HW277987   7.564   6.551   6.155 -0.3120 -0.4216 -0.6868
25516SOL     OW77988   1.992   0.404   0.772 -0.1795  0.1017  0.3504
25516SOL    HW177989   2.053   0.386   0.843 -0.3123 -1.5088  0.0951
25516SOL    HW277990   2.048   0.421   0.696 -0.0240 -0.5090  0.3189
25517SOL     OW77991   3.006   5.921   3.256 -0.5207  0.5653 -0.1762
25517SOL    HW177992   2.976   5.835   3.226 -0.8522  0.4881  0.3651
25517SOL    HW277993   2.934   5.954   3.310  0.2192  0.5155  0.8840
25518SOL     OW77994   2.327   0.988  10.770  0.0490 -0.0338  0.1940
25518SOL    HW177995   2.248   0.955  10.727  1.6299 -2.7830 -0.8607
25518SOL    HW277996   2.323   1.083  10.759 -1.4274 -0.3474 -2.9234
25519SOL     OW77997   4.991   3.585   8.957  0.1823 -0.2532 -0.4512
25519SOL    HW177998   5.061   3.648   8.975 -0.5363  0.4219  0.0712
25519SOL    HW277999   4.918   3.614   9.012 -0.2781 -1.3571 -0.4475
25520SOL     OW78000   2.116   1.554   5.216 -0.1723 -0.2967 -0.1125
25520SOL    HW178001   2.165   1.588   5.291 -0.5389 -0.4410  0.1952
25520SOL    HW278002   2.179   1.555   5.144  0.5924 -1.3904  0.5058
25521SOL     OW78003   7.552   0.926   2.605  0.1057 -0.1448  0.7856
25521SOL    HW178004   7.523   1.017   2.612 -1.4472 -0.6499  1.2520
25521SOL    HW278005   7.627   0.929   2.544 -0.5536  1.2980  0.0053
25522SOL     OW78006   7.418   6.367   4.240 -0.2325  0.3561  0.2709
25522SOL    HW178007   7.466   6.322   4.169 -0.5131  0.1430  0.2160
25522SOL    HW278008   7.487   6.410   4.291  0.2497 -1.6455  1.4241
25523SOL     OW78009   1.362   4.815  10.669  0.4262  0.1469 -0.4636
25523SOL    HW178010   1.328   4.754  10.735 -0.6379  0.5264 -0.6444
25523SOL    HW278011   1.298   4.886  10.667 -0.0642 -0.2768 -2.5484
25524SOL     OW78012   0.847   6.396   1.927 -0.0420  0.2397 -0.0506
25524SOL    HW178013   0.796   6.476   1.932 -0.5698 -0.0086 -1.1871
25524SOL    HW278014   0.786   6.330   1.895  0.2209 -0.7820  1.4741
25525SOL     OW78015   1.070   7.957   2.358 -0.0972 -0.2174 -0.5127
25525SOL    HW178016   1.104   7.936   2.444 -1.2657 -0.7125 -0.1517
25525SOL    HW278017   1.011   8.030   2.373  0.8927  0.7393 -1.1529
25526SOL     OW78018   6.230   3.653   7.692 -0.3960  0.1552 -0.4283
25526SOL    HW178019   6.324   3.669   7.690 -0.4769  0.6887 -2.3766
25526SOL    HW278020   6.213   3.619   7.780  1.4070  1.2077  0.3900
25527SOL     OW78021   7.968   3.164  11.424 -0.2218 -0.3725  0.2614
25527SOL    HW178022   8.002   3.191  11.509  3.4469  0.0769 -1.2023
25527SOL    HW278023   7.948   3.246  11.378 -0.1243 -0.5302 -0.0698
25528SOL     OW78024   5.785   0.334   4.126  0.5944  0.0752 -0.2468
25528SOL    HW178025   5.704   0.370   4.163 -0.8034  0.2770 -3.1919
25528SOL    HW278026   5.848   0.406   4.132  0.2268  0.3201  1.0049
25529SOL     OW78027   3.650   0.197   9.489  0.5227  0.1698 -0.1897
25529SOL    HW178028   3.645   0.123   9.429  1.9183  0.1093 -0.2625
25529SOL    HW278029   3.728   0.246   9.461 -0.7274  2.0401 -0.5505
25530SOL     OW78030   3.401   5.802   8.023  0.8281  0.3472 -0.2130
25530SOL    HW178031   3.368   5.862   8.089 -2.1983 -0.5723 -0.7407
25530SOL    HW278032   3.442   5.731   8.072  0.8777  0.8945  0.5463
25531SOL     OW78033   7.716   6.616   6.574  0.0185 -0.1692  0.5800
25531SOL    HW178034   7.634   6.654   6.544 -0.0263 -0.0812  0.8127
25531SOL    HW278035   7.784   6.668   6.532 -0.0294  0.8387  1.6947
25532SOL     OW78036   4.716   2.950   6.098  0.0652  0.2662 -0.2679
25532SOL    HW178037   4.772   3.028   6.096  0.9968 -0.3028  1.6897
25532SOL    HW278038   4.774   2.877   6.076 -0.0481 -0.2435  1.0712
25533SOL     OW78039   7.983   7.608   6.501 -0.1068  0.2430  0.0929
25533SOL    HW178040   7.937   7.588   6.419 -0.3491 -1.1389  0.5452
25533SOL    HW278041   7.946   7.547   6.565  0.6779  0.7307  1.0327
25534SOL     OW78042   0.326   1.155   7.202  0.2631  0.4926  0.3235
25534SOL    HW178043   0.277   1.235   7.225  0.4861  1.1295 -1.2573
25534SOL    HW278044   0.351   1.168   7.110 -2.1629 -2.6340 -0.9735
25535SOL     OW78045   6.913   4.617   0.180 -0.2945 -0.5139 -0.5988
25535SOL    HW178046   6.824   4.616   0.145 -0.0295  0.6665 -1.3504
25535SOL    HW278047   6.942   4.707   0.169  0.6994 -0.6860  0.4193
25536SOL     OW78048   6.744   4.107   9.881 -0.2113 -0.5639  0.3597
25536SOL    HW178049   6.750   4.144   9.969 -0.7958  2.5454 -0.7518
25536SOL    HW278050   6.833   4.083   9.859  0.4478  1.2009  0.8711
25537SOL     OW78051   1.604   1.513   6.175  0.2555 -0.1158  0.2904
25537SOL    HW178052   1.671   1.504   6.107 -0.6764  0.3754 -0.7099
25537SOL    HW278053   1.655   1.530   6.255  1.3741 -0.9614 -0.2076
25538SOL     OW78054   4.320   0.565   3.882 -0.4120  0.7671  0.1631
25538SOL    HW178055   4.264   0.509   3.828  0.4349 -2.3078  2.1736
25538SOL    HW278056   4.260   0.613   3.938 -1.2265 -1.3267  1.2176
25539SOL     OW78057   1.263   6.947   4.676 -0.9309  0.1539 -0.1456
25539SOL    HW178058   1.283   6.890   4.602  0.8410  0.4195  0.0945
25539SOL    HW278059   1.180   6.914   4.710 -0.0739 -2.1677 -0.1437
25540SOL     OW78060   7.769   6.525   8.735  0.4807  0.6868  0.1058
25540SOL    HW178061   7.779   6.538   8.640 -0.3240  0.7768  0.0193
25540SOL    HW278062   7.817   6.597   8.775  0.8046  0.6628 -0.2367
25541SOL     OW78063   2.168   5.511   2.182  0.3183  0.1199 -0.7428
25541SOL    HW178064   2.247   5.487   2.134  0.9659  0.8880 -0.0938
25541SOL    HW278065   2.198   5.523   2.272 -0.5155  0.5692 -0.5132
25542SOL     OW78066   3.344   0.082   1.387 -0.2292  0.4939 -0.9811
25542SOL    HW178067   3.353  -0.003   1.430  1.0698  1.8704  1.7739
25542SOL    HW278068   3.403   0.077   1.312 -0.0161 -0.9757 -0.7542
25543SOL     OW78069   7.162   6.931   2.788 -0.0977  0.0158 -0.0830
25543SOL    HW178070   7.123   7.017   2.805 -0.9975 -0.4497  0.2575
25543SOL    HW278071   7.114   6.897   2.712  1.3762  0.4935 -1.2904
25544SOL     OW78072   5.846   4.478   2.332  0.1221  0.0145  0.1389
25544SOL    HW178073   5.832   4.413   2.263  1.2244  0.4896 -0.5730
25544SOL    HW278074   5.760   4.494   2.369 -0.4925 -0.2417 -1.1461
25545SOL     OW78075   4.744   2.596   4.162  0.4078 -0.9841  0.6896
25545SOL    HW178076   4.760   2.563   4.074 -0.5267  1.2043 -0.3905
25545SOL    HW278077   4.764   2.523   4.220 -0.5171 -3.0256 -1.4198
25546SOL     OW78078   3.546   5.704  11.853 -0.4865  0.3635  0.0533
25546SOL    HW178079   3.548   5.617  11.813 -0.1939 -0.2006  1.2472
25546SOL    HW278080   3.588   5.761  11.789  1.6193 -0.8394  0.2760
25547SOL     OW78081   4.904   7.918   3.340 -0.0102 -1.3072 -0.1053
25547SOL    HW178082   4.990   7.951   3.364  1.1433 -2.0169 -2.8661
25547SOL    HW278083   4.858   7.906   3.423  1.9660  0.5674  1.3479
25548SOL     OW78084   0.344   7.069   3.955 -0.4664  0.1669  0.5109
25548SOL    HW178085   0.340   7.066   3.860 -0.2242 -0.1799  0.5068
25548SOL    HW278086   0.256   7.046   3.984 -0.7252  0.9566  0.3660
25549SOL     OW78087   5.568   4.132   0.722  0.2359 -0.4932  0.0407
25549SOL    HW178088   5.597   4.089   0.642 -0.4066 -1.9457  0.5654
25549SOL    HW278089   5.568   4.063   0.788 -2.1511 -0.0273  0.6040
25550SOL     OW78090   5.079   7.226   0.096 -0.0645 -0.2684 -0.0178
25550SOL    HW178091   5.018   7.257   0.163  2.0696  0.9676  1.4780
25550SOL    HW278092   5.049   7.137   0.075 -2.1384  0.1728  0.8852
25551SOL     OW78093   1.207   4.673  10.849  0.3635  0.0652  0.1082
25551SOL    HW178094   1.173   4.602  10.904  0.1770  1.5803  2.0947
25551SOL    HW278095   1.204   4.750  10.906  3.3839  1.1017 -0.9421
25552SOL     OW78096   3.000   6.325  10.033  0.2838 -0.8005  0.1723
25552SOL    HW178097   2.960   6.250   9.990  0.0201 -1.1639  1.0347
25552SOL    HW278098   3.091   6.299  10.047  0.0553 -1.2017  0.9842
25553SOL     OW78099   1.860   3.946   4.694 -0.3596 -0.2805  0.2315
25553SOL    HW178100   1.798   4.011   4.728 -0.7527  0.3740 -1.6371
25553SOL    HW278101   1.814   3.904   4.622  0.7701 -0.9837 -0.1105
25554SOL     OW78102   5.351   1.598   2.311  0.8331  0.1112 -0.1978
25554SOL    HW178103   5.446   1.589   2.308  0.7299 -1.0035 -1.2974
25554SOL    HW278104   5.321   1.548   2.235 -0.6661 -0.0218  0.4605
25555SOL     OW78105   3.381   7.366   3.151 -0.1381  0.1399 -0.2572
25555SOL    HW178106   3.406   7.421   3.225  1.0338 -2.0282  1.0579
25555SOL    HW278107   3.407   7.278   3.177  0.2523 -0.7311 -3.2519
25556SOL     OW78108   6.878   3.050   6.060 -0.1681 -0.7318 -0.0779
25556SOL    HW178109   6.949   2.990   6.037 -0.5089 -1.3407  0.4274
25556SOL    HW278110   6.823   3.001   6.121 -0.8891 -0.1832 -0.2621
25557SOL     OW78111   4.465   7.377   2.108  0.2836 -1.0398  0.0554
25557SOL    HW178112   4.519   7.447   2.072  0.4893 -0.3603  1.5796
25557SOL    HW278113   4.431   7.329   2.032  2.1747 -0.8394 -0.9498
25558SOL     OW78114   7.861   3.366   8.590 -0.2284  0.4739  0.1336
25558SOL    HW178115   7.856   3.399   8.500  1.0245  1.3610  0.3570
25558SOL    HW278116   7.771   3.351   8.615 -0.5958 -0.1213 -1.3929
25559SOL     OW78117   3.844   1.925  10.381 -0.1502  0.7636 -0.5771
25559SOL    HW178118   3.799   1.886  10.456 -0.9687  0.8566 -1.0141
25559SOL    HW278119   3.775   1.966  10.329  0.3814  0.5132 -1.5034
25560SOL     OW78120   5.998   5.757  12.348 -1.3351  0.4222 -0.2751
25560SOL    HW178121   5.926   5.772  12.409 -1.5688 -1.9048  0.1224
25560SOL    HW278122   6.077   5.773  12.400 -1.5487 -0.8213  0.5038
25561SOL     OW78123   5.724   7.407   3.549  0.0843  0.4291 -0.2491
25561SOL    HW178124   5.655   7.441   3.606 -1.0553 -0.1983 -1.2135
25561SOL    HW278125   5.685   7.406   3.462  1.5683  0.7333 -0.9479
25562SOL     OW78126   1.354   1.834  12.057  0.2430 -0.0711  0.1101
25562SOL    HW178127   1.357   1.767  12.126 -0.4049  1.1860  1.4252
25562SOL    HW278128   1.349   1.917  12.105 -1.0972  0.8115 -1.4595
25563SOL     OW78129   5.820   6.628  10.962 -0.2329  0.0594  0.1727
25563SOL    HW178130   5.900   6.679  10.949 -0.1496 -0.0251  0.3479
25563SOL    HW278131   5.761   6.657  10.893  0.6876 -1.3909 -1.2782
25564SOL     OW78132   4.149   1.150   8.035 -0.0517  0.0558 -0.1623
25564SOL    HW178133   4.100   1.136   8.116 -1.0858 -2.5143 -1.1290
25564SOL    HW278134   4.182   1.240   8.042  0.2321 -0.1923  3.2402
25565SOL     OW78135   4.546   0.745  10.166 -0.2969 -0.4087 -0.5216
25565SOL    HW178136   4.619   0.713  10.114 -1.0276 -1.1441 -1.1219
25565SOL    HW278137   4.523   0.673  10.223 -0.4649 -0.1312 -0.2365
25566SOL     OW78138   7.090   3.355   2.605  0.3701 -0.2923 -0.1653
25566SOL    HW178139   7.040   3.389   2.680 -1.0251 -1.3220 -0.5904
25566SOL    HW278140   7.169   3.408   2.603 -1.4695  2.6728 -0.5322
25567SOL     OW78141   5.932   4.902   7.725 -0.3700  0.1191  0.2172
25567SOL    HW178142   5.883   4.941   7.653 -1.0961  0.3177  0.8086
25567SOL    HW278143   5.904   4.811   7.727  0.8290 -0.2961 -0.7383
25568SOL     OW78144   2.931   7.169   9.170  0.3785 -0.1376  0.5417
25568SOL    HW178145   2.987   7.109   9.119  1.0437  0.2292  0.8223
25568SOL    HW278146   2.845   7.161   9.129  0.6712 -0.5894 -0.0176
25569SOL     OW78147   1.744   2.331   3.776 -0.1560  0.0114  0.0450
25569SOL    HW178148   1.829   2.330   3.820 -0.3562 -0.1435  0.4379
25569SOL    HW278149   1.733   2.242   3.743  0.2729  0.2968 -0.8662
25570SOL     OW78150   5.071   6.612   7.223 -0.2686 -0.1424  0.0379
25570SOL    HW178151   5.090   6.616   7.129 -1.9713  2.6168 -0.3190
25570SOL    HW278152   5.157   6.611   7.265  0.5405 -2.3840 -1.4943
25571SOL     OW78153   1.067   2.739  10.117  0.0593 -0.1678 -0.0193
25571SOL    HW178154   1.146   2.693  10.145 -0.3285 -0.3811  0.7481
25571SOL    HW278155   1.077   2.827  10.154 -0.5485 -0.5099  1.0230
25572SOL     OW78156   0.961   5.113   3.292  0.2734 -0.7141  0.5740
25572SOL    HW178157   0.991   5.187   3.345 -0.6528 -1.8512  2.7708
25572SOL    HW278158   1.035   5.095   3.233  0.9666  1.1810  0.7921
25573SOL     OW78159   0.850   7.610   9.774 -0.8207  0.0973  0.7553
25573SOL    HW178160   0.901   7.626   9.694  0.6160  0.4445  1.7145
25573SOL    HW278161   0.761   7.637   9.751 -0.0092  2.2318 -0.0793
25574SOL     OW78162   0.978   4.241   4.991 -0.3762 -0.0678  0.5202
25574SOL    HW178163   0.950   4.198   5.072  0.4664  0.1344  0.9263
25574SOL    HW278164   1.069   4.266   5.007  0.4534 -1.7397 -1.1725
25575SOL     OW78165   7.017   2.489   0.959  0.8737 -0.7011  0.3811
25575SOL    HW178166   7.027   2.399   0.930 -1.6409 -1.1115  0.5569
25575SOL    HW278167   6.948   2.486   1.025  0.2590  1.4266 -0.0716
25576SOL     OW78168   4.303   5.441   3.882 -0.0193 -0.2362  0.1737
25576SOL    HW178169   4.334   5.532   3.883 -1.3529  0.2406  1.3494
25576SOL    HW278170   4.325   5.408   3.969 -1.6709 -0.2547  0.6136
25577SOL     OW78171   6.532   5.010   2.023  0.1320 -0.1220 -0.2691
25577SOL    HW178172   6.601   5.075   2.009  0.9523 -0.5147  1.6650
25577SOL    HW278173   6.451   5.060   2.025  0.8322  1.0772  2.2631
25578SOL     OW78174   5.207   3.473  10.814  1.0851 -0.0909 -0.7300
25578SOL    HW178175   5.175   3.383  10.819  1.4604 -0.3359 -2.1053
25578SOL    HW278176   5.165   3.518  10.887  1.2645 -1.4826  0.2683
25579SOL     OW78177   5.010   6.533   9.079  0.0547 -0.2129 -0.1429
25579SOL    HW178178   5.099   6.564   9.094 -0.2169 -0.3006  1.8559
25579SOL    HW278179   5.019   6.468   9.009  1.7941 -1.3209  1.0384
25580SOL     OW78180   3.464   1.849   6.472  0.1981 -0.0058  0.1345
25580SOL    HW178181   3.491   1.758   6.483 -1.5432 -0.5715  0.0137
25580SOL    HW278182   3.390   1.845   6.411 -1.2105  1.2374  1.6588
25581SOL     OW78183   0.228   3.741   1.037 -0.3212 -0.2357 -0.1297
25581SOL    HW178184   0.278   3.734   0.955 -0.1205  1.4855 -0.1986
25581SOL    HW278185   0.256   3.825   1.074 -1.5765 -0.2613  0.9158
25582SOL     OW78186   1.149   5.786   3.333 -0.5363  0.3950 -0.3235
25582SOL    HW178187   1.154   5.872   3.291 -0.2288  0.3241 -0.4412
25582SOL    HW278188   1.221   5.736   3.293 -0.1211  0.3826  0.4235
25583SOL     OW78189   6.622   6.283   5.506 -0.0907  0.0664  0.1517
25583SOL    HW178190   6.627   6.210   5.568  3.1524 -1.0045 -1.1346
25583SOL    HW278191   6.585   6.244   5.426  2.0402 -0.4081 -0.6761
25584SOL     OW78192   1.433   4.399   2.552  0.6714  0.2357  0.0693
25584SOL    HW178193   1.493   4.334   2.515 -0.1096 -0.9674  0.8362
25584SOL    HW278194   1.488   4.453   2.609  0.9723 -1.2088  1.2088
25585SOL     OW78195   1.423   4.915   5.320 -0.4661  0.0034  0.1482
25585SOL    HW178196   1.372   4.948   5.394 -0.3482  0.6185 -0.0430
25585SOL    HW278197   1.360   4.907   5.248 -0.4921 -0.1778  0.1905
25586SOL     OW78198   5.148   6.453  11.559  0.5294  0.4016 -0.3822
25586SOL    HW178199   5.176   6.436  11.648 -1.0100  0.0806  0.0739
25586SOL    HW278200   5.052   6.462  11.565  0.1720 -1.3331 -2.2282
25587SOL     OW78201   2.549   6.471   6.204  0.0184 -0.0235  0.2308
25587SOL    HW178202   2.520   6.394   6.155 -0.6420  0.4635 -0.1666
25587SOL    HW278203   2.644   6.469   6.198  0.0191 -0.8417  0.2829
25588SOL     OW78204   5.111   6.453  11.999 -0.0019  0.0176 -0.2866
25588SOL    HW178205   5.031   6.433  11.951 -0.8692  1.6526  0.4224
25588SOL    HW278206   5.174   6.479  11.931  0.4227 -2.5222 -0.9879
25589SOL     OW78207   6.886   2.576   1.520  0.2015 -0.4509 -0.3514
25589SOL    HW178208   6.962   2.558   1.465  0.4385  0.0999 -0.2075
25589SOL    HW278209   6.862   2.490   1.556  0.5032 -0.6931 -0.7133
25590SOL     OW78210   2.031   4.611   8.010  0.0496  0.0897  0.1241
25590SOL    HW178211   2.081   4.535   7.981  0.2831  0.2774  0.0365
25590SOL    HW278212   2.069   4.685   7.962 -1.0973  0.0624 -0.8882
25591SOL     OW78213   0.785   2.127   4.014 -0.1913 -0.3952  0.1896
25591SOL    HW178214   0.745   2.203   3.973  1.0819  0.8357  1.1126
25591SOL    HW278215   0.771   2.056   3.952 -2.1227  0.3812 -0.3382
25592SOL     OW78216   6.137   2.828  12.043  0.5156 -0.1163 -0.3321
25592SOL    HW178217   6.113   2.752  12.096 -0.6454  0.5067  0.0745
25592SOL    HW278218   6.183   2.886  12.104  0.7219 -0.1603 -0.4466
25593SOL     OW78219   0.384   5.330  10.947  0.2810 -0.1141  0.3518
25593SOL    HW178220   0.473   5.331  10.983 -0.2458  0.3704  1.7277
25593SOL    HW278221   0.328   5.318  11.024 -0.8050 -1.3812 -0.6066
25594SOL     OW78222   6.619   7.070   7.429  0.0132  0.5952 -0.0083
25594SOL    HW178223   6.555   7.080   7.359 -1.1946 -0.6171  0.8711
25594SOL    HW278224   6.687   7.014   7.392 -2.1541 -2.7319  0.6275
25595SOL     OW78225   7.445   7.460  10.071  0.2523 -0.5403 -0.4537
25595SOL    HW178226   7.382   7.405  10.024 -0.5703  0.0906 -0.1255
25595SOL    HW278227   7.506   7.398  10.110  0.3550 -1.1279 -1.4951
25596SOL     OW78228   4.068   1.371   3.387  0.0422  0.3518  0.0194
25596SOL    HW178229   3.982   1.338   3.361  0.8523 -1.3249 -0.6606
25596SOL    HW278230   4.113   1.387   3.304  1.6708 -2.3821  0.2613
25597SOL     OW78231   6.624   3.001   6.483 -0.3718  0.6037 -0.3277
25597SOL    HW178232   6.663   3.077   6.525 -0.4406  0.0737  0.7421
25597SOL    HW278233   6.655   3.005   6.392 -0.4293  1.9233 -0.3104
25598SOL     OW78234   3.463   4.110   4.222  0.3242 -0.2996 -0.0636
25598SOL    HW178235   3.552   4.138   4.200  0.3623 -1.6946 -1.9120
25598SOL    HW278236   3.407   4.182   4.193  0.8466  1.0001  1.9475
25599SOL     OW78237   6.728   2.130   5.819  0.0894  0.1917  0.2506
25599SOL    HW178238   6.794   2.124   5.888  1.1375 -0.6623 -0.7902
25599SOL    HW278239   6.708   2.039   5.797 -0.9325  0.4447  0.0491
25600SOL     OW78240   0.982   7.856   5.507  0.1849 -0.3866  0.5201
25600SOL    HW178241   1.057   7.799   5.520 -0.8503 -1.6174  1.2929
25600SOL    HW278242   0.952   7.877   5.595  0.3572  1.1441  0.2514
25601SOL     OW78243   6.078   0.273   3.587 -0.1625  0.2537 -0.1974
25601SOL    HW178244   6.127   0.235   3.514 -0.2550 -0.0512 -0.1052
25601SOL    HW278245   6.003   0.316   3.546  0.6244  1.4636 -0.4110
25602SOL     OW78246   1.371   4.117   2.139  0.4486  0.4233  0.3168
25602SOL    HW178247   1.425   4.105   2.217  3.4045  1.7148 -1.3443
25602SOL    HW278248   1.406   4.054   2.076 -0.9276  0.3703 -0.4351
25603SOL     OW78249   7.586   7.713   4.818 -0.0560 -0.1812 -0.2003
25603SOL    HW178250   7.664   7.665   4.793  0.3958 -0.1955  1.1450
25603SOL    HW278251   7.602   7.803   4.788  1.2607  0.2182  1.4909
25604SOL     OW78252   2.418   0.032   4.312 -0.3253  0.6258  0.5609
25604SOL    HW178253   2.343   0.089   4.297 -0.1873  0.5689 -0.3944
25604SOL    HW278254   2.382  -0.056   4.315 -0.2672  0.5673 -0.2365
25605SOL     OW78255   6.182   7.636   1.122 -0.1526 -0.6273 -0.2673
25605SOL    HW178256   6.095   7.648   1.159  0.5581 -2.0694  2.1798
25605SOL    HW278257   6.173   7.563   1.061 -0.8489 -0.0577 -0.8518
25606SOL     OW78258   0.239   6.781   2.293  0.2616  0.4159  0.4086
25606SOL    HW178259   0.328   6.783   2.329  0.2527 -0.0912  0.4633
25606SOL    HW278260   0.202   6.866   2.318  0.5002  0.3592  0.9830
25607SOL     OW78261   3.390   1.585   4.332  0.5603  0.9280 -0.0688
25607SOL    HW178262   3.382   1.524   4.405  1.8598 -1.7148 -1.9632
25607SOL    HW278263   3.300   1.608   4.309  0.0175 -0.5691  0.4857
25608SOL     OW78264   1.972   2.110   1.856 -0.1562  0.7576 -0.1156
25608SOL    HW178265   1.903   2.067   1.806  0.3669 -1.0947  0.6482
25608SOL    HW278266   2.048   2.110   1.797  0.2162 -0.6492  0.3130
25609SOL     OW78267   2.755   4.194  12.035  0.5408 -0.2942  0.4482
25609SOL    HW178268   2.706   4.142  11.972 -0.5489  0.5743  0.5380
25609SOL    HW278269   2.845   4.164  12.026  0.0317 -1.8333  0.1683
25610SOL     OW78270   3.461   6.770   7.807  0.1424 -0.7217 -0.2159
25610SOL    HW178271   3.501   6.732   7.885  1.4606  1.7425  0.4177
25610SOL    HW278272   3.368   6.747   7.814 -0.1517  0.9064  3.1144
25611SOL     OW78273   5.875   2.066  10.345  0.5482  0.1449 -0.5273
25611SOL    HW178274   5.874   2.132  10.276  0.9676 -0.5858 -1.2384
25611SOL    HW278275   5.949   2.092  10.401 -0.9130  1.8196  0.7654
25612SOL     OW78276   5.901   6.879  12.081 -0.5623 -0.5175 -0.0517
25612SOL    HW178277   5.921   6.787  12.061 -0.7511 -1.2880  2.8569
25612SOL    HW278278   5.985   6.916  12.109 -1.1070 -0.9210  2.3581
25613SOL     OW78279   4.826   4.524  11.219 -0.0842  0.1824  0.0710
25613SOL    HW178280   4.854   4.598  11.273  0.1187  0.6862 -0.7047
25613SOL    HW278281   4.899   4.462  11.223 -0.0670  0.2218  0.3696
25614SOL     OW78282   6.321   2.249   3.143 -0.3358 -0.2945  0.3271
25614SOL    HW178283   6.341   2.295   3.225  0.1000 -1.9102  1.1782
25614SOL    HW278284   6.313   2.157   3.169  2.2835 -1.2371 -1.7878
25615SOL     OW78285   7.345   3.878  10.030  1.1734  0.0737  0.3728
25615SOL    HW178286   7.365   3.836  10.114  1.7481 -0.0180  0.1922
25615SOL    HW278287   7.275   3.824   9.993 -2.1681  2.4375  2.6329
25616SOL     OW78288   2.254   7.311   8.735  0.4987  0.2915  0.1902
25616SOL    HW178289   2.320   7.353   8.790  1.7036 -0.7508 -0.4000
25616SOL    HW278290   2.304   7.272   8.663 -0.9004  0.5601 -0.9849
25617SOL     OW78291   2.330   3.516   6.807 -0.2658  0.0561  0.1724
25617SOL    HW178292   2.301   3.605   6.828 -3.6538 -0.3054 -2.1418
25617SOL    HW278293   2.396   3.529   6.739 -0.2508  0.8242  0.3158
25618SOL     OW78294   2.315   4.037   0.771 -0.5642  0.5556 -0.1799
25618SOL    HW178295   2.378   3.982   0.724  1.0318  1.3288  0.9549
25618SOL    HW278296   2.366   4.113   0.800 -2.0674  1.3015  0.6690
25619SOL     OW78297   3.212   1.640   7.587  0.0875  0.4103  0.3540
25619SOL    HW178298   3.138   1.652   7.527  0.3452 -0.6046 -0.1971
25619SOL    HW278299   3.171   1.625   7.672 -0.3694 -0.4638 -0.0076
25620SOL     OW78300   3.522   2.463   6.172 -0.2799 -0.4109  0.5223
25620SOL    HW178301   3.495   2.406   6.100 -0.4041 -0.7384  0.8276
25620SOL    HW278302   3.510   2.411   6.251  0.9207 -0.4496  0.7003
25621SOL     OW78303   7.692   2.211   3.609  0.2510  0.3579 -0.0240
25621SOL    HW178304   7.745   2.167   3.676 -1.2907  1.1032  1.7569
25621SOL    HW278305   7.741   2.290   3.588  0.5681  0.2965  0.4818
25622SOL     OW78306   0.239   4.949   7.115  0.0371 -0.0946 -0.4100
25622SOL    HW178307   0.229   5.037   7.079  0.5076 -0.1762 -0.7453
25622SOL    HW278308   0.258   4.963   7.208  0.7253  0.1786 -0.5914
25623SOL     OW78309   1.253   4.320  11.412 -0.2908  0.7287  0.4509
25623SOL    HW178310   1.252   4.299  11.505  0.8641 -0.2023  0.2723
25623SOL    HW278311   1.161   4.318  11.386 -0.4340 -2.7136  0.7876
25624SOL     OW78312   1.802   0.480   4.868 -0.1654  0.2519  0.5521
25624SOL    HW178313   1.837   0.539   4.935  1.2904  0.5562 -0.4291
25624SOL    HW278314   1.783   0.537   4.793  2.0912 -0.5593 -0.7355
25625SOL     OW78315   4.825   3.384   0.136  0.2230  0.2575 -0.4165
25625SOL    HW178316   4.780   3.424   0.062  1.3164 -1.0187 -1.8463
25625SOL    HW278317   4.764   3.318   0.168 -0.0196  0.3921 -0.5970
25626SOL     OW78318   4.094   6.611   7.436  0.4476 -0.3556 -0.3036
25626SOL    HW178319   4.184   6.609   7.467  0.7013  1.4229 -0.7846
25626SOL    HW278320   4.049   6.671   7.495  0.1966  0.6458 -1.4530
25627SOL     OW78321   6.170   7.391   0.971 -0.1080  0.3682 -0.0700
25627SOL    HW178322   6.148   7.306   0.932  0.3185 -0.0095  0.4953
25627SOL    HW278323   6.222   7.369   1.048  2.2379  1.2182 -1.3196
25628SOL     OW78324   2.764   3.610   0.081 -0.3554 -0.1563 -0.1073
25628SOL    HW178325   2.687   3.553   0.073 -0.7722  0.4064 -0.1195
25628SOL    HW278326   2.813   3.596   0.001 -0.9452  0.2154 -0.5385
25629SOL     OW78327   5.827   4.845   8.100 -0.1669 -0.0228 -0.3842
25629SOL    HW178328   5.887   4.907   8.058  0.3328 -0.7114 -0.7074
25629SOL    HW278329   5.875   4.762   8.101 -0.6296 -0.2942  0.4955
25630SOL     OW78330   3.790   6.814   5.025 -0.4911 -0.0287  0.3966
25630SOL    HW178331   3.791   6.891   4.967 -0.0723 -0.4982 -0.2412
25630SOL    HW278332   3.824   6.846   5.108 -1.2624  0.7014  0.4379
25631SOL     OW78333   6.822   1.285   8.277  0.9859  0.3171 -0.0700
25631SOL    HW178334   6.764   1.227   8.327 -1.1678  1.5087 -1.0424
25631SOL    HW278335   6.910   1.259   8.303  0.1180 -2.9815 -0.0525
25632SOL     OW78336   6.042   7.640   6.681 -0.5479 -0.0227  0.2612
25632SOL    HW178337   6.079   7.552   6.675 -3.1288 -1.2937  1.2716
25632SOL    HW278338   6.062   7.681   6.597 -0.0936 -1.9159 -0.6039
25633SOL     OW78339   1.357   6.855   8.986  0.2907 -0.1507  0.3156
25633SOL    HW178340   1.413   6.853   9.064 -0.2495 -1.1220  0.6855
25633SOL    HW278341   1.268   6.849   9.020  0.0453 -0.4784 -0.3760
25634SOL     OW78342   3.681   6.328   6.624  0.2727 -0.1373  0.0095
25634SOL    HW178343   3.664   6.385   6.699  2.4054 -0.0318  0.4754
25634SOL    HW278344   3.658   6.382   6.548 -2.3036 -0.3932  0.5329
25635SOL     OW78345   0.701   0.954   4.256 -0.9874  0.0543 -0.6934
25635SOL    HW178346   0.664   0.928   4.341 -1.5317 -1.2179 -1.2938
25635SOL    HW278347   0.726   1.045   4.268 -1.8709  0.1613  0.5705
25636SOL     OW78348   0.044   5.872   6.803 -0.1401 -0.4027 -0.2554
25636SOL    HW178349  -0.044   5.857   6.767  0.7482  0.7591 -3.2468
25636SOL    HW278350   0.048   5.967   6.816  0.3733 -0.5571  0.7888
25637SOL     OW78351   5.709   3.503   7.452 -0.0081  0.1553  0.8295
25637SOL    HW178352   5.669   3.578   7.497  0.1359  1.0455 -0.4773
25637SOL    HW278353   5.786   3.539   7.408 -0.3877 -0.5897 -0.4949
25638SOL     OW78354   6.715   5.792  12.179  0.0453 -0.3811  0.0447
25638SOL    HW178355   6.664   5.840  12.244  0.9967 -0.2377  0.6966
25638SOL    HW278356   6.658   5.720  12.153 -1.3376  0.9795 -0.8308
25639SOL     OW78357   4.802   0.570   9.657 -0.0206 -0.1170 -0.4688
25639SOL    HW178358   4.863   0.612   9.717 -0.3039 -0.0513 -0.2228
25639SOL    HW278359   4.828   0.477   9.657 -0.9049 -0.3885  0.8693
25640SOL     OW78360   6.649   7.845   4.719 -0.7902 -0.5030 -0.1015
25640SOL    HW178361   6.639   7.751   4.730  0.8771 -0.7023 -0.1083
25640SOL    HW278362   6.738   7.857   4.686  0.0100  1.2228  2.3273
25641SOL     OW78363   0.485   7.263  11.799 -0.1368 -0.1899  0.3124
25641SOL    HW178364   0.534   7.314  11.864 -1.5313  1.5713  0.0351
25641SOL    HW278365   0.464   7.181  11.844  1.7555 -0.3912  0.9263
25642SOL     OW78366   7.083   3.211   1.096  0.2879  0.4819  0.1309
25642SOL    HW178367   7.022   3.137   1.091  0.1828  0.5546  0.3058
25642SOL    HW278368   7.091   3.241   1.006  0.4308  0.1785  0.0393
25643SOL     OW78369   3.161   0.513   3.496  0.4895  0.2684  0.5691
25643SOL    HW178370   3.185   0.423   3.474  2.6515  1.0416 -0.4884
25643SOL    HW278371   3.143   0.510   3.590  0.1519 -1.3185  0.4881
25644SOL     OW78372   3.945   0.683   3.220  0.1363 -0.2296  0.1142
25644SOL    HW178373   3.867   0.632   3.198 -0.9631  0.2113  2.5642
25644SOL    HW278374   3.933   0.767   3.175 -0.2139 -0.5777 -0.4519
25645SOL     OW78375   5.722   5.634   1.008  0.2374  0.3930  0.0566
25645SOL    HW178376   5.708   5.544   1.037  0.9124  0.9066  2.1507
25645SOL    HW278377   5.650   5.683   1.048  1.8654  1.3190  2.0792
25646SOL     OW78378   7.215   2.097   0.169 -0.3653 -0.1691 -0.3364
25646SOL    HW178379   7.170   2.182   0.172 -0.0093  0.0013  0.5366
25646SOL    HW278380   7.215   2.068   0.260  0.0759 -0.8176 -0.5432
25647SOL     OW78381   1.656   5.981   9.023  0.1569  0.1849  0.1768
25647SOL    HW178382   1.701   5.899   9.043  1.1930  0.4091 -1.0759
25647SOL    HW278383   1.727   6.042   9.003 -0.6572  0.6008 -1.6670
25648SOL     OW78384   7.976   6.693   8.784 -0.0535  0.2665 -0.0397
25648SOL    HW178385   7.906   6.755   8.806 -2.0522 -1.9318  0.2535
25648SOL    HW278386   8.055   6.731   8.823 -1.4183  1.9694  1.2508
25649SOL     OW78387   5.185   2.191  10.019 -0.2937  0.3616 -0.2934
25649SOL    HW178388   5.239   2.269  10.008  0.6312 -0.1861  0.2536
25649SOL    HW278389   5.096   2.221   9.997  0.1927  1.3042 -1.0694
25650SOL     OW78390   3.644   0.939  11.593  0.0523 -0.0224 -0.0321
25650SOL    HW178391   3.673   0.996  11.522  0.0416  0.0961  0.0570
25650SOL    HW278392   3.553   0.963  11.608  0.5330  1.1893  1.1862
25651SOL     OW78393   5.296   3.561   1.903  0.2618 -0.4040 -0.4219
25651SOL    HW178394   5.360   3.490   1.908 -1.3928 -1.8916  1.3112
25651SOL    HW278395   5.276   3.567   1.810  2.9468  0.2111 -1.0362
25652SOL     OW78396   5.837   3.954  11.955  0.4614 -0.0218  0.0084
25652SOL    HW178397   5.817   3.860  11.950 -0.3436  0.1371  0.1244
25652SOL    HW278398   5.882   3.972  11.872 -1.2843 -0.0879 -1.0085
25653SOL     OW78399   3.375   0.510   8.156 -0.8585  0.1817  0.5697
25653SOL    HW178400   3.327   0.567   8.217 -2.1182 -0.5864  0.3381
25653SOL    HW278401   3.459   0.494   8.199 -1.3259  0.4819  1.6332
25654SOL     OW78402   4.743   5.713   3.384 -0.2509 -0.2884  0.0279
25654SOL    HW178403   4.705   5.793   3.419  2.5515  1.1980  0.0042
25654SOL    HW278404   4.754   5.656   3.460  1.4927  1.0559  0.8491
25655SOL     OW78405   1.885   7.466   0.724 -0.2740 -0.8308 -0.0862
25655SOL    HW178406   1.863   7.474   0.816  1.1525 -0.8648  0.2781
25655SOL    HW278407   1.802   7.446   0.681 -1.4654  1.7800  0.8079
25656SOL     OW78408   2.667   5.653  10.914  0.0786  0.1852  0.0161
25656SOL    HW178409   2.745   5.693  10.876  0.6105  1.2069  2.0319
25656SOL    HW278410   2.661   5.568  10.872  2.0343  0.2510 -0.5109
25657SOL     OW78411   3.210   4.465   8.861 -0.1625  0.6838 -0.6944
25657SOL    HW178412   3.134   4.522   8.851  0.5125  1.4945 -1.3466
25657SOL    HW278413   3.259   4.503   8.934  0.0880  0.7031 -0.8745
25658SOL     OW78414   2.033   7.461   5.008 -0.5594  0.6457  0.1415
25658SOL    HW178415   1.995   7.383   5.048 -0.2977  0.3489 -0.1807
25658SOL    HW278416   1.961   7.524   5.003 -0.8855  0.2622 -0.0133
25659SOL     OW78417   5.965   1.872   7.199  0.2341  0.3965 -0.0051
25659SOL    HW178418   6.015   1.861   7.280 -1.6968 -2.5544  0.9280
25659SOL    HW278419   5.936   1.963   7.201  1.0988  0.6799  2.0780
25660SOL     OW78420   0.214   6.186  11.004  0.1352  0.1177 -0.4869
25660SOL    HW178421   0.237   6.099  10.972 -0.0880 -0.4633  0.8541
25660SOL    HW278422   0.121   6.196  10.982  0.3993  0.4271 -1.4975
25661SOL     OW78423   2.271   1.407  12.153 -0.3426  0.0917 -0.1755
25661SOL    HW178424   2.364   1.410  12.177 -0.4057 -1.0140  0.2994
25661SOL    HW278425   2.264   1.463  12.076  0.7348  0.1408 -0.2515
25662SOL     OW78426   6.304   5.692   7.471 -0.0650 -0.2440  0.1302
25662SOL    HW178427   6.312   5.596   7.463  0.4711 -0.2787  0.9224
25662SOL    HW278428   6.211   5.710   7.458 -0.2225 -0.9124  0.2881
25663SOL     OW78429   1.455   4.437  11.611 -0.1353  0.2283  0.5088
25663SOL    HW178430   1.549   4.425  11.622  0.1787  1.6203 -0.4195
25663SOL    HW278431   1.418   4.409  11.694  1.0642 -0.5747  0.8045
25664SOL     OW78432   3.791   6.438   7.355 -0.1816 -0.2992 -0.1340
25664SOL    HW178433   3.715   6.388   7.325  0.1892 -0.6735 -0.4642
25664SOL    HW278434   3.819   6.392   7.435  0.3781 -0.8411 -0.6380
25665SOL     OW78435   5.145   0.404  11.282 -0.3735  0.0754 -0.0659
25665SOL    HW178436   5.052   0.389  11.266 -0.6480  0.7255  0.8720
25665SOL    HW278437   5.156   0.392  11.376  0.3357  0.8058 -0.0442
25666SOL     OW78438   4.443   7.957   3.218  0.6482  0.1300 -0.0397
25666SOL    HW178439   4.408   7.972   3.130 -1.4373  2.7505  1.1060
25666SOL    HW278440   4.538   7.949   3.205  0.3476 -0.0613 -2.5457
25667SOL     OW78441   3.717   3.446   2.222  0.1246 -0.3350  0.7821
25667SOL    HW178442   3.804   3.417   2.251 -0.1443 -1.3950  0.5967
25667SOL    HW278443   3.733   3.525   2.171  0.8833 -0.0094  1.4970
25668SOL     OW78444   0.442   5.123   2.629 -0.8657  0.2137 -0.2165
25668SOL    HW178445   0.448   5.192   2.696 -0.6044  1.1412 -1.1708
25668SOL    HW278446   0.366   5.147   2.577 -0.1127  0.4110 -1.2437
25669SOL     OW78447   2.449   5.360   4.207 -0.4687 -0.2534  0.3882
25669SOL    HW178448   2.474   5.398   4.291  1.5298 -3.4965  1.4589
25669SOL    HW278449   2.532   5.354   4.159 -1.2342 -0.4364 -0.9576
25670SOL     OW78450   5.993   3.547  11.639  0.1641  0.4773 -0.2789
25670SOL    HW178451   6.001   3.608  11.565 -0.8900  1.1407  0.1252
25670SOL    HW278452   6.078   3.550  11.683  1.1267 -0.6022 -1.9481
25671SOL     OW78453   5.274   3.425  10.343 -0.3117 -0.0853 -0.4470
25671SOL    HW178454   5.320   3.507  10.325  0.5847 -0.8678 -1.9033
25671SOL    HW278455   5.210   3.448  10.411  0.7737  1.5160  0.0991
25672SOL     OW78456   5.137   0.608  10.797 -0.1002 -0.2214 -0.2982
25672SOL    HW178457   5.062   0.594  10.739 -0.6755 -1.1107  0.6236
25672SOL    HW278458   5.099   0.645  10.877  0.5388  0.0237 -0.1033
25673SOL     OW78459   1.033   3.198   4.759  0.2953  0.6128  0.0255
25673SOL    HW178460   0.959   3.156   4.714  1.3184 -2.0777  0.6653
25673SOL    HW278461   1.016   3.183   4.852 -0.0566  3.1174  0.4497
25674SOL     OW78462   5.958   2.648   3.566 -0.1102  0.3159  0.1347
25674SOL    HW178463   5.873   2.653   3.609  0.8662  1.9177  2.0144
25674SOL    HW278464   5.958   2.562   3.523 -2.3355 -0.0569  0.7607
25675SOL     OW78465   0.193   1.181   6.320 -0.8944  0.2574 -0.2759
25675SOL    HW178466   0.170   1.169   6.413 -1.9303 -0.9954 -0.6540
25675SOL    HW278467   0.270   1.126   6.307 -0.2083  1.1284  0.0283
25676SOL     OW78468   1.384   4.362  10.716  0.1666 -0.4258 -0.4479
25676SOL    HW178469   1.444   4.426  10.678 -0.1641 -1.0294 -2.0859
25676SOL    HW278470   1.341   4.322  10.640 -1.5019 -0.7810  0.6294
25677SOL     OW78471   5.398   0.377   3.522  0.3573 -0.8059  0.4959
25677SOL    HW178472   5.372   0.291   3.555  1.6515 -1.3275  0.1962
25677SOL    HW278473   5.486   0.390   3.555  0.3186  0.2499  0.2168
25678SOL     OW78474   3.317   2.173   5.035  0.6965  0.4517  0.0254
25678SOL    HW178475   3.408   2.149   5.048  0.6016  0.9372  1.8404
25678SOL    HW278476   3.279   2.172   5.123 -1.1636 -0.1761 -0.7394
25679SOL     OW78477   1.188   2.954   9.837 -0.0005 -0.3035  0.0146
25679SOL    HW178478   1.234   2.950   9.921  1.2834 -0.1741 -0.6644
25679SOL    HW278479   1.209   2.872   9.793  0.6666  0.3173 -0.8526
25680SOL     OW78480   3.183   7.569  11.761  0.3549  0.8014  0.2546
25680SOL    HW178481   3.202   7.636  11.825  0.0602 -0.6803  1.9638
25680SOL    HW278482   3.247   7.500  11.778  1.4795  1.0822 -2.2774
25681SOL     OW78483   4.029   7.612   5.745  0.5417  0.5958  0.2864
25681SOL    HW178484   4.009   7.706   5.741  0.3547  0.6385  1.6919
25681SOL    HW278485   3.943   7.570   5.749  0.6374  0.4056  0.3492
25682SOL     OW78486   4.302   2.939   4.870  0.0840 -0.1695  0.6285
25682SOL    HW178487   4.369   2.956   4.936 -1.0828  1.8760  1.3909
25682SOL    HW278488   4.332   2.986   4.792  0.6905 -1.2701  0.1846
25683SOL     OW78489   4.198   4.393   4.424  0.0630  0.1911 -0.7743
25683SOL    HW178490   4.204   4.413   4.517  1.8419  1.0730 -1.0244
25683SOL    HW278491   4.162   4.305   4.419 -0.5911  0.3534  0.7057
25684SOL     OW78492   3.576   5.283   4.973 -0.2544 -0.2333  0.1978
25684SOL    HW178493   3.565   5.214   5.038  0.2712 -0.9574 -0.4717
25684SOL    HW278494   3.555   5.364   5.020  0.1361 -0.7427  1.2680
25685SOL     OW78495   4.518   6.560   8.820  0.5862  0.2442  0.5118
25685SOL    HW178496   4.577   6.578   8.893  2.9108 -0.2485 -1.1454
25685SOL    HW278497   4.519   6.464   8.811  1.0232  0.3365 -0.6539
25686SOL     OW78498   2.678   0.452   4.595 -0.7724  0.5042  0.2597
25686SOL    HW178499   2.756   0.453   4.541 -0.4166 -1.6543  0.6329
25686SOL    HW278500   2.659   0.359   4.608 -1.3524  0.9268  3.0766
25687SOL     OW78501   0.023   4.692   3.682 -0.6076  0.5828 -0.2735
25687SOL    HW178502  -0.052   4.714   3.627 -2.4112  0.2937  1.9523
25687SOL    HW278503  -0.001   4.609   3.724  1.7397 -0.4661 -0.7890
25688SOL     OW78504   7.355   7.759  11.116  0.7272  0.0216 -0.5118
25688SOL    HW178505   7.367   7.667  11.093 -0.7799 -0.1735 -0.6355
25688SOL    HW278506   7.296   7.757  11.192  1.1117  0.8720 -0.1743
25689SOL     OW78507   4.308   0.314   8.610  0.3788  0.8711 -0.4992
25689SOL    HW178508   4.225   0.274   8.585  0.0004  0.7182  0.9231
25689SOL    HW278509   4.366   0.240   8.627 -0.2078  0.8322  1.7499
25690SOL     OW78510   6.331   5.702   4.880  0.2231 -0.1854 -0.7181
25690SOL    HW178511   6.361   5.708   4.970  2.2022 -0.6603 -1.2932
25690SOL    HW278512   6.236   5.710   4.885  0.3900  1.1285  1.2571
25691SOL     OW78513   5.538   1.740   1.649 -0.2356  0.1328 -0.0138
25691SOL    HW178514   5.583   1.759   1.567 -1.4910  1.3720 -0.4572
25691SOL    HW278515   5.527   1.825   1.691 -0.0982 -0.4249  1.1960
25692SOL     OW78516   2.484   1.087   7.655  0.3494  0.1806 -0.4882
25692SOL    HW178517   2.560   1.094   7.713  1.2954  0.3674 -1.7098
25692SOL    HW278518   2.489   0.999   7.619 -0.2628  0.0444 -0.2428
25693SOL     OW78519   4.180   1.998   5.793  0.3581 -0.1877 -0.8209
25693SOL    HW178520   4.226   2.071   5.752 -1.1269  0.3060 -1.6709
25693SOL    HW278521   4.101   2.037   5.830  1.3080 -0.7447  1.9881
25694SOL     OW78522   5.282   0.095   0.053  0.3117 -0.2464  0.5423
25694SOL    HW178523   5.234   0.018   0.020  1.0765 -1.3807  1.9621
25694SOL    HW278524   5.231   0.125   0.128  0.9932 -0.5408  1.1389
25695SOL     OW78525   2.699   1.967   6.786  0.0571  0.1007 -0.0989
25695SOL    HW178526   2.759   1.974   6.861 -0.9977  2.2500  0.6037
25695SOL    HW278527   2.625   1.916   6.820  0.4282 -0.5939 -0.2971
25696SOL     OW78528   4.554   3.537   4.615  0.0271 -0.9218  0.1450
25696SOL    HW178529   4.459   3.530   4.619  0.0069 -0.4767  0.6255
25696SOL    HW278530   4.571   3.610   4.555  0.0807 -1.3228 -0.3312
25697SOL     OW78531   5.518   6.365   0.001  0.0098  0.3317 -0.1191
25697SOL    HW178532   5.512   6.363   0.097 -0.3904  0.6549 -0.1339
25697SOL    HW278533   5.454   6.300  -0.029  0.8241 -0.4647 -0.1494
25698SOL     OW78534   1.079   6.402   2.062  0.3399 -0.1363 -0.4833
25698SOL    HW178535   1.000   6.384   2.011  0.2644 -1.4675  0.0665
25698SOL    HW278536   1.091   6.324   2.116  2.1388 -0.0399 -0.6960
25699SOL     OW78537   1.336   3.020   0.556 -0.3399  0.6234  0.1741
25699SOL    HW178538   1.250   2.978   0.558 -0.5452  1.0312  1.6205
25699SOL    HW278539   1.316   3.114   0.559  0.0751  0.7381  3.2251
25700SOL     OW78540   5.970   7.127   8.840  0.0906  0.0865 -0.1852
25700SOL    HW178541   6.037   7.150   8.904 -1.2057  0.7479  0.9769
25700SOL    HW278542   5.894   7.181   8.863 -0.3268  0.6032 -2.4834
25701SOL     OW78543   5.595   4.733   4.195  0.3931  0.2974 -0.5294
25701SOL    HW178544   5.614   4.813   4.244  0.3217  1.0447 -1.6912
25701SOL    HW278545   5.505   4.710   4.220  0.6871  0.1286  0.3995
25702SOL     OW78546   7.803   6.248  11.193  0.2091  0.1179  0.4455
25702SOL    HW178547   7.824   6.292  11.275 -1.0244 -0.1645  0.9352
25702SOL    HW278548   7.798   6.155  11.216 -2.1126  0.1945  0.5466
25703SOL     OW78549   1.864   0.434   4.265 -0.0461  0.3611 -0.6163
25703SOL    HW178550   1.905   0.491   4.199 -0.4321  0.7629 -0.5187
25703SOL    HW278551   1.821   0.366   4.214 -1.4922  1.4194 -0.8882
25704SOL     OW78552   5.314   3.448   3.600 -0.5604 -0.9225 -0.2387
25704SOL    HW178553   5.395   3.402   3.624  0.7734  0.6855 -1.4050
25704SOL    HW278554   5.314   3.527   3.655 -0.9045 -0.5119 -0.8127
25705SOL     OW78555   0.202   3.050  10.902 -0.4609 -0.5260  0.2895
25705SOL    HW178556   0.156   2.971  10.931 -1.8544  0.6015  1.3130
25705SOL    HW278557   0.218   3.035  10.809  0.5581 -2.5697  0.7155
25706SOL     OW78558   6.353   2.668  10.069 -0.1855 -0.1865 -0.2235
25706SOL    HW178559   6.328   2.651   9.978 -0.4808 -2.2846  0.1948
25706SOL    HW278560   6.316   2.754  10.088  0.0353  0.3778 -2.1233
25707SOL     OW78561   5.505   2.599   2.876 -0.0700 -0.2785 -0.0966
25707SOL    HW178562   5.458   2.642   2.804 -1.8922  1.5967  2.0687
25707SOL    HW278563   5.598   2.615   2.857 -0.5296  0.9490 -1.5444
25708SOL     OW78564   3.716   2.262   5.354 -0.3516  0.2105 -0.0524
25708SOL    HW178565   3.755   2.347   5.376 -2.0577  0.8992  0.4458
25708SOL    HW278566   3.769   2.199   5.402  1.1836  0.9351 -0.7233
25709SOL     OW78567   7.256   0.262   1.940 -0.4421 -0.0518 -0.3625
25709SOL    HW178568   7.309   0.220   1.872 -1.6081 -1.9659 -0.1694
25709SOL    HW278569   7.233   0.191   2.000  1.0708  1.6588  2.4788
25710SOL     OW78570   0.265   3.662   7.309 -0.4971 -0.3673 -0.3620
25710SOL    HW178571   0.312   3.619   7.237 -0.6069 -1.7846  0.3780
25710SOL    HW278572   0.187   3.699   7.268 -0.1665 -0.4686 -1.1013
25711SOL     OW78573   7.152   6.962  10.221 -0.1807 -0.3360  0.2820
25711SOL    HW178574   7.222   6.985  10.159 -1.0529 -1.4872 -1.2017
25711SOL    HW278575   7.175   6.874  10.251 -0.0626 -0.0044  1.1870
25712SOL     OW78576   7.049   2.784   1.244  0.2145  0.6051  0.0628
25712SOL    HW178577   7.083   2.873   1.240  0.9815  0.2868 -0.6834
25712SOL    HW278578   6.958   2.792   1.214  0.3568  1.1039 -0.2488
25713SOL     OW78579   7.877   5.538   0.873  1.2116  0.5797 -0.0846
25713SOL    HW178580   7.940   5.593   0.920 -0.0329  1.1364  0.9878
25713SOL    HW278581   7.812   5.600   0.838 -0.2547 -0.1699  1.2087
25714SOL     OW78582   2.065   7.294   0.097 -0.0146  0.2310 -0.2744
25714SOL    HW178583   2.078   7.286   0.003 -1.1323 -1.8863 -0.3147
25714SOL    HW278584   2.150   7.322   0.131  1.1997 -1.5116 -1.6766
25715SOL     OW78585   4.116   3.233  10.443  0.2440 -0.6606  0.0753
25715SOL    HW178586   4.157   3.205  10.525  0.4758  2.4736  1.1389
25715SOL    HW278587   4.022   3.218  10.456  0.4689 -2.3997 -0.0868
25716SOL     OW78588   5.291   7.256  11.141  0.2863  0.1415  0.3655
25716SOL    HW178589   5.271   7.333  11.194 -1.8774  0.2615 -0.5514
25716SOL    HW278590   5.300   7.185  11.204  0.4549  0.7809  1.0730
25717SOL     OW78591   6.575   5.407  10.777  0.1619 -0.2910  0.6311
25717SOL    HW178592   6.621   5.449  10.704 -1.4321 -0.1459 -0.3343
25717SOL    HW278593   6.633   5.336  10.804  1.7325  0.9299  0.6059
25718SOL     OW78594   6.774   7.846   0.403  0.4395 -0.1520 -0.0450
25718SOL    HW178595   6.810   7.774   0.351  1.4196  1.1674 -1.2796
25718SOL    HW278596   6.842   7.867   0.466  0.1612 -0.2861  0.3045
25719SOL     OW78597   2.441   4.939   1.057  0.1292  0.5676 -0.7905
25719SOL    HW178598   2.500   5.007   1.026  0.9187  0.5729  0.6123
25719SOL    HW278599   2.494   4.859   1.057  0.6916  0.8411  1.8726
25720SOL     OW78600   3.532   7.207   0.987  0.2133  0.6589 -0.0537
25720SOL    HW178601   3.443   7.233   1.010  0.2184  0.8966 -0.2954
25720SOL    HW278602   3.589   7.267   1.036  0.2779 -0.3278  1.1349
25721SOL     OW78603   0.389   4.736   4.126 -0.5740  0.1496  0.0017
25721SOL    HW178604   0.393   4.681   4.048  0.6195 -0.8209  0.7156
25721SOL    HW278605   0.476   4.729   4.165 -0.7528  1.6350  0.7475
25722SOL     OW78606   1.839   3.787   7.852  0.0110 -0.1846 -0.1155
25722SOL    HW178607   1.855   3.782   7.946  1.8462  1.0158 -0.3271
25722SOL    HW278608   1.917   3.749   7.812  0.4293  1.6658 -1.1552
25723SOL     OW78609   5.173   0.310   2.387 -0.6289 -0.6916  0.1451
25723SOL    HW178610   5.079   0.297   2.398 -0.8388  0.1096 -0.6152
25723SOL    HW278611   5.182   0.400   2.356  0.3382 -1.0003 -0.5150
25724SOL     OW78612   2.823   2.586   9.136  0.4573 -0.5426  0.3644
25724SOL    HW178613   2.809   2.632   9.219 -0.5190 -1.9886  1.0364
25724SOL    HW278614   2.916   2.564   9.136  0.8359  0.9398  0.2596
25725SOL     OW78615   2.081   6.439   6.052  0.1400  0.3669 -0.6477
25725SOL    HW178616   1.989   6.415   6.041  0.6639 -1.2689 -1.8705
25725SOL    HW278617   2.086   6.472   6.141 -1.0052 -2.8205  0.7495
25726SOL     OW78618   2.082   3.195   9.017 -0.2617 -0.0435 -0.0440
25726SOL    HW178619   2.161   3.193   9.071 -0.2737 -1.1063 -0.0452
25726SOL    HW278620   2.013   3.224   9.076  0.1034  0.8690 -0.0352
25727SOL     OW78621   5.417   3.337   6.338 -0.3672  0.0918  0.2235
25727SOL    HW178622   5.483   3.372   6.398 -1.4298  2.3044  0.2071
25727SOL    HW278623   5.436   3.379   6.254 -1.6741  0.6603  0.1908
25728SOL     OW78624   0.242   6.405  11.698 -0.1746 -0.3800 -0.6129
25728SOL    HW178625   0.196   6.487  11.679  1.6789  1.2688  1.5549
25728SOL    HW278626   0.290   6.386  11.618 -0.1019  1.0361 -0.9310
25729SOL     OW78627   2.475   4.865   5.284  0.7158  0.1869 -0.0536
25729SOL    HW178628   2.452   4.800   5.351  0.3851 -0.9112 -1.1858
25729SOL    HW278629   2.391   4.903   5.258  0.2452 -2.2113 -2.5768
25730SOL     OW78630   0.956   0.014   4.690  0.2831  0.3254 -0.2178
25730SOL    HW178631   0.877  -0.017   4.735  0.9499 -0.1742  0.6116
25730SOL    HW278632   0.950  -0.025   4.603  0.1668 -0.6086  0.2024
25731SOL     OW78633   6.130   1.092   9.875  0.2693  0.1540 -0.1993
25731SOL    HW178634   6.083   1.032   9.817  0.0306  0.7321 -0.6147
25731SOL    HW278635   6.064   1.122   9.938  0.6734 -0.9684  0.7938
25732SOL     OW78636   3.585   4.012   5.949 -0.3188  0.0125  0.0432
25732SOL    HW178637   3.596   4.069   5.873  1.2764  1.9677  1.6148
25732SOL    HW278638   3.534   4.064   6.012 -0.4965 -1.0372  0.7966
25733SOL     OW78639   4.821   7.242  11.243 -0.1777 -0.8621 -0.6244
25733SOL    HW178640   4.824   7.162  11.296  1.8847 -0.1596  0.4125
25733SOL    HW278641   4.806   7.312  11.306 -2.4600 -0.3880 -1.5824
25734SOL     OW78642   2.751   4.541   8.880  0.9294 -0.0741 -0.5862
25734SOL    HW178643   2.793   4.569   8.962  2.4175  0.1568 -1.3964
25734SOL    HW278644   2.666   4.585   8.881  0.9740  0.0290  0.7693
25735SOL     OW78645   0.804   1.515   4.199  0.6368 -0.1481  0.2546
25735SOL    HW178646   0.760   1.562   4.270 -0.9278 -0.4565 -0.4743
25735SOL    HW278647   0.836   1.584   4.141 -2.1887  0.1181 -1.1368
25736SOL     OW78648   6.594   6.130   0.235  0.3556 -0.0503  0.4640
25736SOL    HW178649   6.512   6.164   0.199 -0.5643 -0.8046  1.7657
25736SOL    HW278650   6.658   6.142   0.164 -1.1951 -0.7696 -1.1487
25737SOL     OW78651   1.686   7.574   3.506  0.0147  0.4212  0.1299
25737SOL    HW178652   1.759   7.515   3.487 -0.1392  0.2415  0.0949
25737SOL    HW278653   1.629   7.523   3.563 -0.8173  0.0244 -1.0145
25738SOL     OW78654   5.631   3.113   6.563  0.4388  0.2253  0.2553
25738SOL    HW178655   5.680   3.036   6.535  2.2180  0.8412  1.4688
25738SOL    HW278656   5.662   3.184   6.506 -3.1514 -0.3198 -2.7198
25739SOL     OW78657   3.056   2.630   4.873  0.9140  0.0895 -0.5117
25739SOL    HW178658   3.067   2.562   4.806  1.2937  0.9345 -1.3289
25739SOL    HW278659   3.146   2.654   4.897  0.8006  1.0926 -1.0569
25740SOL     OW78660   4.062   0.827   0.647 -0.1506  0.0259  1.0119
25740SOL    HW178661   4.108   0.908   0.668  1.1965  0.0378 -1.5251
25740SOL    HW278662   4.009   0.849   0.570  0.1341 -1.4302  0.3652
25741SOL     OW78663   6.810   2.420   4.267 -0.1561  0.1388 -0.1331
25741SOL    HW178664   6.879   2.404   4.202 -0.9790 -0.2061 -0.9376
25741SOL    HW278665   6.843   2.381   4.348  0.5283 -0.1532 -0.5478
25742SOL     OW78666   6.791   7.582   6.202 -0.4039 -0.0662  0.1434
25742SOL    HW178667   6.782   7.493   6.168  2.3142 -0.7414  0.9454
25742SOL    HW278668   6.786   7.637   6.124 -0.5290 -1.0649 -0.5844
25743SOL     OW78669   0.489   1.269   1.991  0.2865 -0.1198  0.1829
25743SOL    HW178670   0.401   1.244   1.961 -0.3350  1.5166  0.5466
25743SOL    HW278671   0.545   1.249   1.916 -0.5830 -0.1434 -0.4892
25744SOL     OW78672   7.784   7.197   6.541  0.4940  0.1179 -0.0054
25744SOL    HW178673   7.717   7.137   6.508 -0.2801  1.4123 -0.9033
25744SOL    HW278674   7.867   7.155   6.519  0.0041 -1.6033  1.2969
25745SOL     OW78675   3.767   7.312   5.108 -0.3120 -0.6937 -0.4833
25745SOL    HW178676   3.687   7.324   5.056  0.0182 -1.8338 -1.3165
25745SOL    HW278677   3.768   7.385   5.169 -0.0605  1.5147 -2.9478
25746SOL     OW78678   4.960   4.794   1.020  0.6399  0.4909 -0.3432
25746SOL    HW178679   5.014   4.787   1.099 -0.0872 -0.2403  0.0930
25746SOL    HW278680   4.870   4.794   1.052  0.3161 -0.5047 -1.2140
25747SOL     OW78681   1.052   1.204   0.270 -0.0233  0.8126  0.2402
25747SOL    HW178682   1.094   1.178   0.352  1.9789 -1.1231 -1.2714
25747SOL    HW278683   1.087   1.291   0.251 -0.9622  1.5415  1.6597
25748SOL     OW78684   4.860   5.039   5.999  0.5144 -0.4899  0.3321
25748SOL    HW178685   4.796   5.057   5.931 -0.5591  0.8650  1.6384
25748SOL    HW278686   4.812   4.985   6.063  0.8766 -0.0687  0.9730
25749SOL     OW78687   7.484   0.317  12.211 -0.4871  0.4161  0.1022
25749SOL    HW178688   7.449   0.313  12.121 -2.7656  0.4195  0.9140
25749SOL    HW278689   7.517   0.228  12.227 -2.4440 -0.3669  0.0904
25750SOL     OW78690   4.545   6.504  12.362  0.5862  0.5039  0.4347
25750SOL    HW178691   4.635   6.472  12.356  0.7355  1.0605 -0.5073
25750SOL    HW278692   4.549   6.593  12.326 -0.8626 -0.4917 -2.5088
25751SOL     OW78693   3.530   0.897  10.033 -0.3164  0.3852  0.0993
25751SOL    HW178694   3.577   0.975  10.064 -1.7333  0.4594  2.2262
25751SOL    HW278695   3.547   0.830  10.099  1.6608 -1.5352 -2.1689
25752SOL     OW78696   4.102   0.979   5.277  0.0379 -0.2098  0.4272
25752SOL    HW178697   4.154   0.909   5.239 -0.5035 -0.8429  0.8339
25752SOL    HW278698   4.039   1.003   5.209  1.6527  1.4874 -0.5908
25753SOL     OW78699   1.945   5.121  11.889  0.4792 -0.4919 -0.2025
25753SOL    HW178700   1.860   5.163  11.877 -0.5452 -1.8826  1.5701
25753SOL    HW278701   1.969   5.090  11.801 -0.8203 -0.0162 -0.7534
25754SOL     OW78702   5.335   0.740   0.177 -0.4561 -0.1855  0.0332
25754SOL    HW178703   5.292   0.756   0.261 -2.4917  0.0215 -0.9967
25754SOL    HW278704   5.428   0.751   0.196 -0.9581  1.3976  1.9296
25755SOL     OW78705   4.644   1.223   6.876 -0.3269  0.0702 -0.9546
25755SOL    HW178706   4.613   1.304   6.917  0.2342  0.6662 -1.6853
25755SOL    HW278707   4.589   1.213   6.798 -0.7193 -0.5167 -0.6078
25756SOL     OW78708   1.534   7.246   9.885  0.2523 -0.1747 -0.0782
25756SOL    HW178709   1.472   7.209   9.823 -0.6608  0.2584  0.5541
25756SOL    HW278710   1.575   7.170   9.927 -1.3818 -0.5196  0.9863
25757SOL     OW78711   1.554   7.213   0.114  0.7398 -0.0917 -0.3560
25757SOL    HW178712   1.642   7.217   0.077  1.2180  1.6097  0.8123
25757SOL    HW278713   1.499   7.180   0.043  2.0988  0.1529 -1.5612
25758SOL     OW78714   6.724   1.846  12.245  0.0800 -0.1263 -0.4355
25758SOL    HW178715   6.703   1.812  12.332 -0.2274  1.3887  0.1054
25758SOL    HW278716   6.816   1.873  12.251  0.3427 -0.8983 -0.8798
25759SOL     OW78717   4.874   0.171   1.118  0.0963  0.3764  0.3197
25759SOL    HW178718   4.881   0.077   1.135 -2.9833 -0.1209 -0.5602
25759SOL    HW278719   4.886   0.179   1.023 -1.2989  0.6176  0.1508
25760SOL     OW78720   0.301   2.323   3.277 -0.2637 -0.5099  0.4154
25760SOL    HW178721   0.382   2.280   3.302 -1.0726 -1.3597  1.7134
25760SOL    HW278722   0.285   2.386   3.347 -0.3244  0.2096 -0.2390
25761SOL     OW78723   4.069   1.850   6.942  0.1273  0.0415  0.5620
25761SOL    HW178724   4.025   1.886   7.020 -0.5576 -0.2309  0.3067
25761SOL    HW278725   4.010   1.870   6.870  0.8475  0.4518  0.0726
25762SOL     OW78726   0.040   1.118   5.112 -0.2780 -0.4078 -0.2720
25762SOL    HW178727   0.087   1.055   5.167 -1.4057 -0.3304  0.8174
25762SOL    HW278728  -0.037   1.070   5.081 -1.7191  0.6746  1.4271
25763SOL     OW78729   6.478   7.750   8.466  0.0400  0.6718 -0.2829
25763SOL    HW178730   6.530   7.708   8.534 -0.4290  1.1863  0.4015
25763SOL    HW278731   6.436   7.678   8.420  0.5504  0.3068 -0.1955
25764SOL     OW78732   7.171   4.250   3.262 -0.2761  0.1699 -0.0027
25764SOL    HW178733   7.105   4.282   3.323  1.0563  0.4701  1.3541
25764SOL    HW278734   7.250   4.299   3.285  0.2907  0.2321 -1.9476
25765SOL     OW78735   7.073   3.148   6.691 -0.2274  0.2137  0.1214
25765SOL    HW178736   7.097   3.057   6.677 -1.2238 -0.3106  1.6542
25765SOL    HW278737   7.049   3.153   6.783 -2.0435  1.5971 -0.3803
25766SOL     OW78738   5.084   4.806   0.354 -0.7504  0.1605  0.1151
25766SOL    HW178739   4.991   4.829   0.350 -1.2480 -1.7560 -1.8322
25766SOL    HW278740   5.089   4.735   0.418 -0.1624  1.8148  1.9906
25767SOL     OW78741   4.683   6.643   8.601  0.1988 -0.4287 -0.1763
25767SOL    HW178742   4.654   6.568   8.654  1.3116 -0.5983  0.2176
25767SOL    HW278743   4.603   6.692   8.584  0.0915  1.9495  5.1254
25768SOL     OW78744   0.495   0.206  11.870 -0.4597  0.4656  0.2010
25768SOL    HW178745   0.488   0.229  11.778 -0.0815  0.8062  0.2538
25768SOL    HW278746   0.587   0.219  11.891 -0.6906  1.1743  0.8229
25769SOL     OW78747   6.972   2.403   9.369  0.4514  0.5457  0.3431
25769SOL    HW178748   6.897   2.453   9.402 -1.3438 -1.1566 -0.8835
25769SOL    HW278749   6.982   2.331   9.431 -0.7576 -0.7514 -0.8765
25770SOL     OW78750   5.112   7.442   6.040  0.2731 -0.0665 -0.1017
25770SOL    HW178751   5.098   7.512   5.976 -2.5510  0.3090  0.8246
25770SOL    HW278752   5.029   7.396   6.044  1.0420 -1.4149  1.7613
25771SOL     OW78753   2.174   4.568   6.545 -0.1431  0.1042 -0.0148
25771SOL    HW178754   2.200   4.476   6.533 -1.1688 -0.1163 -0.6233
25771SOL    HW278755   2.186   4.584   6.638  2.2377  0.0480 -0.2490
25772SOL     OW78756   5.154   5.779   2.663  0.0471 -0.5018 -0.3664
25772SOL    HW178757   5.096   5.830   2.720  0.3082 -0.1388 -0.4208
25772SOL    HW278758   5.180   5.704   2.716 -2.8497 -2.3646 -1.2984
25773SOL     OW78759   2.838   4.728   8.022 -0.0002 -0.0763  0.0512
25773SOL    HW178760   2.931   4.736   8.044  0.0817 -0.6587 -0.0735
25773SOL    HW278761   2.793   4.734   8.106  0.1993 -0.5822  0.1948
25774SOL     OW78762   1.962   3.842   0.766 -0.1696  0.4052 -0.0487
25774SOL    HW178763   1.985   3.930   0.795 -0.4009 -0.0155  1.5337
25774SOL    HW278764   1.908   3.807   0.837  1.5015 -1.7001  0.2983
25775SOL     OW78765   7.036   5.110   1.888  0.2853  0.5745  0.2819
25775SOL    HW178766   7.098   5.168   1.933 -1.2546  1.6488  1.1272
25775SOL    HW278767   7.054   5.122   1.795  1.7332  0.3932  0.5221
25776SOL     OW78768   1.253   3.250   9.287 -0.1148 -0.2971  0.4901
25776SOL    HW178769   1.340   3.212   9.299  0.8460  1.8212  0.6799
25776SOL    HW278770   1.217   3.257   9.375 -0.9729 -2.0911  0.3464
25777SOL     OW78771   0.259   3.851   9.384  0.2491  0.1073  0.3834
25777SOL    HW178772   0.286   3.942   9.367 -0.2736  0.3106  0.6235
25777SOL    HW278773   0.329   3.815   9.439  0.1694  0.5412  0.7706
25778SOL     OW78774   3.298   6.121   5.530  0.7851 -0.3555  0.0736
25778SOL    HW178775   3.278   6.122   5.623  1.3276 -0.5305  0.1970
25778SOL    HW278776   3.394   6.123   5.526  0.7592  0.7351 -0.4919
25779SOL     OW78777   0.847   3.343   5.223 -0.5521 -0.4315 -0.2155
25779SOL    HW178778   0.919   3.369   5.281 -0.1349 -1.6127 -0.1791
25779SOL    HW278779   0.866   3.387   5.140  0.3806 -0.9691 -0.2935
25780SOL     OW78780   5.662   5.943   8.990 -0.2789 -0.0198  0.2013
25780SOL    HW178781   5.716   5.918   8.915  3.0297  1.4446  1.9060
25780SOL    HW278782   5.637   6.034   8.972 -1.9607 -0.5526 -0.3704
25781SOL     OW78783   6.440   0.007   9.357  0.2203 -0.0750 -0.3163
25781SOL    HW178784   6.534  -0.009   9.346  0.0527 -2.1838  0.8870
25781SOL    HW278785   6.400  -0.080   9.357 -1.7579  0.7761 -0.8346
25782SOL     OW78786   5.153   3.152   7.831 -0.2367 -0.2294  0.5189
25782SOL    HW178787   5.138   3.108   7.748  0.4683 -1.3812  0.9664
25782SOL    HW278788   5.107   3.236   7.824  0.0404 -0.1919 -1.1185
25783SOL     OW78789   0.814   2.849   5.623 -0.1724 -0.0241 -0.0080
25783SOL    HW178790   0.880   2.875   5.688 -0.2775  0.2529 -0.0119
25783SOL    HW278791   0.818   2.753   5.622  2.2102 -0.0295 -2.0001
25784SOL     OW78792   7.214   1.573   0.822  0.2550 -0.3014 -0.3663
25784SOL    HW178793   7.297   1.593   0.866 -0.5381  1.3394  0.4611
25784SOL    HW278794   7.168   1.516   0.884 -0.7642  1.8233  0.9148
25785SOL     OW78795   2.816   2.299   3.664 -0.0494 -0.0863 -0.2933
25785SOL    HW178796   2.806   2.230   3.729 -2.3734  0.5962  0.1511
25785SOL    HW278797   2.908   2.294   3.638  0.7533 -0.9471  2.3815
25786SOL     OW78798   7.304   0.954   7.372  0.1945  0.4877 -0.3013
25786SOL    HW178799   7.307   1.015   7.445  2.2187  1.3621 -1.0264
25786SOL    HW278800   7.300   0.867   7.414 -0.0870  1.0154  0.8066
25787SOL     OW78801   2.737   1.691   8.924 -0.3753 -0.0664 -0.0475
25787SOL    HW178802   2.666   1.640   8.963  0.2332 -1.1043 -0.2584
25787SOL    HW278803   2.692   1.760   8.874 -1.1813  0.5087  1.4158
25788SOL     OW78804   1.522   6.777   1.326  0.0329 -0.0086 -0.0122
25788SOL    HW178805   1.597   6.766   1.385 -1.3413  0.1376  1.8474
25788SOL    HW278806   1.511   6.691   1.286  1.0609 -0.0866 -0.1628
25789SOL     OW78807   7.530   6.170   0.208  0.0957  0.2859  0.0341
25789SOL    HW178808   7.482   6.205   0.132 -1.8715 -1.0130  0.6021
25789SOL    HW278809   7.602   6.121   0.170  1.4744  2.7809 -0.8398
25790SOL     OW78810   2.323   0.726  12.301  0.3766 -0.2474  0.1433
25790SOL    HW178811   2.250   0.788  12.309 -0.4768 -1.3705  1.3740
25790SOL    HW278812   2.322   0.701  12.208 -0.7669 -0.1693  0.1152
25791SOL     OW78813   2.059   5.404   1.455 -0.0149  0.0127 -0.0083
25791SOL    HW178814   2.128   5.470   1.463  1.1534 -1.2350  0.5389
25791SOL    HW278815   2.002   5.420   1.531 -0.3035  0.9745 -0.4022
25792SOL     OW78816   1.013   2.582   8.092  0.0616  0.1193  0.2140
25792SOL    HW178817   0.978   2.492   8.096  0.1660  0.0583 -0.1826
25792SOL    HW278818   1.104   2.571   8.064 -0.1783  0.4001 -0.7085
25793SOL     OW78819   1.490   3.303   0.639 -0.1815  0.4426  0.1681
25793SOL    HW178820   1.544   3.227   0.620  0.3523  1.0992 -1.0222
25793SOL    HW278821   1.535   3.348   0.711  0.5651  0.6854 -0.4436
25794SOL     OW78822   4.378   7.569   9.410 -0.4273 -0.5068  0.0414
25794SOL    HW178823   4.286   7.594   9.422 -0.0865 -0.0924  2.3959
25794SOL    HW278824   4.426   7.651   9.419  0.2974 -1.0427  1.4242
25795SOL     OW78825   2.539   2.489   9.765  0.3629  0.1993 -0.1893
25795SOL    HW178826   2.454   2.473   9.725 -0.2116  0.7893  0.7610
25795SOL    HW278827   2.528   2.570   9.814  0.4923 -1.3783  2.6186
25796SOL     OW78828   2.441   6.290   6.035 -0.7665 -0.0208  0.3314
25796SOL    HW178829   2.384   6.216   6.014  0.0136 -0.7616  0.7908
25796SOL    HW278830   2.501   6.297   5.961  0.6627 -1.3434  1.3144
25797SOL     OW78831   7.420   7.196   1.859  0.1030  0.3746 -0.5464
25797SOL    HW178832   7.404   7.123   1.920 -1.3282  1.4276  0.4214
25797SOL    HW278833   7.419   7.155   1.773 -0.5866 -0.7869 -0.0223
25798SOL     OW78834   0.418   3.691  11.335 -0.2554 -0.4700 -0.1879
25798SOL    HW178835   0.343   3.694  11.276  0.5824 -0.0146 -1.2620
25798SOL    HW278836   0.464   3.611  11.310  0.7812  0.3622 -1.0390
25799SOL     OW78837   0.201   3.165   0.594  0.1207 -0.2688  0.3087
25799SOL    HW178838   0.133   3.222   0.628 -0.5568 -1.0690  0.3149
25799SOL    HW278839   0.173   3.077   0.617 -0.0295 -0.8018 -1.6997
25800SOL     OW78840   6.952   2.462  10.130 -0.1559 -0.2959 -0.1360
25800SOL    HW178841   6.867   2.501  10.149  0.4997  0.8611  0.4988
25800SOL    HW278842   6.974   2.415  10.210 -0.5768 -1.3543 -0.6153
25801SOL     OW78843   3.667   0.389   3.482  0.0497  0.3422  0.4269
25801SOL    HW178844   3.648   0.480   3.501 -0.5543  0.1764  0.6346
25801SOL    HW278845   3.585   0.343   3.499 -0.2413  0.0362 -1.5336
25802SOL     OW78846   3.852   3.811   6.580  0.3476 -0.3283  0.1497
25802SOL    HW178847   3.929   3.837   6.529 -0.3385 -1.8032 -1.7527
25802SOL    HW278848   3.802   3.892   6.592  1.0823  0.2426 -0.5335
25803SOL     OW78849   0.005   6.885   6.967  0.1163  0.3851  0.0355
25803SOL    HW178850  -0.089   6.871   6.958  0.4115 -0.5153 -2.4420
25803SOL    HW278851   0.022   6.870   7.060 -1.9523 -1.0563  0.2595
25804SOL     OW78852   2.204   1.590   4.715 -0.3740 -0.4045  0.1077
25804SOL    HW178853   2.183   1.593   4.622 -1.1252  0.0037  0.2855
25804SOL    HW278854   2.261   1.514   4.725  0.0037 -0.2389 -0.7399
25805SOL     OW78855   2.764   2.358   9.871  0.3092  0.0774  0.0940
25805SOL    HW178856   2.672   2.352   9.844  0.0935  0.7226  0.6527
25805SOL    HW278857   2.764   2.425   9.940  1.2538  0.3384 -0.1507
25806SOL     OW78858   0.582   0.575   9.870  0.1840 -0.1761  0.3815
25806SOL    HW178859   0.565   0.667   9.851  1.4731 -0.1016 -0.5921
25806SOL    HW278860   0.620   0.575   9.958 -0.9539  0.0699  0.8876
25807SOL     OW78861   1.588   2.209   9.931 -0.4514  0.3813  0.4017
25807SOL    HW178862   1.616   2.201  10.022  2.6522  1.6740 -0.3049
25807SOL    HW278863   1.657   2.168   9.881 -0.7856  1.9649 -1.4760
25808SOL     OW78864   3.208   4.421   5.319  0.3704 -0.1826  0.2817
25808SOL    HW178865   3.284   4.459   5.275  1.5682  0.2258  2.5591
25808SOL    HW278866   3.160   4.376   5.249  1.5505  1.3226 -1.6070
25809SOL     OW78867   7.651   3.612   5.238 -0.9538 -0.3964  0.1012
25809SOL    HW178868   7.642   3.695   5.191  0.2741 -1.0449 -1.3626
25809SOL    HW278869   7.612   3.547   5.180  0.7302 -1.2387 -0.1696
25810SOL     OW78870   1.419   1.165   5.278 -0.3203 -0.1644 -0.2100
25810SOL    HW178871   1.468   1.110   5.339 -1.0059 -0.9399 -0.3490
25810SOL    HW278872   1.376   1.104   5.219 -1.5962  0.4729  0.0067
25811SOL     OW78873   0.915   7.186   7.854 -0.1436  0.7190 -0.3290
25811SOL    HW178874   0.836   7.234   7.830 -0.0524  0.3282 -1.5279
25811SOL    HW278875   0.956   7.238   7.922 -1.2321  1.1277  0.0330
25812SOL     OW78876   0.803   7.319  10.626  0.7024 -0.2427 -0.0477
25812SOL    HW178877   0.811   7.231  10.590  0.6997 -0.8653  1.4391
25812SOL    HW278878   0.837   7.376  10.556  0.5635 -1.3895 -1.0804
25813SOL     OW78879   4.041   0.875   4.434  0.4499  0.4817 -0.2328
25813SOL    HW178880   3.960   0.923   4.416 -0.3257 -0.5869  0.3323
25813SOL    HW278881   4.074   0.913   4.515  0.5495  0.9468 -0.4858
25814SOL     OW78882   3.456   5.781   5.350  0.1714 -0.7446 -0.1762
25814SOL    HW178883   3.486   5.793   5.260 -0.3210  1.0993 -0.1326
25814SOL    HW278884   3.534   5.796   5.404 -0.0500  0.6447 -0.2122
25815SOL     OW78885   1.217   5.321  10.128 -0.2889  0.1568 -0.2704
25815SOL    HW178886   1.153   5.390  10.144  0.0333  0.5369 -0.5911
25815SOL    HW278887   1.291   5.366  10.088 -0.3028 -0.4587 -1.0237
25816SOL     OW78888   2.614   2.022   4.395  0.1137  0.4891 -0.3712
25816SOL    HW178889   2.670   2.051   4.323  1.0260 -0.8659 -0.2560
25816SOL    HW278890   2.582   2.102   4.435  0.4781  1.2739 -1.6134
25817SOL     OW78891   6.603   6.300   4.134  0.4034 -0.4587 -0.1665
25817SOL    HW178892   6.632   6.391   4.142  0.6704 -0.4729 -0.9004
25817SOL    HW278893   6.660   6.263   4.066 -1.4574 -0.4167 -1.8418
25818SOL     OW78894   5.518   0.093   9.618  0.1453 -0.0161 -0.3035
25818SOL    HW178895   5.531   0.013   9.567 -0.1270 -0.7627  0.7439
25818SOL    HW278896   5.426   0.088   9.646  0.1254  0.6658 -0.2389
25819SOL     OW78897   3.974   4.141   9.173  0.0984 -0.6235 -0.1184
25819SOL    HW178898   3.890   4.186   9.186  0.0206 -1.0555  0.9500
25819SOL    HW278899   4.003   4.170   9.087 -1.3805 -0.8494 -0.7162
25820SOL     OW78900   1.021   5.100   2.374 -0.7686  0.2405 -0.5702
25820SOL    HW178901   0.975   5.018   2.353 -0.4957  0.1410 -0.7866
25820SOL    HW278902   1.109   5.072   2.398 -0.8142  0.4325 -0.1736
25821SOL     OW78903   6.429   3.959  12.254  0.5108 -0.3599 -0.3027
25821SOL    HW178904   6.422   3.958  12.350  0.9713 -0.9069 -0.2708
25821SOL    HW278905   6.522   3.944  12.237  0.6304  0.8194 -0.8246
25822SOL     OW78906   1.170   3.034   3.798 -0.2424  0.2908 -0.1889
25822SOL    HW178907   1.262   3.047   3.821 -0.1663 -2.1232  1.1410
25822SOL    HW278908   1.133   2.985   3.871 -1.4794 -2.5939 -2.5779
25823SOL     OW78909   7.765   2.382   0.055  0.2081 -0.4766  0.2786
25823SOL    HW178910   7.823   2.308   0.074 -1.8655 -2.5415 -1.0322
25823SOL    HW278911   7.747   2.420   0.141 -0.7640 -3.1812  1.3648
25824SOL     OW78912   0.418   4.438  10.637 -0.1205  0.3092  0.8907
25824SOL    HW178913   0.421   4.364  10.697  0.7496  2.0625  3.1649
25824SOL    HW278914   0.347   4.493  10.670  0.2346  1.2266  0.1808
25825SOL     OW78915   6.083   4.829   2.215 -0.3989 -0.8212  0.4008
25825SOL    HW178916   6.140   4.800   2.287 -0.7180 -0.0440  0.9757
25825SOL    HW278917   5.995   4.823   2.251 -0.6095 -1.0115 -0.1387
25826SOL     OW78918   1.230   6.818   4.255  0.5669 -0.0004 -0.3744
25826SOL    HW178919   1.294   6.747   4.264  1.6453  0.9346 -0.4808
25826SOL    HW278920   1.241   6.849   4.165 -0.8316 -0.5458 -0.7606
25827SOL     OW78921   2.127   0.228   8.983  0.0348  0.4136  0.4993
25827SOL    HW178922   2.069   0.265   8.917  1.1737  1.5252  0.0816
25827SOL    HW278923   2.083   0.245   9.066 -1.0906 -0.4138  0.1024
25828SOL     OW78924   0.465   1.821  12.101  0.0351  0.8236  0.3445
25828SOL    HW178925   0.376   1.800  12.127  0.3878  1.2568  2.0563
25828SOL    HW278926   0.519   1.758  12.150  0.6640  0.1454 -1.1471
25829SOL     OW78927   0.669   5.166   4.806  0.3750 -0.0925  0.0083
25829SOL    HW178928   0.677   5.115   4.887 -2.2948  0.7002  0.8724
25829SOL    HW278929   0.605   5.118   4.753 -1.5034  1.7853  0.4562
25830SOL     OW78930   3.012   7.471   7.900  0.6325 -1.3163 -0.0788
25830SOL    HW178931   3.025   7.507   7.812 -0.2648 -0.2199  0.2132
25830SOL    HW278932   3.091   7.419   7.916  1.0571 -1.0920 -1.3136
25831SOL     OW78933   5.157   1.625  10.926  0.6010  0.2661  0.0574
25831SOL    HW178934   5.106   1.702  10.904  2.6915  1.7230  0.0127
25831SOL    HW278935   5.167   1.629  11.022 -0.7165 -0.9262  0.2645
25832SOL     OW78936   2.531   0.326  12.021  0.5366  0.1978  0.5895
25832SOL    HW178937   2.574   0.392  12.075 -1.1271  1.0395  0.9463
25832SOL    HW278938   2.590   0.315  11.945  0.8225  2.1407  0.4715
25833SOL     OW78939   7.956   7.819   3.053 -0.4690  0.3321 -0.3545
25833SOL    HW178940   7.943   7.914   3.053 -3.3288  0.0728  1.7145
25833SOL    HW278941   7.949   7.794   2.960  2.4077  2.2553 -1.2037
25834SOL     OW78942   2.003   3.742   4.410  0.3627  0.0108  0.3470
25834SOL    HW178943   1.934   3.796   4.372 -0.4386 -1.0336  0.2735
25834SOL    HW278944   1.961   3.697   4.483  1.1072 -0.2524  0.6207
25835SOL     OW78945   2.635   5.686   4.243 -0.1371  0.1760  0.2049
25835SOL    HW178946   2.673   5.768   4.275 -1.2303  0.8908 -0.2959
25835SOL    HW278947   2.654   5.686   4.149  1.3023 -0.9596  0.4542
25836SOL     OW78948   0.127   2.203   2.615 -0.0791 -0.6730  0.1402
25836SOL    HW178949   0.083   2.226   2.697 -0.7771 -1.2343 -0.0623
25836SOL    HW278950   0.112   2.277   2.557  1.8217  0.4694  1.0196
25837SOL     OW78951   3.817   6.237   1.908 -0.0227  0.3916  0.1154
25837SOL    HW178952   3.855   6.164   1.956  0.5686 -0.5436 -1.7088
25837SOL    HW278953   3.727   6.243   1.941 -1.0707 -3.0742 -1.6480
25838SOL     OW78954   0.362   1.476   6.400 -0.6062 -0.7235 -0.4984
25838SOL    HW178955   0.422   1.490   6.473 -0.4356  0.5322 -0.8531
25838SOL    HW278956   0.418   1.454   6.326 -0.3071  2.3241 -1.3177
25839SOL     OW78957   7.671   5.831   5.425 -0.6168  0.1011 -0.6481
25839SOL    HW178958   7.680   5.777   5.503  1.2455  0.1649 -0.7842
25839SOL    HW278959   7.607   5.785   5.370  1.2818 -2.2793 -0.9894
25840SOL     OW78960   0.767   6.443  11.223 -0.0417 -0.0013  0.2677
25840SOL    HW178961   0.809   6.500  11.287  1.8791 -3.0229  1.9172
25840SOL    HW278962   0.838   6.414  11.166 -0.6648 -1.8127  0.3656
25841SOL     OW78963   7.618   2.619  10.787 -0.1434  0.1422 -0.3096
25841SOL    HW178964   7.641   2.553  10.721 -2.3693 -0.4787 -0.5662
25841SOL    HW278965   7.522   2.622  10.785 -0.2163  1.2452  1.8192
25842SOL     OW78966   0.997   4.123   2.779  0.2588  0.3956  0.2839
25842SOL    HW178967   0.997   4.203   2.832 -0.8938  0.8954 -0.4191
25842SOL    HW278968   1.090   4.103   2.765  0.5627  1.2232  1.0332
25843SOL     OW78969   0.964   6.155  11.170 -0.2815  0.3462 -0.6026
25843SOL    HW178970   1.023   6.141  11.096 -0.3994 -0.7779 -0.5016
25843SOL    HW278971   0.909   6.076  11.172 -0.2468  0.3293  0.7028
25844SOL     OW78972   2.448   7.040   6.339 -0.3399  0.1256 -0.1035
25844SOL    HW178973   2.474   7.058   6.249  1.1272 -0.6608  0.1219
25844SOL    HW278974   2.366   6.993   6.333 -0.4987  0.5083 -0.9966
25845SOL     OW78975   0.916   6.540   9.439  0.1380  1.1495  0.4293
25845SOL    HW178976   0.823   6.554   9.459  0.5208  1.2535  2.3672
25845SOL    HW278977   0.940   6.462   9.489  0.6162 -0.1979 -1.7923
25846SOL     OW78978   1.610   6.966   7.354 -0.1734  0.1252  0.3162
25846SOL    HW178979   1.523   7.005   7.348  0.0738  0.6775  0.2375
25846SOL    HW278980   1.656   7.021   7.418 -0.1596 -0.6963  1.0280
25847SOL     OW78981   7.362   5.895  10.903 -0.4207  0.0144 -0.8095
25847SOL    HW178982   7.272   5.923  10.919  0.2103  2.0485 -0.5184
25847SOL    HW278983   7.406   5.973  10.869  0.8455 -1.3753 -2.5616
25848SOL     OW78984   0.780   1.778   6.922 -0.5589 -0.1934 -0.0769
25848SOL    HW178985   0.692   1.764   6.887 -0.2999 -0.1735 -0.7546
25848SOL    HW278986   0.827   1.698   6.902 -0.3623 -0.1212  0.0963
25849SOL     OW78987   0.587   4.946   0.167  0.4871 -0.3463  0.9498
25849SOL    HW178988   0.673   4.985   0.185  0.9710 -1.1704  0.4773
25849SOL    HW278989   0.554   4.996   0.092 -1.1630  2.5195  3.3381
25850SOL     OW78990   4.645   2.123   8.058  0.2000  0.0566 -0.6084
25850SOL    HW178991   4.700   2.090   8.129  0.9925  2.0318 -0.2497
25850SOL    HW278992   4.705   2.136   7.985 -0.1462  0.4100 -0.8346
25851SOL     OW78993   0.007   0.606   4.708  0.2617 -0.1515 -0.5201
25851SOL    HW178994   0.024   0.513   4.690 -1.6473 -0.9735  1.5479
25851SOL    HW278995  -0.030   0.607   4.796 -0.2100  2.5486 -0.6786
25852SOL     OW78996   2.587   1.838  11.475  0.4089 -0.5152 -0.6065
25852SOL    HW178997   2.548   1.752  11.488 -0.6727 -0.1818 -1.4018
25852SOL    HW278998   2.681   1.823  11.472  0.3480 -1.4118  1.0445
25853SOL     OW78999   7.889   5.980   0.485 -0.5064 -0.1915  0.1542
25853SOL    HW179000   7.909   5.969   0.578 -1.0918 -2.1808  0.1093
25853SOL    HW279001   7.972   5.964   0.441 -0.5118 -0.6646  0.2999
25854SOL     OW79002   1.803   2.844   5.887 -0.0622  0.0391 -0.0972
25854SOL    HW179003   1.720   2.891   5.881  0.6581  1.1655 -2.5688
25854SOL    HW279004   1.782   2.755   5.857 -0.3584  0.4143 -1.0668
25855SOL     OW79005   3.300   5.410   1.812  0.4122  0.2217 -0.0323
25855SOL    HW179006   3.245   5.468   1.759  1.3590  1.0729 -0.1034
25855SOL    HW279007   3.340   5.469   1.877  0.2219 -0.6045  0.8566
25856SOL     OW79008   2.377   2.810   1.551 -0.5492  0.4931 -0.2642
25856SOL    HW179009   2.318   2.736   1.538  0.4322 -0.6101  1.2331
25856SOL    HW279010   2.445   2.798   1.484 -1.4561  1.2260 -1.3569
25857SOL     OW79011   4.709   1.404   2.311  0.2857 -0.3058 -1.0193
25857SOL    HW179012   4.777   1.463   2.343  0.1836  0.5088 -2.2436
25857SOL    HW279013   4.653   1.388   2.386  0.6553  0.6779 -0.5261
25858SOL     OW79014   7.789   0.254   8.311 -0.3575 -0.2646  0.1114
25858SOL    HW179015   7.722   0.190   8.287  0.0785 -0.5193 -0.4556
25858SOL    HW279016   7.747   0.310   8.376 -0.3987 -1.8158  1.4984
25859SOL     OW79017   6.669   1.454   3.971 -0.0566  0.7475  0.1470
25859SOL    HW179018   6.615   1.531   3.955 -2.1441 -0.4475  0.9861
25859SOL    HW279019   6.676   1.449   4.066 -0.9229 -0.6818  0.1681
25860SOL     OW79020   5.588   2.398   1.364  0.0572  0.1265  0.2720
25860SOL    HW179021   5.591   2.484   1.322  0.6354  0.2950  0.6375
25860SOL    HW279022   5.676   2.362   1.350 -0.1853 -0.4107  0.1136
25861NA      NA79023   0.594   1.893  11.911 -0.1981 -0.1208  0.4951
25862NA      NA79024   7.707   4.505  10.230  0.2659 -0.1142 -0.1748
25863NA      NA79025   3.419   4.147   9.513  0.0853 -0.0682 -0.0329
25864NA      NA79026   4.627   4.687  12.169  0.6235 -0.1410  0.0778
25865NA      NA79027   3.937   6.442   4.612  0.3929 -0.0417 -0.3247
25866NA      NA79028   2.105   7.098   6.711 -0.2352 -0.0207 -0.1982
25867NA      NA79029   1.588   6.866   1.882 -0.0645 -0.4360  0.3384
25868NA      NA79030   4.819   6.758   8.770 -0.0221 -0.2877  0.5364
25869NA      NA79031   1.354   4.553  11.436  0.1550  0.2874 -0.0412
25870NA      NA79032   2.267   4.672   5.816 -0.2905  0.2634 -0.2687
25871NA      NA79033   1.975   4.133   9.798 -0.0350 -0.4150  0.8347
25872NA      NA79034   2.672   5.336   9.148 -0.0587 -0.0588  0.0184
25873NA      NA79035   4.616   0.069   5.459 -0.0625  0.5191 -0.3317
25874NA      NA79036   1.312   6.600   1.038  0.0815 -0.5020  0.1727
25875NA      NA79037   3.971   5.067   7.595  0.3967 -0.6734  0.1228
25876NA      NA79038   2.998   0.827   9.276 -0.0097 -0.1477 -0.0017
25877NA      NA79039   4.482   6.200   8.642  0.2306 -0.2825 -0.2790
25878NA      NA79040   5.431   3.917   2.441  0.5366 -0.1567  0.1395
25879NA      NA79041   4.772   1.580   8.858  0.2676  0.4427 -0.1571
25880NA      NA79042   0.139   0.014   7.703  0.0492 -0.1221  0.0443
25881NA      NA79043   1.934   7.112   0.077  0.2651  0.2235 -0.0382
25882NA      NA79044   7.485   3.959   6.386 -0.2336 -0.2379  0.1869
25883NA      NA79045   7.565   5.650   4.494 -0.0782  0.1679  0.0374
25884NA      NA79046   0.374   0.108   9.101 -0.3655 -0.6570  0.1779
25885NA      NA79047   3.847   1.428  11.850  0.0953 -0.0464 -0.0653
25886NA      NA79048   0.187   3.114   9.845  0.2802  0.5845  0.0891
25887NA      NA79049   7.472   1.151   6.977 -0.3230 -0.0680  0.1186
25888NA      NA79050   3.887   0.169   5.801  0.5090 -0.4895  0.2777
25889NA      NA79051   6.679   0.036   8.141  0.3386 -0.7334 -0.0213
25890NA      NA79052   3.852   3.610   6.719  0.3517  0.5283  0.2343
25891NA      NA79053   2.874   4.563   7.847  0.2541  0.3031 -0.1519
25892NA      NA79054   2.978   6.311   8.265  0.2408  0.0333  0.0699
25893NA      NA79055   5.069   3.432   6.418  0.1121 -0.6311 -0.2373
25894NA      NA79056   4.039   3.064   6.534 -0.3804 -0.0051 -0.0017
25895NA      NA79057   7.869   4.025  12.192 -0.0787 -0.2620 -0.0045
25896NA      NA79058   6.243   6.264   7.053  0.0107 -0.0913  0.0701
25897NA      NA79059   6.885   7.101   3.187  0.0827  0.3210  0.3543
25898NA      NA79060   3.772   3.254   8.924  0.0757 -0.2465 -0.1267
25899NA      NA79061   2.585   6.866   6.421 -0.4153  0.2571 -0.0969
25900NA      NA79062   3.869   4.192   6.199 -0.1982 -0.2998  0.0568
25901NA      NA79063   5.143   2.090   1.900  0.1057 -0.2450 -0.1311
25902NA      NA79064   4.789   4.165  10.839 -0.0864  0.3689 -0.1165
25903NA      NA79065   2.347   7.217   0.648  0.2406 -0.1932 -0.5788
25904NA      NA79066   0.772   5.982   9.619 -0.2292 -0.2008  0.0060
25905NA      NA79067   5.779   3.480  11.703  0.6313  0.5393 -0.3611
25906NA      NA79068   0.838   3.261   7.790 -0.2912  0.2201  0.1803
25907NA      NA79069   5.857   4.573   3.373 -0.1575  0.1353 -0.4626
25908NA      NA79070   0.006   4.119   8.552  0.0552 -0.2592 -0.1412
25909NA      NA79071   3.434   4.225   5.593  0.2381 -0.2420  0.1962
25910NA      NA79072   5.623   2.728   0.083 -0.3183  0.4136  0.1805
25911NA      NA79073   4.545   0.847   7.101  0.2349  0.7860 -0.2572
25912NA      NA79074   6.998   6.186   4.352 -0.2686 -0.2717  0.4035
25913NA      NA79075   1.235   2.878   8.776 -0.1814 -0.1680  0.2244
25914NA      NA79076   4.116   5.788  12.372  0.8597 -0.2473 -0.0356
25915NA      NA79077   3.505   3.850   0.520  0.0414 -0.6156 -0.4885
25916NA      NA79078   4.491   2.916   6.872 -0.0398  0.0223 -0.1176
25917NA      NA79079   3.684   3.697  10.422 -0.2972  0.1563 -0.3993
25918NA      NA79080   7.124   2.107   7.288 -0.1343 -0.0944  0.6041
25919NA      NA79081   5.297   2.995   9.619 -0.1022 -0.2570  0.0154
25920NA      NA79082   4.228   5.350   7.021  0.2162  0.3611  0.2687
25921NA      NA79083   1.876   4.636   8.182  0.4847 -0.0325  0.1703
25922NA      NA79084   1.981   5.770   3.615 -0.4790  0.2804 -0.2853
25923NA      NA79085   6.438   3.372   5.956  0.0508 -0.0825  0.2850
25924NA      NA79086   6.501   4.734   5.353  0.0510 -0.4993 -0.1980
25925NA      NA79087   7.705   4.876   6.201 -0.3198 -0.2499  0.1006
25926NA      NA79088   7.707   7.509   1.971  0.5436  0.6853  0.4506
25927NA      NA79089   0.992   3.432   2.172 -0.7209  0.1267  0.0762
25928NA      NA79090   5.844   2.824  11.327  0.1702  0.2119  0.2281
25929NA      NA79091   5.274   3.817   7.573 -0.3572  0.4014 -0.1370
25930NA      NA79092   4.756   5.076   8.627  0.2732  0.2421  0.2384
25931NA      NA79093   5.374   4.249   0.794 -0.1319 -0.0213 -0.3058
25932NA      NA79094   7.560   2.019   2.295 -0.1350  0.1372  0.1348
25933NA      NA79095   2.623   2.942  12.284 -0.4048  0.4412  0.2827
25934NA      NA79096   3.779   7.730   1.774 -0.2364 -0.5423 -0.1053
25935NA      NA79097   3.333   3.909   4.151 -0.2777 -0.3863 -0.0709
25936NA      NA79098   3.498   4.261  12.070 -0.1384 -0.1604  0.2452
25937NA      NA79099   4.444   4.303   7.824  0.1697 -0.2413  0.0861
25938NA      NA79100   3.981   3.885   9.255  0.5010 -0.2639  0.4434
25939NA      NA79101   2.355   4.971   1.769 -0.1932  0.2804  0.1213
25940NA      NA79102   3.694   1.154   7.841  0.6619  0.1932  0.1326
25941NA      NA79103   2.006   2.271   5.492 -0.3678 -0.4396  0.4174
25942NA      NA79104   7.302   4.108   2.857  0.2556  0.1489  0.2227
25943NA      NA79105   2.248   7.983   5.622  0.2260 -0.1281  0.0339
25944NA      NA79106   3.931   3.820  11.103 -0.3820 -0.1738  0.0564
25945NA      NA79107   1.438   2.690   3.608 -0.6319 -0.1834 -0.1963
25946NA      NA79108   1.583   6.629   8.024  0.4081 -0.2412 -0.6707
25947NA      NA79109   3.063   5.337  11.115  0.2329  0.4955 -0.4159
25948NA      NA79110   3.080   3.730   7.255  0.2409 -0.4683 -0.0268
25949NA      NA79111   4.273   3.520   9.298 -0.1798 -0.3844 -0.0002
25950NA      NA79112   5.914   3.489   9.798 -0.0454 -0.1335 -0.0668
25951NA      NA79113   2.809   3.302   8.385  0.4065  0.2204  0.3634
25952NA      NA79114   0.276   5.586   2.352 -0.0125 -0.2454 -0.2681
25953NA      NA79115   4.448   1.384   9.470  0.2022  0.4458 -0.4981
25954NA      NA79116   4.085   3.745   5.810  0.2467  0.0644  0.4435
25955NA      NA79117   2.444   4.288   7.371  0.5197  0.0848 -0.9059
25956NA      NA79118   4.711   7.457   3.784  0.1046 -0.1887 -0.0826
25957CL      CL79119   3.550   4.759   3.460  0.3995  0.2486 -0.1564
25958CL      CL79120   1.066   6.903   9.306 -0.3512 -0.1009 -0.3856
25959CL      CL79121   3.916   0.796   8.827 -0.0740  0.0037  0.2211
25960CL      CL79122   5.794   5.853   0.405  0.1229 -0.0629 -0.0416
25961CL      CL79123   6.838   0.551   5.809 -0.3191 -0.1510 -0.0265
25962CL      CL79124   3.935   5.840   0.568  0.4451  0.0337  0.1555
25963CL      CL79125   7.104   5.158   6.158  0.3032  0.2201  0.1003
25964CL      CL79126   0.274   2.323   6.706  0.0526 -0.0326  0.1476
25965CL      CL79127   0.975   5.515   2.647 -0.1456 -0.2438  0.0694
25966CL      CL79128   1.626   2.871   6.462 -0.0622 -0.6973 -0.1197
25967CL      CL79129   2.680   4.721   8.308  0.3751 -0.0283 -0.4792
25968CL      CL79130   2.267   4.744   7.490  0.0707  0.3854  0.1180
25969CL      CL79131   1.538   6.586   9.942  0.2989  0.2316  0.3047
25970CL      CL79132   1.399   1.401  11.244  0.2835  0.1287 -0.1152
25971CL      CL79133   0.242   4.293   6.460 -0.3131  0.3072 -0.2439
25972CL      CL79134   6.888   1.873   9.328  0.2736 -0.3077 -0.2591
25973CL      CL79135   5.710   7.330   6.169  0.0968  0.0298  0.2650
25974CL      CL79136   6.544   2.760   0.340 -0.1314  0.1149  0.2113
25975CL      CL79137   1.131   4.859   2.772  0.3123 -0.6685  0.1709
25976CL      CL79138   7.161   5.497   4.427  0.2068  0.2336  0.1293
25977CL      CL79139   1.754   6.713   3.747  0.0893 -0.0285 -0.0826
25978CL      CL79140   2.475   1.333   6.625 -0.4929  0.3596 -0.0697
25979CL      CL79141   0.770   3.830   0.899  0.4526  0.0539 -0.1316
25980CL      CL79142   1.126   3.905   8.931  0.3902  0.3891  0.3419
25981CL      CL79143   4.527   5.933   3.460  0.0958  0.0726 -0.1777
25982CL      CL79144   0.073   6.108   5.163  0.0827  0.0790 -0.5088
25983CL      CL79145   5.440   6.887   7.226 -0.6466 -0.2738 -0.2132
25984CL      CL79146   2.294   6.986  12.398  0.3869  0.0581 -0.2584
25985CL      CL79147   0.160   1.622   8.034 -0.3536  0.3329 -0.4411
25986CL      CL79148   3.622   4.450   0.352  0.5013 -0.1779 -0.0944
25987CL      CL79149   7.094   0.422  10.989 -0.0258  0.2315  0.2306
25988CL      CL79150   5.726   2.130   0.194 -0.0298 -0.1150 -0.1481
25989CL      CL79151   1.438   6.110   1.919  0.1831  0.3605 -0.2149
25990CL      CL79152   0.844   0.623   4.742  0.5418  0.1370 -0.0352
25991CL      CL79153   7.226   1.368   2.541 -0.3615  0.0615  0.1668
25992CL      CL79154   3.649   7.514   5.758 -0.0369  0.5581 -0.1159
25993CL      CL79155   6.252   4.730   2.522 -0.3453 -0.0455 -0.1055
25994CL      CL79156   1.834   7.314   7.723  0.0746 -0.1964 -0.0039
25995CL      CL79157   6.943   6.577   6.500  0.0216  0.1915  0.5311
25996CL      CL79158   2.634   5.402   3.347  0.0266  0.1744  0.0033
25997CL      CL79159   4.826   6.483  11.534  0.3950 -0.0850 -0.3160
25998CL      CL79160   4.441   0.235   2.856 -0.3063  0.3169 -0.2512
25999CL      CL79161   0.838   5.580   9.961  0.3257  0.1459  0.2813
26000CL      CL79162   1.484   0.182   1.886  0.2214  0.0683  0.0730
26001CL      CL79163   7.170   5.970   3.505  0.2694  0.3923  0.1332
26002CL      CL79164   3.952   7.073   1.489 -0.4504 -0.0618  0.1102
26003CL      CL79165   0.887   2.140  10.460 -0.1069 -0.0989 -0.0185
26004CL      CL79166   7.090   4.530   4.109  0.4818 -0.1797 -0.0119
   7.98336   7.98336  12.47400
